Title
43206
    1CHL1    C3    1   4.296   4.047   5.908 -0.3325 -0.2323 -0.4966
    1CHL1    H3    2   4.232   3.957   5.923  0.2197 -0.4489  0.6398
    1CHL1    O3    3   4.363   4.087   6.023 -0.3720  0.1710 -0.2383
    1CHL1   H3'    4   4.411   4.169   6.008  2.2210 -1.5782 -1.8147
    1CHL1    C4    5   4.401   4.018   5.801  0.2581  0.5795  0.0862
    1CHL1   H4A    6   4.474   4.101   5.788  0.5613  0.5126  1.2720
    1CHL1   H4B    7   4.462   3.937   5.847  0.0078  0.4555  0.2022
    1CHL1    C5    8   4.333   3.980   5.672  0.6804 -0.3107 -0.2261
    1CHL1    C6    9   4.359   3.858   5.612  0.3127  0.7372 -0.6890
    1CHL1    H6   10   4.427   3.788   5.661 -1.6251  0.1245  1.2205
    1CHL1    C7   11   4.299   3.812   5.483 -0.0687  0.6552 -0.0922
    1CHL1   H7A   12   4.380   3.783   5.412  0.9583 -0.0689  1.3511
    1CHL1   H7B   13   4.219   3.736   5.493  0.2041  0.1976 -1.2298
    1CHL1    C8   14   4.236   3.936   5.409  0.0199  0.0336  1.0941
    1CHL1    H8   15   4.313   3.995   5.354  0.2345 -1.5403 -0.3557
    1CHL1   C14   16   4.139   3.889   5.306  0.2619  0.5685 -0.3396
    1CHL1   H14   17   4.059   3.834   5.361 -0.7391  1.5917 -0.7550
    1CHL1   C15   18   4.181   3.778   5.208 -0.4900  0.5222  0.5986
    1CHL1  H15A   19   4.280   3.801   5.163 -0.8393 -1.1107 -1.0747
    1CHL1  H15B   20   4.202   3.678   5.252 -0.7102 -0.6065 -1.8329
    1CHL1   C16   21   4.078   3.782   5.094  0.4177 -0.0310  0.1537
    1CHL1  H16A   22   4.142   3.804   5.006  0.1385 -0.0826 -0.0629
    1CHL1  H16B   23   4.023   3.685   5.088 -0.4756  0.4455  0.5450
    1CHL1   C17   24   3.984   3.900   5.127  0.2234 -0.0128 -0.2458
    1CHL1   H17   25   3.899   3.865   5.190 -0.4395  0.0870 -1.0731
    1CHL1   C13   26   4.065   3.992   5.221 -0.4895 -0.3184  0.1966
    1CHL1   C18   27   4.169   4.077   5.139  0.5049 -0.5738  0.0533
    1CHL1  H18A   28   4.121   4.152   5.073  0.4420  0.8451  1.6590
    1CHL1  H18B   29   4.232   4.151   5.194 -1.3497  1.9462 -1.1511
    1CHL1  H18C   30   4.231   4.012   5.074  1.9416  0.5640  0.2473
    1CHL1   C12   31   3.979   4.082   5.320 -0.4105  0.2752 -0.1915
    1CHL1  H12A   32   3.927   4.164   5.266  1.1110 -0.0816 -2.2527
    1CHL1  H12B   33   3.894   4.026   5.365  1.6027 -0.1766  3.1721
    1CHL1   C11   34   4.080   4.140   5.425 -0.5479  0.1386 -0.2874
    1CHL1  H11A   35   4.142   4.217   5.375  1.6669 -1.4199 -0.0410
    1CHL1  H11B   36   4.013   4.189   5.498 -0.9483 -0.4413 -0.2619
    1CHL1    C9   37   4.164   4.031   5.503  0.6861  0.1421 -0.1670
    1CHL1    H9   38   4.093   3.959   5.550  0.1151  0.8554  0.0729
    1CHL1   C10   39   4.242   4.087   5.616  0.1994  0.4449  0.5248
    1CHL1   C19   40   4.328   4.203   5.567  1.0450  0.5710 -0.0042
    1CHL1  H19A   41   4.276   4.286   5.515 -0.3496 -0.6146 -0.5450
    1CHL1  H19B   42   4.382   4.246   5.654  0.7829  1.5304 -0.3105
    1CHL1  H19C   43   4.406   4.175   5.493  1.8327 -0.0402  1.0551
    1CHL1    C1   44   4.149   4.136   5.723 -0.2597  0.4977 -0.7965
    1CHL1   H1A   45   4.094   4.232   5.713  2.0714  1.9386 -0.1888
    1CHL1   H1B   46   4.070   4.060   5.739  0.1126  0.4016  0.6477
    1CHL1    C2   47   4.215   4.165   5.861 -0.2431  0.2926  0.0030
    1CHL1   H2A   48   4.139   4.194   5.937  0.2554 -0.4149  0.7875
    1CHL1   H2B   49   4.281   4.253   5.848  0.3129 -0.3060 -1.3038
    1CHL1   C20   50   3.920   3.953   5.003 -0.0131  0.3375  0.1620
    1CHL1   H20   51   3.993   4.004   4.936  0.6742 -0.7217  0.0863
    1CHL1   C21   52   3.813   4.065   5.037 -0.4697  0.5345 -0.0992
    1CHL1  H21A   53   3.734   4.023   5.102 -1.1387 -1.4147 -2.1068
    1CHL1  H21B   54   3.766   4.106   4.945 -0.4267  2.3468  0.6734
    1CHL1  H21C   55   3.860   4.155   5.082 -1.8161  2.1177 -1.7994
    1CHL1   C22   56   3.863   3.843   4.914 -0.0306 -0.0445  0.7748
    1CHL1  H22A   57   3.933   3.759   4.892 -1.8514 -0.8143 -2.2888
    1CHL1  H22B   58   3.780   3.802   4.975  0.3072  0.0393  1.2947
    1CHL1   C23   59   3.825   3.895   4.775 -0.5978 -0.3282 -0.3775
    1CHL1  H23A   60   3.769   3.990   4.783 -0.5934 -0.2194 -1.5876
    1CHL1  H23B   61   3.917   3.920   4.719 -1.1458  0.7124 -0.8257
    1CHL1   C24   62   3.750   3.790   4.697 -0.7890 -0.2391 -0.1283
    1CHL1  H24A   63   3.809   3.697   4.710 -1.0230 -0.2982  0.5746
    1CHL1  H24B   64   3.649   3.780   4.743 -1.1481  1.4890 -0.5349
    1CHL1   C25   65   3.730   3.837   4.554 -0.2816  0.1667 -0.1009
    1CHL1   H25   66   3.814   3.898   4.514  0.6348 -1.2551 -0.4108
    1CHL1   C26   67   3.697   3.714   4.463 -0.1651  0.9917 -0.4507
    1CHL1  H26A   68   3.778   3.639   4.469  0.6620  1.6580 -2.6448
    1CHL1  H26B   69   3.607   3.659   4.497 -0.0333  0.1555 -1.4342
    1CHL1  H26C   70   3.680   3.743   4.357 -1.5092 -0.2656 -0.5915
    1CHL1   C27   71   3.613   3.935   4.550  0.4044 -0.3575 -0.0267
    1CHL1  H27A   72   3.588   3.961   4.445 -2.5761 -2.0626  0.1895
    1CHL1  H27B   73   3.522   3.888   4.593 -0.7650  0.0486 -2.0175
    1CHL1  H27C   74   3.643   4.033   4.594 -2.7101  0.0997  1.2595
    2CHL1    C3   75   4.000   3.716   6.005 -1.2650  0.5343 -0.3960
    2CHL1    H3   76   4.075   3.788   5.967 -1.3237 -0.2859 -2.0872
    2CHL1    O3   77   4.018   3.708   6.143 -0.3094 -0.0188 -0.3232
    2CHL1   H3'   78   3.996   3.618   6.167 -0.5328 -0.4042 -1.9133
    2CHL1    C4   79   3.856   3.771   5.975  0.1984  0.4895 -0.3197
    2CHL1   H4A   80   3.790   3.706   6.037  1.4766  2.2542  3.0520
    2CHL1   H4B   81   3.860   3.870   6.025  1.5140 -0.6280  1.8998
    2CHL1    C5   82   3.814   3.761   5.827  0.0368 -0.5899  1.1571
    2CHL1    C6   83   3.757   3.868   5.760 -0.3098  0.3257 -0.4447
    2CHL1    H6   84   3.744   3.966   5.808 -0.2117 -0.0124  0.2799
    2CHL1    C7   85   3.702   3.861   5.619 -0.0193  0.8810 -0.1645
    2CHL1   H7A   86   3.598   3.897   5.606 -0.1398 -0.0956 -2.1190
    2CHL1   H7B   87   3.769   3.925   5.558 -0.3203 -0.9791 -2.4927
    2CHL1    C8   88   3.703   3.715   5.570 -0.3391 -0.2714 -0.4582
    2CHL1    H8   89   3.623   3.661   5.626  0.9582 -0.5182  1.1865
    2CHL1   C14   90   3.683   3.715   5.419 -0.8517  0.8161 -0.4942
    2CHL1   H14   91   3.776   3.768   5.392 -0.6154  1.3078  1.2081
    2CHL1   C15   92   3.564   3.787   5.359 -0.3748  0.4148  0.4853
    2CHL1  H15A   93   3.479   3.748   5.420 -0.8498 -1.5688 -1.4049
    2CHL1  H15B   94   3.574   3.898   5.360  0.5038  0.4854 -4.5543
    2CHL1   C16   95   3.551   3.731   5.220  0.0018 -0.2113  0.4588
    2CHL1  H16A   96   3.458   3.672   5.209 -0.7133  0.8160  0.9053
    2CHL1  H16B   97   3.553   3.802   5.135 -0.2838 -0.1676  0.4884
    2CHL1   C17   98   3.660   3.619   5.201 -0.2708 -0.2420 -0.1221
    2CHL1   H17   99   3.749   3.666   5.154  0.9812 -2.2660  0.1393
    2CHL1   C13  100   3.702   3.577   5.348 -0.8270 -0.6470 -0.0086
    2CHL1   C18  101   3.597   3.480   5.406  0.3770 -0.1236  0.0131
    2CHL1  H18A  102   3.629   3.375   5.393  2.5115  0.2915  1.8078
    2CHL1  H18B  103   3.586   3.484   5.516  0.2021 -0.5405  0.0110
    2CHL1  H18C  104   3.494   3.482   5.364 -0.3234 -0.0655  1.7135
    2CHL1   C12  105   3.843   3.523   5.375 -0.0742 -0.0168 -1.0395
    2CHL1  H12A  106   3.857   3.420   5.336  0.0615 -0.4920  0.2412
    2CHL1  H12B  107   3.910   3.597   5.327 -0.8512  1.9560  0.8523
    2CHL1   C11  108   3.879   3.516   5.526 -1.2570  0.3957 -0.0581
    2CHL1  H11A  109   3.827   3.422   5.557  0.2721 -0.8128 -1.0585
    2CHL1  H11B  110   3.989   3.501   5.532 -1.4349 -1.3030 -0.5557
    2CHL1    C9  111   3.841   3.649   5.603  0.4692  0.3597  0.0838
    2CHL1    H9  112   3.910   3.729   5.568 -0.6225  0.2669 -2.4301
    2CHL1   C10  113   3.855   3.630   5.761  0.5555 -0.4773 -0.1383
    2CHL1   C19  114   3.756   3.514   5.813  0.4540 -0.1509  0.0431
    2CHL1  H19A  115   3.720   3.519   5.917  0.9916 -1.4155  0.3037
    2CHL1  H19B  116   3.663   3.519   5.753  0.9823 -0.3361 -0.8005
    2CHL1  H19C  117   3.804   3.415   5.796 -1.0187 -0.5984 -1.6369
    2CHL1    C1  118   4.001   3.592   5.787 -0.2614  0.8392 -0.6113
    2CHL1   H1A  119   4.040   3.503   5.734  1.6345  2.2787 -1.7166
    2CHL1   H1B  120   4.063   3.674   5.744  1.8380 -0.1322  0.4733
    2CHL1    C2  121   4.034   3.585   5.937 -0.0718 -0.5302 -0.2656
    2CHL1   H2A  122   4.135   3.546   5.964 -0.3068 -2.1593 -1.6336
    2CHL1   H2B  123   3.970   3.504   5.977 -0.2387  0.0556  0.6488
    2CHL1   C20  124   3.626   3.507   5.101  0.9344 -0.4661 -0.0762
    2CHL1   H20  125   3.560   3.436   5.156  2.2206 -2.3597 -0.9298
    2CHL1   C21  126   3.758   3.430   5.067  0.2313 -0.0961  0.6490
    2CHL1  H21A  127   3.794   3.368   5.153  3.4870  1.4551  0.4621
    2CHL1  H21B  128   3.840   3.501   5.046  1.6594 -1.6887  0.6750
    2CHL1  H21C  129   3.763   3.363   4.978  0.8604  0.1738  0.4771
    2CHL1   C22  130   3.555   3.557   4.969 -0.2353  0.4235 -0.1425
    2CHL1  H22A  131   3.459   3.601   5.006  0.8881  2.0961  0.8652
    2CHL1  H22B  132   3.622   3.630   4.920  1.0059 -0.4239  0.2471
    2CHL1   C23  133   3.519   3.444   4.879  0.3061 -0.4135  0.0981
    2CHL1  H23A  134   3.615   3.397   4.847 -0.2641 -0.3931 -1.6994
    2CHL1  H23B  135   3.472   3.356   4.925 -0.0759 -1.3342 -1.9875
    2CHL1   C24  136   3.433   3.494   4.765 -0.6862 -0.5140  0.0828
    2CHL1  H24A  137   3.348   3.553   4.804 -1.3403 -1.4025  0.0115
    2CHL1  H24B  138   3.503   3.558   4.707 -0.1056 -0.1745  1.1310
    2CHL1   C25  139   3.384   3.383   4.675  0.2154 -0.2947  0.0247
    2CHL1   H25  140   3.324   3.317   4.741 -1.2300 -1.1644 -2.0763
    2CHL1   C26  141   3.293   3.448   4.571 -0.8114 -0.1984 -0.0882
    2CHL1  H26A  142   3.331   3.547   4.538 -0.6013 -0.8482 -1.8652
    2CHL1  H26B  143   3.270   3.387   4.481 -1.6758  0.4566 -0.3140
    2CHL1  H26C  144   3.189   3.467   4.606 -0.9726 -0.5748 -0.3605
    2CHL1   C27  145   3.482   3.294   4.601  0.2991 -0.4094  0.4082
    2CHL1  H27A  146   3.417   3.220   4.550 -0.3638 -0.8218  1.8303
    2CHL1  H27B  147   3.533   3.351   4.521 -0.7655  1.0611  0.7428
    2CHL1  H27C  148   3.554   3.248   4.672  0.2123 -1.1840 -0.0061
    3CHL1    C3  149   3.473   3.844   5.986 -0.9163 -0.0307 -0.3105
    3CHL1    H3  150   3.562   3.833   5.920 -1.3294  4.2601 -1.7572
    3CHL1    O3  151   3.503   3.799   6.114  0.0241 -0.4135 -0.6768
    3CHL1   H3'  152   3.541   3.871   6.165  1.1849 -1.1658 -0.4519
    3CHL1    C4  153   3.441   3.995   5.994  0.1018 -0.5452 -0.5824
    3CHL1   H4A  154   3.352   4.002   6.059  0.9835 -1.0182  0.6848
    3CHL1   H4B  155   3.522   4.049   6.048  1.4505 -2.5383 -0.5529
    3CHL1    C5  156   3.411   4.048   5.856  0.0044 -0.3805 -0.5468
    3CHL1    C6  157   3.475   4.154   5.802 -0.2725  0.7897 -0.3646
    3CHL1    H6  158   3.550   4.209   5.860  0.6964  1.2943 -2.0743
    3CHL1    C7  159   3.435   4.221   5.671 -0.3922  0.3475 -0.7751
    3CHL1   H7A  160   3.448   4.331   5.674  2.2707  0.0385 -0.3778
    3CHL1   H7B  161   3.516   4.184   5.604  1.0405  0.1124  1.0633
    3CHL1    C8  162   3.302   4.181   5.614  0.2296  0.9949  0.1949
    3CHL1    H8  163   3.225   4.230   5.678 -2.0095 -0.9726 -0.9271
    3CHL1   C14  164   3.289   4.224   5.470  0.1002 -0.2353  0.0400
    3CHL1   H14  165   3.379   4.186   5.417  0.9984 -0.0147  1.3656
    3CHL1   C15  166   3.300   4.371   5.449 -0.1571 -0.7743  0.6225
    3CHL1  H15A  167   3.234   4.415   5.528  1.1208 -0.4480  1.5209
    3CHL1  H15B  168   3.395   4.428   5.454 -2.2978  3.5904 -3.6023
    3CHL1   C16  169   3.238   4.390   5.307  0.0129  0.4172 -0.0219
    3CHL1  H16A  170   3.154   4.462   5.311 -1.0847 -0.8664  0.1142
    3CHL1  H16B  171   3.304   4.424   5.224  0.8869 -0.6155  0.2399
    3CHL1   C17  172   3.183   4.248   5.262 -0.3985  0.3683 -0.0223
    3CHL1   H17  173   3.267   4.198   5.209 -1.0773  1.4214 -2.1423
    3CHL1   C13  174   3.159   4.171   5.398 -0.1092 -0.2830 -0.0295
    3CHL1   C18  175   3.030   4.223   5.469 -0.2040 -0.3210  0.2184
    3CHL1  H18A  176   3.034   4.334   5.462  0.0423 -0.2687  1.1819
    3CHL1  H18B  177   2.945   4.183   5.410  0.2545  1.1671 -1.5043
    3CHL1  H18C  178   3.014   4.196   5.576  1.6581  0.5857  0.7334
    3CHL1   C12  179   3.183   4.011   5.411  0.1429 -0.3209  0.5204
    3CHL1  H12A  180   3.097   3.958   5.364 -2.1932  2.5611  1.3743
    3CHL1  H12B  181   3.279   3.976   5.367 -0.1524  0.5683 -0.8574
    3CHL1   C11  182   3.183   3.967   5.555 -0.3206  0.1343  0.1225
    3CHL1  H11A  183   3.081   3.993   5.590  0.1595  1.9245  0.2217
    3CHL1  H11B  184   3.189   3.856   5.554  0.4728  0.1747 -0.8391
    3CHL1    C9  185   3.296   4.033   5.633 -0.4212  0.4493 -0.2878
    3CHL1    H9  186   3.390   3.988   5.594 -0.6882  0.5574 -1.0750
    3CHL1   C10  187   3.303   3.980   5.778 -0.1831  0.4001 -0.7080
    3CHL1   C19  188   3.169   4.019   5.848 -0.4409 -0.3524 -0.1584
    3CHL1  H19A  189   3.085   3.956   5.813 -0.1033 -0.2388 -1.2005
    3CHL1  H19B  190   3.169   3.988   5.955  0.8149  0.0161 -0.0449
    3CHL1  H19C  191   3.149   4.125   5.824  1.1554 -0.1648 -0.7246
    3CHL1    C1  192   3.329   3.823   5.784  0.8233 -0.1418 -0.3582
    3CHL1   H1A  193   3.238   3.775   5.743  1.1984  0.6543 -2.1641
    3CHL1   H1B  194   3.415   3.795   5.720  3.5585 -0.5007  3.3485
    3CHL1    C2  195   3.360   3.773   5.924  0.1863 -0.6914 -0.0175
    3CHL1   H2A  196   3.385   3.665   5.923 -0.7570 -0.9683 -4.0840
    3CHL1   H2B  197   3.269   3.782   5.988  0.3306 -1.3267  0.2823
    3CHL1   C20  198   3.059   4.244   5.169  0.1967 -0.9562 -0.1656
    3CHL1   H20  199   2.973   4.294   5.220 -0.1142 -2.3781  0.7121
    3CHL1   C21  200   3.021   4.096   5.146 -0.1003 -0.4286  0.0035
    3CHL1  H21A  201   3.110   4.037   5.114  0.4112 -0.3808  1.3128
    3CHL1  H21B  202   2.950   4.101   5.061 -0.1904  2.8396  0.2069
    3CHL1  H21C  203   2.971   4.058   5.237 -0.0174 -0.0183  0.2218
    3CHL1   C22  204   3.092   4.309   5.035 -0.2216  0.3232  0.6164
    3CHL1  H22A  205   3.152   4.400   5.053 -0.4283  0.6687 -0.3956
    3CHL1  H22B  206   3.155   4.238   4.976 -0.8302  0.3837 -0.1263
    3CHL1   C23  207   2.979   4.338   4.940  0.0267 -0.1481 -0.0259
    3CHL1  H23A  208   2.937   4.241   4.908  0.3660 -0.3433  0.1197
    3CHL1  H23B  209   2.904   4.402   4.992  0.5220 -0.7244  1.4274
    3CHL1   C24  210   3.040   4.424   4.819 -0.2862 -0.1917 -0.4790
    3CHL1  H24A  211   3.071   4.523   4.857  1.8410 -0.3729 -1.6853
    3CHL1  H24B  212   3.138   4.377   4.794  0.7884  1.7554  0.0597
    3CHL1   C25  213   2.960   4.418   4.684 -0.2431 -0.3941  0.4155
    3CHL1   H25  214   2.855   4.443   4.711  0.0309  0.8233  0.3702
    3CHL1   C26  215   2.986   4.542   4.596 -0.4787  0.3810  0.1694
    3CHL1  H26A  216   2.924   4.534   4.504 -2.6554 -1.8440  1.7828
    3CHL1  H26B  217   2.961   4.640   4.641  1.4923  0.0444  2.0806
    3CHL1  H26C  218   3.093   4.543   4.564 -0.6161 -1.2309 -0.3919
    3CHL1   C27  219   2.973   4.291   4.601  0.4993 -0.2419  0.0131
    3CHL1  H27A  220   2.980   4.201   4.666 -0.2779 -1.1005 -1.0678
    3CHL1  H27B  221   2.885   4.286   4.533 -0.8093  1.7799  1.5178
    3CHL1  H27C  222   3.063   4.292   4.535 -0.4052 -0.0085 -1.2521
    4CHL1    C3  223   3.969   4.586   5.932 -0.0395 -0.7323 -0.5047
    4CHL1    H3  224   4.030   4.678   5.940 -0.2772 -0.5828 -0.4058
    4CHL1    O3  225   3.959   4.533   6.065  0.1058 -0.4538 -0.6804
    4CHL1   H3'  226   3.879   4.481   6.078 -0.4058  0.7668  1.1331
    4CHL1    C4  227   3.830   4.613   5.881 -0.0060 -0.6073  0.1031
    4CHL1   H4A  228   3.774   4.517   5.885  0.1292 -0.7624 -1.3826
    4CHL1   H4B  229   3.788   4.700   5.934  0.4623 -0.6038  0.4747
    4CHL1    C5  230   3.826   4.647   5.734 -0.4509  0.4056  0.1761
    4CHL1    C6  231   3.783   4.765   5.689  0.2564  0.2614 -0.1182
    4CHL1    H6  232   3.737   4.830   5.764  2.2082  0.7437  0.6890
    4CHL1    C7  233   3.785   4.823   5.552 -0.2238 -0.2409  1.1169
    4CHL1   H7A  234   3.686   4.863   5.521 -0.6682 -1.7118  0.6222
    4CHL1   H7B  235   3.871   4.893   5.542 -1.0528  0.4236 -1.8459
    4CHL1    C8  236   3.803   4.699   5.460  0.1752 -0.0649 -0.2969
    4CHL1    H8  237   3.712   4.637   5.447 -0.3101  0.8190 -1.2344
    4CHL1   C14  238   3.830   4.758   5.317 -0.4478  0.1702  0.0021
    4CHL1   H14  239   3.916   4.828   5.319 -0.7370  0.5046  0.9761
    4CHL1   C15  240   3.724   4.838   5.252  0.0844 -0.0034  1.0945
    4CHL1  H15A  241   3.636   4.774   5.275  0.5948 -0.0375  3.0043
    4CHL1  H15B  242   3.702   4.941   5.287  0.7713  0.7427 -0.5843
    4CHL1   C16  243   3.770   4.853   5.109  0.1611  0.1891  0.0287
    4CHL1  H16A  244   3.679   4.830   5.049 -0.1384 -0.5877  0.7583
    4CHL1  H16B  245   3.818   4.948   5.079 -0.1239  0.4040  0.2519
    4CHL1   C17  246   3.881   4.739   5.092 -0.6272  0.2654  0.6769
    4CHL1   H17  247   3.978   4.792   5.102 -0.3579 -0.2329  0.7481
    4CHL1   C13  248   3.870   4.650   5.210 -0.3570  0.1135 -0.0596
    4CHL1   C18  249   3.761   4.551   5.182  0.4123 -0.2403  0.2334
    4CHL1  H18A  250   3.716   4.518   5.279  1.3168 -0.9188  0.4265
    4CHL1  H18B  251   3.684   4.592   5.113 -0.3105 -1.6659  0.1705
    4CHL1  H18C  252   3.799   4.462   5.129  0.7559 -0.4166  0.7726
    4CHL1   C12  253   4.005   4.581   5.257  0.5934  0.0943  1.0145
    4CHL1  H12A  254   4.043   4.500   5.191  1.6406  0.2892  1.3816
    4CHL1  H12B  255   4.086   4.656   5.250  0.6669  0.0604  1.4814
    4CHL1   C11  256   3.983   4.524   5.396 -0.2961 -0.4734  0.5136
    4CHL1  H11A  257   3.913   4.438   5.387  0.3332 -0.8604 -0.8365
    4CHL1  H11B  258   4.081   4.492   5.436 -0.1401  0.2417  0.7043
    4CHL1    C9  259   3.927   4.625   5.512 -0.3631  0.2320 -0.3504
    4CHL1    H9  260   4.004   4.705   5.527  0.4871 -0.7256  0.4803
    4CHL1   C10  261   3.907   4.553   5.640 -0.4641 -0.4576 -0.3380
    4CHL1   C19  262   3.842   4.419   5.619  0.1408  0.1406 -0.0968
    4CHL1  H19A  263   3.799   4.387   5.716  0.5056 -0.5531 -0.1566
    4CHL1  H19B  264   3.759   4.430   5.547 -1.1073  0.3264  1.3484
    4CHL1  H19C  265   3.913   4.339   5.588 -2.1168 -1.6283 -0.9040
    4CHL1    C1  266   4.048   4.526   5.705  0.4707  0.8496  0.8836
    4CHL1   H1A  267   4.110   4.459   5.643 -1.8686  0.8099 -1.5489
    4CHL1   H1B  268   4.104   4.622   5.707 -1.0419  1.7537  1.3060
    4CHL1    C2  269   4.037   4.477   5.848 -0.0893 -0.7764  0.4231
    4CHL1   H2A  270   4.134   4.452   5.897  0.3856  2.9506  1.5338
    4CHL1   H2B  271   3.976   4.385   5.857 -1.6309  0.1299 -0.5378
    4CHL1   C20  272   3.881   4.668   4.953  0.2517  0.0171 -0.0527
    4CHL1   H20  273   3.784   4.625   4.922 -0.2953  0.1636  1.4301
    4CHL1   C21  274   3.979   4.547   4.946 -0.4127  0.0094  0.7040
    4CHL1  H21A  275   4.085   4.568   4.971 -0.2250 -0.2951  0.1735
    4CHL1  H21B  276   3.989   4.526   4.837 -3.4716  2.1964 -0.0727
    4CHL1  H21C  277   3.941   4.449   4.981  0.0116  0.5067  2.6202
    4CHL1   C22  278   3.921   4.775   4.851 -0.3028 -0.6151 -0.5469
    4CHL1  H22A  279   3.878   4.872   4.882  1.6460  1.6283 -4.5029
    4CHL1  H22B  280   4.029   4.798   4.857 -0.4730  0.1539 -0.3293
    4CHL1   C23  281   3.869   4.742   4.713  0.1518 -0.2852  0.1487
    4CHL1  H23A  282   3.926   4.654   4.678 -0.1540  0.1068 -1.3919
    4CHL1  H23B  283   3.761   4.716   4.721 -0.2646  1.7074  1.2675
    4CHL1   C24  284   3.870   4.863   4.619 -0.2674 -0.4975 -1.1859
    4CHL1  H24A  285   3.781   4.924   4.647  0.9893  0.2121  1.4000
    4CHL1  H24B  286   3.959   4.927   4.635  0.0448 -0.6345 -2.3397
    4CHL1   C25  287   3.860   4.812   4.468  0.9835 -0.1624 -0.2390
    4CHL1   H25  288   3.940   4.735   4.473  0.6468 -0.4148  1.8299
    4CHL1   C26  289   3.725   4.737   4.448  0.2636 -0.2801  0.1079
    4CHL1  H26A  290   3.645   4.784   4.509  0.3866 -0.9770  0.8117
    4CHL1  H26B  291   3.695   4.738   4.342 -1.2923 -1.5653  0.5217
    4CHL1  H26C  292   3.729   4.630   4.478  1.9210 -0.1855  0.3223
    4CHL1   C27  293   3.890   4.915   4.361 -0.2474 -0.5529 -0.1849
    4CHL1  H27A  294   3.866   4.890   4.256 -0.3960  1.4257 -0.6235
    4CHL1  H27B  295   3.845   5.009   4.399 -1.4673 -0.8502 -0.8983
    4CHL1  H27C  296   3.999   4.937   4.371 -0.5549 -0.1159  2.5196
    5CHL1    C3  297   4.342   4.730   5.951 -0.3857  0.3195 -0.0752
    5CHL1    H3  298   4.261   4.655   5.943 -1.1253  1.2356 -1.2011
    5CHL1    O3  299   4.403   4.701   6.077 -0.5071  0.7037  0.0364
    5CHL1   H3'  300   4.431   4.786   6.111 -0.2274  0.1781  1.1770
    5CHL1    C4  301   4.442   4.696   5.843  0.6930  0.0373  0.2490
    5CHL1   H4A  302   4.536   4.750   5.870  0.0760  1.2209  0.0559
    5CHL1   H4B  303   4.452   4.586   5.834  1.0154  0.1654 -1.0863
    5CHL1    C5  304   4.401   4.743   5.702  0.2486 -0.6439 -0.1137
    5CHL1    C6  305   4.390   4.653   5.601 -0.1072  0.2278 -0.0809
    5CHL1    H6  306   4.437   4.554   5.616  4.0804  2.0615 -0.4362
    5CHL1    C7  307   4.351   4.690   5.461 -0.4098 -0.0577  0.0992
    5CHL1   H7A  308   4.426   4.654   5.388 -1.6092 -1.1281 -0.6278
    5CHL1   H7B  309   4.253   4.649   5.428 -0.5036 -0.2262  0.5687
    5CHL1    C8  310   4.355   4.849   5.443 -0.0857  0.3401 -0.0679
    5CHL1    H8  311   4.464   4.865   5.432  0.2571 -0.2611  2.2361
    5CHL1   C14  312   4.286   4.883   5.315  0.4781  0.5635 -0.2045
    5CHL1   H14  313   4.177   4.869   5.335  0.0474 -1.1055 -3.3553
    5CHL1   C15  314   4.320   4.798   5.188 -0.1089 -0.0076  0.2137
    5CHL1  H15A  315   4.430   4.785   5.186 -0.0339  0.6214  0.3000
    5CHL1  H15B  316   4.272   4.699   5.205 -1.1930  0.4920  0.1413
    5CHL1   C16  317   4.271   4.886   5.070  0.6120 -0.5819  0.4520
    5CHL1  H16A  318   4.357   4.910   5.003 -0.7356  0.4805 -0.9243
    5CHL1  H16B  319   4.194   4.837   5.006 -0.0262  2.6441 -1.3842
    5CHL1   C17  320   4.195   5.007   5.132  0.2508 -0.5273  0.8270
    5CHL1   H17  321   4.091   4.974   5.152  0.3490  0.3290  2.8471
    5CHL1   C13  322   4.273   5.029   5.264  0.7482 -0.0199 -0.5497
    5CHL1   C18  323   4.418   5.075   5.232  0.2810  0.0447  0.3885
    5CHL1  H18A  324   4.482   5.086   5.322 -0.8307 -0.3583  1.2336
    5CHL1  H18B  325   4.473   5.015   5.156  0.3827 -0.6123  0.9717
    5CHL1  H18C  326   4.414   5.178   5.192 -0.7561 -0.6124 -1.2571
    5CHL1   C12  327   4.212   5.111   5.382  0.0160 -0.0728 -0.9150
    5CHL1  H12A  328   4.223   5.221   5.371 -0.6957  0.0169 -0.7668
    5CHL1  H12B  329   4.107   5.077   5.394 -0.6030  1.0384 -2.8613
    5CHL1   C11  330   4.285   5.080   5.520  0.3846  0.1705 -0.3693
    5CHL1  H11A  331   4.390   5.117   5.511  1.1525 -1.9040 -0.0563
    5CHL1  H11B  332   4.238   5.131   5.607 -3.4241  2.0255 -3.3124
    5CHL1    C9  333   4.296   4.927   5.550  0.5541 -0.2361  0.1960
    5CHL1    H9  334   4.189   4.900   5.551  0.5978 -0.4440 -0.5118
    5CHL1   C10  335   4.360   4.894   5.691 -0.3347 -0.2670 -0.3678
    5CHL1   C19  336   4.479   4.983   5.720 -0.5637 -0.0859 -0.2334
    5CHL1  H19A  337   4.433   5.081   5.745 -1.7202 -0.3396 -1.3098
    5CHL1  H19B  338   4.543   4.952   5.805  0.2533  0.7403 -0.5349
    5CHL1  H19C  339   4.545   4.998   5.631 -0.1007  0.8219  0.2570
    5CHL1    C1  340   4.250   4.902   5.800  0.6272  0.2430 -0.1778
    5CHL1   H1A  341   4.203   5.003   5.796 -1.0331 -0.4557  1.2588
    5CHL1   H1B  342   4.166   4.837   5.768 -0.9525  1.4611  1.3960
    5CHL1    C2  343   4.292   4.874   5.944  0.4297  0.9254 -0.6670
    5CHL1   H2A  344   4.209   4.887   6.017  1.0687  1.8036 -0.0909
    5CHL1   H2B  345   4.377   4.938   5.974  2.0704 -1.5695  0.0981
    5CHL1   C20  346   4.179   5.131   5.033 -0.3377  0.1771  0.1371
    5CHL1   H20  347   4.275   5.186   5.023 -1.0603  1.0806 -2.0700
    5CHL1   C21  348   4.069   5.225   5.082  0.3051  0.3624 -0.0796
    5CHL1  H21A  349   4.074   5.325   5.034 -2.2104  1.0596  0.9965
    5CHL1  H21B  350   4.046   5.242   5.190 -1.3848  1.1183 -0.5290
    5CHL1  H21C  351   3.978   5.168   5.052  0.7340  0.1418 -0.9493
    5CHL1   C22  352   4.135   5.093   4.886  0.6423  0.4524  0.1788
    5CHL1  H22A  353   4.216   5.031   4.841 -0.8836 -0.3569 -1.5462
    5CHL1  H22B  354   4.039   5.038   4.883  1.4928 -1.0676  0.0039
    5CHL1   C23  355   4.112   5.224   4.803 -0.2834 -0.0586 -0.4189
    5CHL1  H23A  356   4.017   5.278   4.823 -0.2132 -0.9725  2.6389
    5CHL1  H23B  357   4.192   5.295   4.833 -0.9701  0.2784  0.6667
    5CHL1   C24  358   4.131   5.201   4.644  0.7005 -0.1535  0.3372
    5CHL1  H24A  359   4.200   5.116   4.625  1.5475  1.0809 -2.3678
    5CHL1  H24B  360   4.034   5.187   4.592  0.9889 -1.7292  0.2006
    5CHL1   C25  361   4.203   5.314   4.560 -0.3515  0.8050 -0.2815
    5CHL1   H25  362   4.307   5.319   4.597 -0.4291 -0.7551  0.1820
    5CHL1   C26  363   4.203   5.261   4.415 -0.2535 -0.2930  0.1129
    5CHL1  H26A  364   4.272   5.174   4.412  1.2031  0.8294  0.2776
    5CHL1  H26B  365   4.099   5.231   4.389 -0.1250 -0.9841  0.3679
    5CHL1  H26C  366   4.239   5.339   4.345  0.1987 -0.1660  0.4812
    5CHL1   C27  367   4.132   5.446   4.574  0.0898  1.0209 -0.2281
    5CHL1  H27A  368   4.108   5.463   4.681  0.2566 -1.6706  0.2873
    5CHL1  H27B  369   4.187   5.530   4.527 -1.6632  2.1940 -0.1883
    5CHL1  H27C  370   4.032   5.432   4.527 -0.1691  0.6712  0.4241
    6CHL1    C3  371   3.262   2.720   5.892 -0.4026 -0.0117  0.1094
    6CHL1    H3  372   3.361   2.771   5.903 -0.1543 -0.6838  1.1574
    6CHL1    O3  373   3.208   2.687   6.018  0.7158  0.1842  0.4143
    6CHL1   H3'  374   3.182   2.770   6.057 -1.6939 -0.9168  1.2789
    6CHL1    C4  375   3.169   2.816   5.827  0.7160 -0.5930  0.7483
    6CHL1   H4A  376   3.068   2.770   5.830  1.9260 -3.3173  1.8053
    6CHL1   H4B  377   3.157   2.907   5.889  0.4945 -0.8044  1.0160
    6CHL1    C5  378   3.216   2.838   5.687 -0.2432 -0.6566  0.1877
    6CHL1    C6  379   3.247   2.958   5.639  0.1152 -0.2986  0.2080
    6CHL1    H6  380   3.237   3.045   5.706 -0.8863 -0.5627  0.4134
    6CHL1    C7  381   3.291   2.990   5.501 -0.9989 -0.4403  0.9801
    6CHL1   H7A  382   3.235   3.080   5.469 -0.8176 -1.5658 -2.7377
    6CHL1   H7B  383   3.397   3.022   5.492 -1.2933 -0.0228 -1.1851
    6CHL1    C8  384   3.249   2.876   5.394  0.1601 -0.0995  0.2400
    6CHL1    H8  385   3.139   2.884   5.380  0.2879  2.6321  0.4264
    6CHL1   C14  386   3.328   2.894   5.267  0.3244 -0.2693 -0.5745
    6CHL1   H14  387   3.436   2.898   5.291  0.3133  3.3146 -0.7455
    6CHL1   C15  388   3.308   3.025   5.186  0.3448 -0.0933 -0.0195
    6CHL1  H15A  389   3.202   3.045   5.161 -0.0066 -1.9459 -0.0537
    6CHL1  H15B  390   3.366   3.105   5.239  0.3087 -0.1354  0.0838
    6CHL1   C16  391   3.389   2.990   5.056  0.1306 -0.2055  0.1888
    6CHL1  H16A  392   3.325   3.020   4.970  0.2710 -1.6499 -0.4264
    6CHL1  H16B  393   3.479   3.054   5.050  1.1277 -1.6526 -0.5508
    6CHL1   C17  394   3.424   2.839   5.052 -0.6079  0.3602  0.6725
    6CHL1   H17  395   3.528   2.826   5.088 -0.3775  1.4543  0.4259
    6CHL1   C13  396   3.327   2.778   5.163  0.0848  0.0390  0.6032
    6CHL1   C18  397   3.183   2.765   5.107  0.8376  0.0916  0.2993
    6CHL1  H18A  398   3.105   2.735   5.181 -1.0938  0.3382 -1.6080
    6CHL1  H18B  399   3.141   2.852   5.053 -0.6607 -1.0449 -0.3808
    6CHL1  H18C  400   3.190   2.679   5.038  1.7330  2.2338 -2.3753
    6CHL1   C12  401   3.382   2.654   5.226  0.7357  0.2517  0.2745
    6CHL1  H12A  402   3.374   2.561   5.167 -0.0684  0.1755  0.4984
    6CHL1  H12B  403   3.486   2.657   5.267  3.1060 -1.0566 -5.2323
    6CHL1   C11  404   3.296   2.629   5.353 -0.0559 -0.7144 -0.0721
    6CHL1  H11A  405   3.198   2.604   5.307  0.4557  0.4424 -1.8495
    6CHL1  H11B  406   3.339   2.540   5.403 -1.2258 -1.1938  0.0745
    6CHL1    C9  407   3.287   2.744   5.458  0.3599 -0.8535 -0.1667
    6CHL1    H9  408   3.393   2.751   5.490  0.3714 -1.9194  0.0408
    6CHL1   C10  409   3.220   2.719   5.597 -0.0896  0.5660  0.9400
    6CHL1   C19  410   3.074   2.671   5.573 -0.2228  1.0261 -0.1263
    6CHL1  H19A  411   3.029   2.634   5.667  0.0824  1.0767  0.0399
    6CHL1  H19B  412   3.010   2.754   5.535 -0.1367  1.5759  0.9209
    6CHL1  H19C  413   3.086   2.586   5.503 -0.3250  0.0347  1.0395
    6CHL1    C1  414   3.300   2.600   5.666  0.3094  0.1013  0.0044
    6CHL1   H1A  415   3.303   2.504   5.611  0.2857  0.0806  0.0402
    6CHL1   H1B  416   3.407   2.629   5.670  0.3459  0.2277 -1.6744
    6CHL1    C2  417   3.263   2.585   5.814 -0.1656 -0.3878 -0.5334
    6CHL1   H2A  418   3.331   2.510   5.860  0.0771  0.0492 -0.1850
    6CHL1   H2B  419   3.164   2.538   5.832  0.0590 -0.3215  0.9066
    6CHL1   C20  420   3.414   2.780   4.912 -0.0936  0.0141 -0.2618
    6CHL1   H20  421   3.308   2.795   4.884 -0.3872 -0.2055  0.7257
    6CHL1   C21  422   3.446   2.627   4.901 -0.0716  0.3384  0.2637
    6CHL1  H21A  423   3.553   2.613   4.929  1.1716  1.9252 -3.3799
    6CHL1  H21B  424   3.442   2.574   4.803  2.8974 -1.8594  1.2565
    6CHL1  H21C  425   3.383   2.579   4.978  2.3991 -0.1947  2.0006
    6CHL1   C22  426   3.490   2.861   4.809 -0.0880  0.6589 -0.5628
    6CHL1  H22A  427   3.460   2.968   4.820 -0.3257  0.6792 -1.3633
    6CHL1  H22B  428   3.600   2.851   4.819 -0.4256 -2.2030  0.6035
    6CHL1   C23  429   3.455   2.819   4.667  0.6320  0.3654  0.5828
    6CHL1  H23A  430   3.489   2.714   4.650 -2.5138 -0.8943  1.5728
    6CHL1  H23B  431   3.345   2.803   4.660  0.8286 -0.2269 -1.3101
    6CHL1   C24  432   3.484   2.912   4.553 -0.5374  0.5543 -0.7790
    6CHL1  H24A  433   3.422   3.004   4.562 -2.4619 -0.7982  0.1419
    6CHL1  H24B  434   3.586   2.956   4.555  0.1299 -0.8748 -2.1759
    6CHL1   C25  435   3.491   2.848   4.416  0.3048  0.0542  0.2842
    6CHL1   H25  436   3.562   2.765   4.434 -1.3525 -0.9573  2.4835
    6CHL1   C26  437   3.354   2.777   4.397  0.4805 -0.5012  0.2990
    6CHL1  H26A  438   3.270   2.849   4.383 -0.1846 -1.4834 -0.8624
    6CHL1  H26B  439   3.356   2.716   4.304 -0.3690  0.3941 -0.3183
    6CHL1  H26C  440   3.345   2.700   4.476  0.2241 -1.2298 -0.4380
    6CHL1   C27  441   3.542   2.936   4.301  0.0730 -0.0754  0.2202
    6CHL1  H27A  442   3.474   3.019   4.275 -0.5233 -1.0428 -1.4027
    6CHL1  H27B  443   3.641   2.981   4.322  0.9363 -1.5282 -0.5871
    6CHL1  H27C  444   3.546   2.885   4.202  0.5711  1.1235 -0.3849
    7CHL1    C3  445   4.626   2.680   6.043  1.1134 -0.3625  0.2178
    7CHL1    H3  446   4.676   2.779   6.027 -1.4602  0.6415 -1.9630
    7CHL1    O3  447   4.642   2.649   6.180  0.6847  0.2340  0.2453
    7CHL1   H3'  448   4.682   2.727   6.219 -1.7368  1.5802  0.1333
    7CHL1    C4  449   4.478   2.707   6.016  0.2562 -0.3015  0.1798
    7CHL1   H4A  450   4.422   2.620   6.056 -0.3142 -0.5132 -1.0446
    7CHL1   H4B  451   4.453   2.789   6.086 -0.0644  0.8903 -1.3112
    7CHL1    C5  452   4.457   2.735   5.866  0.4399 -0.0819 -0.5878
    7CHL1    C6  453   4.407   2.843   5.817  0.3794  0.5188 -0.2854
    7CHL1    H6  454   4.372   2.925   5.882 -1.7657 -1.2868  0.9380
    7CHL1    C7  455   4.375   2.874   5.672 -0.5157  0.1888  0.0688
    7CHL1   H7A  456   4.281   2.931   5.661 -2.0469 -1.7284  2.6741
    7CHL1   H7B  457   4.452   2.941   5.628 -0.8607 -0.0684 -0.9174
    7CHL1    C8  458   4.367   2.744   5.597  0.2045  0.5214 -0.1601
    7CHL1    H8  459   4.274   2.689   5.622  0.3330  0.7796  0.8984
    7CHL1   C14  460   4.354   2.767   5.439  0.4629  0.2142  0.6911
    7CHL1   H14  461   4.446   2.827   5.422 -0.2183  1.2125  0.4471
    7CHL1   C15  462   4.231   2.849   5.391  0.3856 -0.1776 -0.1695
    7CHL1  H15A  463   4.133   2.818   5.433  1.0190 -0.5484  1.0366
    7CHL1  H15B  464   4.249   2.957   5.408  0.8864 -0.4983  1.3606
    7CHL1   C16  465   4.227   2.825   5.237 -0.3247 -0.0702 -0.9352
    7CHL1  H16A  466   4.123   2.801   5.207 -0.9761 -0.0862  1.2411
    7CHL1  H16B  467   4.258   2.915   5.181 -0.2301  1.3443  1.3367
    7CHL1   C17  468   4.334   2.708   5.209 -0.3354 -0.2290  0.1838
    7CHL1   H17  469   4.422   2.771   5.183 -0.2826  0.2953  1.6235
    7CHL1   C13  470   4.360   2.640   5.348 -0.3620  0.1325  0.2895
    7CHL1   C18  471   4.239   2.542   5.383 -0.0826  0.7381 -0.1585
    7CHL1  H18A  472   4.233   2.472   5.297 -0.5857 -0.3077  0.7213
    7CHL1  H18B  473   4.252   2.490   5.481 -1.1816 -1.5192 -1.1643
    7CHL1  H18C  474   4.140   2.593   5.387  0.3358  1.5904 -0.4754
    7CHL1   C12  475   4.496   2.572   5.384 -0.8496  0.1197  0.1972
    7CHL1  H12A  476   4.494   2.478   5.325 -0.2977  1.5283 -2.1360
    7CHL1  H12B  477   4.585   2.628   5.349  0.3590 -1.0712  1.3184
    7CHL1   C11  478   4.510   2.540   5.533 -0.1154 -0.7392 -0.1906
    7CHL1  H11A  479   4.444   2.451   5.549  0.3134 -1.1656 -0.7706
    7CHL1  H11B  480   4.607   2.489   5.551  0.5822  0.6101 -0.0466
    7CHL1    C9  481   4.489   2.656   5.627  0.8009  0.2833  0.3260
    7CHL1    H9  482   4.565   2.735   5.607  0.5168  0.7820  1.2277
    7CHL1   C10  483   4.498   2.621   5.778  0.7786 -0.2857 -0.1812
    7CHL1   C19  484   4.408   2.497   5.806 -0.1516 -0.1121  0.2571
    7CHL1  H19A  485   4.373   2.489   5.911  0.0521 -3.6989  0.1081
    7CHL1  H19B  486   4.312   2.507   5.751 -0.5858  0.6583  1.1254
    7CHL1  H19C  487   4.459   2.401   5.782 -0.5270 -0.4679  0.8847
    7CHL1    C1  488   4.650   2.580   5.810  0.4449  0.5700  0.6384
    7CHL1   H1A  489   4.682   2.485   5.763 -0.1063  2.4017 -3.7807
    7CHL1   H1B  490   4.729   2.655   5.787  1.4215 -0.0609  1.8985
    7CHL1    C2  491   4.675   2.559   5.962  0.1951  0.5377 -0.2146
    7CHL1   H2A  492   4.784   2.544   5.974 -0.0926 -0.0859  1.8975
    7CHL1   H2B  493   4.627   2.466   6.001 -0.7291  0.1891 -2.0934
    7CHL1   C20  494   4.291   2.625   5.088  0.3660 -0.1181  0.1655
    7CHL1   H20  495   4.185   2.594   5.087  0.7556 -1.4640 -0.5933
    7CHL1   C21  496   4.367   2.490   5.066  0.8119  0.5932  0.3701
    7CHL1  H21A  497   4.371   2.428   5.158 -2.0670  0.4966  0.4535
    7CHL1  H21B  498   4.468   2.497   5.019  0.7889  0.1935  0.2599
    7CHL1  H21C  499   4.310   2.438   4.986  1.3851  2.7416 -1.5175
    7CHL1   C22  500   4.301   2.715   4.967 -1.0950 -0.8304  0.9523
    7CHL1  H22A  501   4.230   2.800   4.980 -1.3774 -0.5308 -2.1602
    7CHL1  H22B  502   4.400   2.761   4.948 -1.5456  0.4534  1.6529
    7CHL1   C23  503   4.254   2.647   4.828  0.0739  0.6074 -0.2812
    7CHL1  H23A  504   4.325   2.568   4.795 -2.1586 -0.5203 -2.5165
    7CHL1  H23B  505   4.165   2.586   4.856  0.4695  0.5404  0.8560
    7CHL1   C24  506   4.245   2.749   4.713 -0.4188 -0.1032 -0.7728
    7CHL1  H24A  507   4.169   2.823   4.747 -0.4254 -0.7949  0.7410
    7CHL1  H24B  508   4.344   2.795   4.695  0.9073 -1.6787  2.0922
    7CHL1   C25  509   4.199   2.670   4.591  0.6045 -0.2711 -0.0572
    7CHL1   H25  510   4.146   2.579   4.627  0.1110  0.6498  1.5667
    7CHL1   C26  511   4.109   2.749   4.501  0.2844  0.5050 -0.0564
    7CHL1  H26A  512   4.169   2.828   4.453  0.2211  1.1017  0.8401
    7CHL1  H26B  513   4.062   2.689   4.420  0.3560  0.0188  0.2548
    7CHL1  H26C  514   4.021   2.795   4.551 -0.8262 -1.3495 -0.2553
    7CHL1   C27  515   4.312   2.619   4.496  0.4536  0.0053  0.6038
    7CHL1  H27A  516   4.380   2.700   4.460 -0.2510 -0.4691 -1.9173
    7CHL1  H27B  517   4.365   2.546   4.560 -0.9890  0.6158  2.5471
    7CHL1  H27C  518   4.263   2.572   4.407 -0.3105  3.4295 -0.8801
    8CHL1    C3  519   2.711   3.201   5.924 -1.1726  1.3499 -0.4039
    8CHL1    H3  520   2.607   3.163   5.923 -0.3574 -0.9432 -0.7707
    8CHL1    O3  521   2.759   3.240   6.049 -0.2088 -0.0092  0.3387
    8CHL1   H3'  522   2.847   3.271   6.029  0.7302 -2.9503 -0.3200
    8CHL1    C4  523   2.787   3.069   5.874 -0.2797 -0.0429  0.1336
    8CHL1   H4A  524   2.897   3.083   5.876 -0.3645  0.6120  0.2208
    8CHL1   H4B  525   2.762   2.986   5.944  2.6583  0.3072  1.6891
    8CHL1    C5  526   2.765   3.029   5.728  0.6386  0.2363 -0.1987
    8CHL1    C6  527   2.716   2.908   5.694  0.7344 -0.5296  0.1247
    8CHL1    H6  528   2.694   2.832   5.771  1.2379 -1.1494 -0.3478
    8CHL1    C7  529   2.685   2.868   5.552  0.0608  0.1271  0.0924
    8CHL1   H7A  530   2.716   2.763   5.537 -0.1954  0.3633 -2.2737
    8CHL1   H7B  531   2.577   2.877   5.526 -0.5047  0.2006  2.3395
    8CHL1    C8  532   2.758   2.965   5.458 -0.2283 -0.0720  0.1559
    8CHL1    H8  533   2.866   2.939   5.464 -0.6835 -2.0520  0.0553
    8CHL1   C14  534   2.716   2.939   5.312  0.0743  0.4010  0.4863
    8CHL1   H14  535   2.605   2.942   5.316  0.0385 -0.9923  0.8217
    8CHL1   C15  536   2.729   2.802   5.254  0.0747 -0.3500 -0.0454
    8CHL1  H15A  537   2.823   2.748   5.280  1.3752  2.0262  0.2972
    8CHL1  H15B  538   2.642   2.745   5.294 -0.3904  0.8897  0.7281
    8CHL1   C16  539   2.718   2.822   5.102  0.9178  0.5931 -0.4898
    8CHL1  H16A  540   2.810   2.784   5.053  0.3760 -3.1751  1.2030
    8CHL1  H16B  541   2.634   2.763   5.057  1.9237 -0.6319 -0.7882
    8CHL1   C17  542   2.696   2.969   5.089  0.4801 -0.8437 -0.0987
    8CHL1   H17  543   2.589   2.990   5.113  0.6902  0.6405 -0.4168
    8CHL1   C13  544   2.760   3.037   5.205 -0.2770 -0.2398  0.5121
    8CHL1   C18  545   2.919   3.016   5.182 -0.5403 -0.2633  0.3432
    8CHL1  H18A  546   2.970   3.050   5.274 -0.4931  1.2040 -0.2128
    8CHL1  H18B  547   2.941   2.908   5.173  1.9433  0.3894 -2.1529
    8CHL1  H18C  548   2.970   3.067   5.097 -2.0155 -0.8057 -0.8990
    8CHL1   C12  549   2.720   3.183   5.237  0.3566 -0.3705 -1.0879
    8CHL1  H12A  550   2.756   3.254   5.159  1.1226 -1.0184 -1.3251
    8CHL1  H12B  551   2.610   3.194   5.227  0.3512  1.5567  0.7608
    8CHL1   C11  552   2.770   3.225   5.379 -0.3627  0.1460 -0.5408
    8CHL1  H11A  553   2.881   3.227   5.371 -0.3062 -0.6725 -0.0552
    8CHL1  H11B  554   2.745   3.324   5.424 -1.2475  0.5053 -1.8161
    8CHL1    C9  555   2.731   3.114   5.494  0.3693 -0.3600  0.5088
    8CHL1    H9  556   2.621   3.116   5.507  0.0467  0.0054 -2.0078
    8CHL1   C10  557   2.792   3.148   5.636 -0.0704  0.3193  0.1687
    8CHL1   C19  558   2.947   3.164   5.628 -0.7585 -0.0451  0.4281
    8CHL1  H19A  559   2.969   3.254   5.568 -1.3237  0.9063  1.6044
    8CHL1  H19B  560   2.989   3.185   5.729  2.1692 -3.6119  0.0587
    8CHL1  H19C  561   2.996   3.073   5.587  0.9740 -0.4967  3.3316
    8CHL1    C1  562   2.722   3.277   5.684  0.1223 -0.7317  0.0186
    8CHL1   H1A  563   2.758   3.367   5.630  0.3077  0.2711  1.7842
    8CHL1   H1B  564   2.615   3.258   5.661  0.4706  1.4515 -3.8260
    8CHL1    C2  565   2.745   3.314   5.828  0.5031  0.4601 -0.4857
    8CHL1   H2A  566   2.679   3.399   5.853  1.0002  0.9787 -0.9101
    8CHL1   H2B  567   2.847   3.353   5.848  1.2156 -1.9124  0.6953
    8CHL1   C20  568   2.727   3.032   4.952  0.5765 -0.0552  0.1198
    8CHL1   H20  569   2.770   3.134   4.965  0.3644  0.0330  0.1320
    8CHL1   C21  570   2.602   3.043   4.865  0.1563  0.1172  0.0447
    8CHL1  H21A  571   2.570   2.941   4.833 -2.4173  0.8050  0.3508
    8CHL1  H21B  572   2.614   3.113   4.779 -0.7477  2.6578  1.9330
    8CHL1  H21C  573   2.524   3.084   4.932 -2.3116 -0.8824 -2.0924
    8CHL1   C22  574   2.835   2.961   4.865 -0.1653 -0.5661  0.3390
    8CHL1  H22A  575   2.923   2.936   4.928 -0.3558 -2.2113 -0.0260
    8CHL1  H22B  576   2.787   2.863   4.844 -1.1144  0.3126 -1.7889
    8CHL1   C23  577   2.864   3.016   4.722 -0.3619 -0.0328  0.8421
    8CHL1  H23A  578   2.771   3.003   4.663  1.0143 -3.8865 -0.6494
    8CHL1  H23B  579   2.890   3.124   4.732  0.6028 -0.2977  1.2782
    8CHL1   C24  580   2.980   2.932   4.654 -0.0977 -0.4196  0.2442
    8CHL1  H24A  581   3.067   2.929   4.723  0.4927  0.6627 -0.4202
    8CHL1  H24B  582   2.942   2.831   4.627  0.2434 -0.7039  0.8211
    8CHL1   C25  583   3.043   2.988   4.523  0.2129  0.0554  0.8778
    8CHL1   H25  584   3.135   2.929   4.506  0.3629  0.9445 -1.6071
    8CHL1   C26  585   2.939   2.981   4.412 -0.5007  0.1472 -0.1483
    8CHL1  H26A  586   2.843   3.030   4.439 -1.0977  0.3491 -2.5102
    8CHL1  H26B  587   2.988   3.042   4.333  3.7278 -0.5419  1.8104
    8CHL1  H26C  588   2.939   2.872   4.390 -0.3924 -0.3109  2.0241
    8CHL1   C27  589   3.080   3.134   4.546 -0.2587  0.6389 -0.2693
    8CHL1  H27A  590   3.135   3.141   4.642  0.0729  0.8598 -0.4768
    8CHL1  H27B  591   3.150   3.176   4.470 -1.9325  0.9662 -1.6801
    8CHL1  H27C  592   2.990   3.200   4.546 -2.0509 -1.7000  1.9021
    9CHL1    C3  593   5.544   4.134   5.859  0.4697 -0.2749 -0.6326
    9CHL1    H3  594   5.578   4.217   5.793  1.7541 -0.7827 -0.6373
    9CHL1    O3  595   5.502   4.166   5.990 -0.0189  0.0368 -0.2224
    9CHL1   H3'  596   5.477   4.258   5.992 -1.9299 -0.4903  1.6968
    9CHL1    C4  597   5.430   4.074   5.771  0.0266  0.5597 -0.4658
    9CHL1   H4A  598   5.397   3.978   5.818  0.5991  0.1120 -0.9640
    9CHL1   H4B  599   5.347   4.148   5.776 -1.2772 -0.9784  1.2857
    9CHL1    C5  600   5.475   4.050   5.631  0.3712 -0.0284  0.9380
    9CHL1    C6  601   5.424   4.113   5.525 -0.1089  0.0946  0.1438
    9CHL1    H6  602   5.342   4.184   5.542  0.1447  0.8214 -1.5665
    9CHL1    C7  603   5.463   4.078   5.380  0.1289 -0.1514 -0.4603
    9CHL1   H7A  604   5.368   4.074   5.322 -1.2094 -0.0102  1.6528
    9CHL1   H7B  605   5.531   4.154   5.337  0.1634  0.4889  0.6867
    9CHL1    C8  606   5.535   3.938   5.369 -0.3944 -0.0807  0.0070
    9CHL1    H8  607   5.465   3.854   5.389 -0.1403 -0.0301  1.1251
    9CHL1   C14  608   5.601   3.933   5.229 -0.1629  0.8030  1.0561
    9CHL1   H14  609   5.670   4.020   5.223  0.5224  0.1036 -2.7525
    9CHL1   C15  610   5.515   3.950   5.099  0.3902 -0.4187  0.3429
    9CHL1  H15A  611   5.436   3.874   5.117 -1.2311  0.8248 -1.3702
    9CHL1  H15B  612   5.465   4.049   5.090 -1.4913 -1.3566  0.2301
    9CHL1   C16  613   5.607   3.910   4.984 -0.1297 -0.6948  0.1950
    9CHL1  H16A  614   5.562   3.841   4.909  0.0355 -0.2226 -0.3466
    9CHL1  H16B  615   5.655   3.996   4.931  0.4740 -0.8717  0.4543
    9CHL1   C17  616   5.735   3.840   5.049  0.3893 -0.2456  1.4708
    9CHL1   H17  617   5.822   3.908   5.052  2.4105 -2.7096  0.5413
    9CHL1   C13  618   5.691   3.813   5.202 -0.6732 -0.2909  0.3583
    9CHL1   C18  619   5.604   3.679   5.201  0.3709  1.4240 -0.1138
    9CHL1  H18A  620   5.667   3.588   5.198  2.5395  2.8741  0.4765
    9CHL1  H18B  621   5.546   3.685   5.295 -0.1192  0.1089 -0.3290
    9CHL1  H18C  622   5.540   3.666   5.110 -1.1997 -0.7941  1.2700
    9CHL1   C12  623   5.804   3.800   5.309  0.3382 -0.0576 -0.0267
    9CHL1  H12A  624   5.857   3.703   5.299  0.6303 -0.0146  1.0332
    9CHL1  H12B  625   5.883   3.876   5.294  0.4128 -0.6238 -2.6267
    9CHL1   C11  626   5.749   3.805   5.451  1.0336  0.2449  0.2752
    9CHL1  H11A  627   5.687   3.714   5.466  1.4549 -0.4878 -2.1277
    9CHL1  H11B  628   5.828   3.799   5.528 -0.9031 -0.6641  2.2471
    9CHL1    C9  629   5.650   3.931   5.477 -0.4750  0.1565 -0.5310
    9CHL1    H9  630   5.704   4.024   5.449 -1.5714  0.8324 -0.4453
    9CHL1   C10  631   5.593   3.946   5.617 -0.1957 -0.5977 -0.0117
    9CHL1   C19  632   5.537   3.811   5.660 -0.0231  0.5184 -0.1070
    9CHL1  H19A  633   5.610   3.727   5.661 -0.4889  0.1135  0.7061
    9CHL1  H19B  634   5.491   3.807   5.761 -0.4656 -0.1738 -0.3262
    9CHL1  H19C  635   5.456   3.778   5.591 -0.3715 -0.6043  0.8236
    9CHL1    C1  636   5.705   3.996   5.711 -0.0491  0.0117  0.6057
    9CHL1   H1A  637   5.790   3.924   5.714  0.5051  0.7038  1.8995
    9CHL1   H1B  638   5.755   4.085   5.665  0.6768 -1.3511 -1.3185
    9CHL1    C2  639   5.655   4.027   5.854  0.4148  0.7275 -0.1873
    9CHL1   H2A  640   5.745   4.064   5.907  0.3039  0.2776  0.3265
    9CHL1   H2B  641   5.619   3.932   5.899  0.9782 -0.0071 -1.2611
    9CHL1   C20  642   5.780   3.718   4.970  0.4797  0.7410 -0.1543
    9CHL1   H20  643   5.695   3.649   4.955  1.6874 -1.0002  0.8867
    9CHL1   C21  644   5.891   3.643   5.045 -0.0658 -0.2409 -0.0707
    9CHL1  H21A  645   5.973   3.709   5.082 -0.9745  1.1365 -0.4852
    9CHL1  H21B  646   5.940   3.563   4.986 -0.3398 -1.9286  1.9455
    9CHL1  H21C  647   5.850   3.590   5.133  0.5412  1.5603  1.3438
    9CHL1   C22  648   5.821   3.750   4.824  0.5478  0.0097 -0.3322
    9CHL1  H22A  649   5.749   3.820   4.774  1.5137  0.9044 -0.4867
    9CHL1  H22B  650   5.924   3.791   4.818  0.7981 -0.6928 -0.9915
    9CHL1   C23  651   5.831   3.630   4.745  0.4025  0.5910  0.3624
    9CHL1  H23A  652   5.900   3.552   4.784  0.0276  1.3856  2.6936
    9CHL1  H23B  653   5.735   3.573   4.748  0.5865  0.3293  1.2819
    9CHL1   C24  654   5.871   3.657   4.594 -0.7637  0.0359 -0.0563
    9CHL1  H24A  655   5.792   3.707   4.533 -0.7435 -1.0601 -0.9845
    9CHL1  H24B  656   5.955   3.729   4.587 -1.4157  0.7502 -0.6735
    9CHL1   C25  657   5.907   3.529   4.517  0.8550 -0.1332 -0.0168
    9CHL1   H25  658   5.819   3.460   4.520  0.6033  0.1915  0.0451
    9CHL1   C26  659   5.925   3.568   4.372 -1.2000 -0.2861  0.8889
    9CHL1  H26A  660   5.829   3.597   4.323 -0.0474  0.7773 -0.8070
    9CHL1  H26B  661   5.990   3.655   4.346 -3.9529  1.4003 -0.6177
    9CHL1  H26C  662   5.958   3.476   4.319 -0.5752 -0.4095  1.4913
    9CHL1   C27  663   6.041   3.471   4.567 -0.1182  0.1406 -0.2475
    9CHL1  H27A  664   6.087   3.399   4.496 -0.1496  0.8288 -0.9719
    9CHL1  H27B  665   6.111   3.558   4.571 -0.0147  0.3094 -4.3277
    9CHL1  H27C  666   6.023   3.424   4.666 -1.6220  0.9966 -0.1039
   10CHL1    C3  667   4.201   5.725   5.936  0.0887  0.0205  0.4285
   10CHL1    H3  668   4.123   5.654   5.903  0.9606 -2.2542  3.0871
   10CHL1    O3  669   4.151   5.786   6.052 -0.2823 -0.1378  0.3849
   10CHL1   H3'  670   4.220   5.792   6.119  0.4634 -1.0461 -0.2901
   10CHL1    C4  671   4.327   5.646   5.969  0.3848 -0.3683 -0.3894
   10CHL1   H4A  672   4.397   5.712   6.025  0.5506 -1.6744  0.9906
   10CHL1   H4B  673   4.310   5.565   6.043  2.7619  0.9589  1.7122
   10CHL1    C5  674   4.393   5.577   5.846  0.9813 -0.7494 -1.5611
   10CHL1    C6  675   4.408   5.444   5.834 -0.4895 -0.2796 -0.1170
   10CHL1    H6  676   4.380   5.374   5.915  0.4807  0.1046  0.5733
   10CHL1    C7  677   4.495   5.381   5.729 -0.2746  0.6551 -0.0277
   10CHL1   H7A  678   4.557   5.306   5.782  1.7943  1.7661 -0.8293
   10CHL1   H7B  679   4.426   5.324   5.664  1.3000 -1.4490  0.1234
   10CHL1    C8  680   4.574   5.483   5.646 -0.3824  0.3990 -0.2028
   10CHL1    H8  681   4.662   5.511   5.707  0.6895 -0.7139 -1.2157
   10CHL1   C14  682   4.620   5.431   5.515 -0.7333  0.3367 -0.0863
   10CHL1   H14  683   4.528   5.417   5.454 -0.9921  1.2979  0.0698
   10CHL1   C15  684   4.682   5.289   5.516  0.1043 -0.9056 -0.0596
   10CHL1  H15A  685   4.757   5.289   5.597 -2.9462  1.5045  2.8995
   10CHL1  H15B  686   4.612   5.206   5.539  0.0172 -1.3781 -1.9482
   10CHL1   C16  687   4.744   5.278   5.374  0.1784  0.7170 -0.6308
   10CHL1  H16A  688   4.850   5.247   5.376 -0.8655 -3.0900  0.8889
   10CHL1  H16B  689   4.679   5.217   5.307  2.3255 -0.3963 -1.7530
   10CHL1   C17  690   4.739   5.430   5.319 -0.2293  0.6590  0.4518
   10CHL1   H17  691   4.646   5.432   5.259  0.4012  1.1073 -0.5201
   10CHL1   C13  692   4.707   5.523   5.433  0.3186 -0.3965 -0.1906
   10CHL1   C18  693   4.840   5.553   5.500 -0.5677  0.5837  0.2851
   10CHL1  H18A  694   4.901   5.619   5.434  1.7340 -2.8661 -1.1868
   10CHL1  H18B  695   4.825   5.605   5.597  1.0234  0.3869  0.6491
   10CHL1  H18C  696   4.903   5.462   5.512 -1.4518 -0.3455 -1.7618
   10CHL1   C12  697   4.622   5.645   5.396 -0.0809  0.7955 -0.1467
   10CHL1  H12A  698   4.685   5.726   5.354  1.9573 -2.0195 -2.7763
   10CHL1  H12B  699   4.545   5.617   5.320 -0.1200  1.4293 -0.3482
   10CHL1   C11  700   4.546   5.713   5.515 -0.2590  0.1071  0.3032
   10CHL1  H11A  701   4.624   5.784   5.551  0.1457  0.7370 -1.7487
   10CHL1  H11B  702   4.467   5.781   5.476 -0.0947  0.0617 -0.1033
   10CHL1    C9  703   4.491   5.612   5.620 -0.2207  0.2572 -0.2671
   10CHL1    H9  704   4.403   5.572   5.565  0.4675  0.1761 -1.3299
   10CHL1   C10  705   4.439   5.682   5.748  0.4130 -0.1670 -0.6339
   10CHL1   C19  706   4.554   5.768   5.807 -0.2540 -0.9175 -0.2573
   10CHL1  H19A  707   4.649   5.713   5.824  1.5930  1.8147 -1.5138
   10CHL1  H19B  708   4.558   5.855   5.738  1.9467 -0.6816  0.1518
   10CHL1  H19C  709   4.537   5.804   5.911  0.6365 -0.4929 -0.2592
   10CHL1    C1  710   4.313   5.767   5.705  0.0266  0.0516  0.3593
   10CHL1   H1A  711   4.344   5.851   5.640 -0.2143 -0.7770 -0.8417
   10CHL1   H1B  712   4.250   5.705   5.637 -1.7773  2.2712 -0.0356
   10CHL1    C2  713   4.238   5.828   5.828 -0.2195 -0.3343  0.1028
   10CHL1   H2A  714   4.147   5.880   5.790 -0.0016  0.6500  0.9028
   10CHL1   H2B  715   4.310   5.897   5.876  0.0109  0.7643 -1.7732
   10CHL1   C20  716   4.848   5.454   5.221 -0.5181 -0.0896  0.2425
   10CHL1   H20  717   4.950   5.458   5.265 -0.7393  1.2373  0.6486
   10CHL1   C21  718   4.837   5.594   5.153 -0.2433 -0.1774 -0.3469
   10CHL1  H21A  719   4.732   5.621   5.127  0.3535  1.4923 -1.0820
   10CHL1  H21B  720   4.906   5.625   5.072 -3.0162  2.2124 -1.8720
   10CHL1  H21C  721   4.850   5.664   5.238 -0.8667 -1.0483  0.4793
   10CHL1   C22  722   4.870   5.344   5.111 -0.1795  0.4111  0.3334
   10CHL1  H22A  723   4.966   5.365   5.061  0.8689 -3.1889  0.7078
   10CHL1  H22B  724   4.884   5.247   5.164 -1.7423  1.4281  2.7207
   10CHL1   C23  725   4.745   5.314   5.023 -0.2795 -0.4140  0.0461
   10CHL1  H23A  726   4.663   5.266   5.081 -1.3578 -0.0314 -1.1222
   10CHL1  H23B  727   4.711   5.407   4.973 -0.6033 -0.8023 -0.4576
   10CHL1   C24  728   4.788   5.208   4.915 -0.1654  0.6047 -0.0607
   10CHL1  H24A  729   4.890   5.230   4.876  0.0377 -1.0725 -0.5080
   10CHL1  H24B  730   4.786   5.109   4.967 -1.0536  0.0402 -1.1479
   10CHL1   C25  731   4.681   5.182   4.802 -0.1505 -0.4307  0.5346
   10CHL1   H25  732   4.715   5.095   4.743  1.1169  0.3117  0.1508
   10CHL1   C26  733   4.545   5.141   4.860 -0.1804  0.4217 -0.4246
   10CHL1  H26A  734   4.479   5.103   4.780 -0.4333  1.6959 -0.8450
   10CHL1  H26B  735   4.550   5.053   4.928  1.3835  0.3962 -0.5457
   10CHL1  H26C  736   4.489   5.227   4.903  0.7351  2.0363 -2.3536
   10CHL1   C27  737   4.663   5.303   4.708 -0.5181 -0.1250 -0.4588
   10CHL1  H27A  738   4.765   5.326   4.669  0.4104 -0.9767  1.3914
   10CHL1  H27B  739   4.611   5.275   4.614  1.2952  0.7304 -1.7573
   10CHL1  H27C  740   4.606   5.387   4.753  0.1218  0.6740 -1.1283
   11CHL1    C3  741   2.697   2.212   5.975 -0.0190 -0.5688 -0.6325
   11CHL1    H3  742   2.613   2.143   5.949 -1.1545  0.5492  0.0348
   11CHL1    O3  743   2.695   2.222   6.116  0.0967 -0.5979  0.1079
   11CHL1   H3'  744   2.630   2.291   6.134 -1.7083 -2.2767  0.2386
   11CHL1    C4  745   2.830   2.148   5.925  0.5801 -0.0348 -0.9079
   11CHL1   H4A  746   2.917   2.207   5.960  1.4485  0.0911 -3.1818
   11CHL1   H4B  747   2.837   2.051   5.979 -0.4046  0.2705 -0.2059
   11CHL1    C5  748   2.848   2.152   5.773 -0.6223 -0.4465 -0.5844
   11CHL1    C6  749   2.909   2.048   5.716 -0.1001 -0.0763  0.1484
   11CHL1    H6  750   2.936   1.959   5.775 -0.0742 -1.8441 -2.4294
   11CHL1    C7  751   2.941   2.037   5.573  1.5327 -0.5933  0.1884
   11CHL1   H7A  752   3.036   1.981   5.562  0.1449 -2.7527 -1.3204
   11CHL1   H7B  753   2.866   1.958   5.548  0.7761  0.5633 -1.2796
   11CHL1    C8  754   2.931   2.171   5.504  0.1880 -0.2541 -0.2498
   11CHL1    H8  755   3.024   2.222   5.537 -0.9332  1.5147  0.2763
   11CHL1   C14  756   2.931   2.158   5.352  0.1661 -0.3787 -0.1966
   11CHL1   H14  757   2.844   2.093   5.326  1.3231 -1.9749 -0.1112
   11CHL1   C15  758   3.050   2.091   5.289 -1.0125  0.7068  0.1285
   11CHL1  H15A  759   3.149   2.125   5.327  0.3739 -1.4761 -1.3886
   11CHL1  H15B  760   3.048   1.983   5.314 -3.1185  1.0454  1.5137
   11CHL1   C16  761   3.046   2.122   5.137  0.9075  0.0239 -0.5269
   11CHL1  H16A  762   3.146   2.154   5.101  0.9508  1.9515  1.2285
   11CHL1  H16B  763   3.015   2.029   5.084 -0.5981  0.1970  0.0323
   11CHL1   C17  764   2.929   2.241   5.126 -0.6611  0.2648  0.0531
   11CHL1   H17  765   2.841   2.185   5.087  0.5478 -1.2918 -0.5049
   11CHL1   C13  766   2.910   2.285   5.272 -0.2963 -0.6320  0.3471
   11CHL1   C18  767   3.014   2.392   5.311  0.6382  0.9250 -0.0356
   11CHL1  H18A  768   3.020   2.471   5.233 -0.3826  2.3283  1.3046
   11CHL1  H18B  769   3.008   2.428   5.415  0.1069  0.9770 -0.0830
   11CHL1  H18C  770   3.113   2.341   5.308  0.5552  0.7953 -3.7261
   11CHL1   C12  771   2.770   2.342   5.308 -0.5333 -0.4574 -0.5831
   11CHL1  H12A  772   2.744   2.440   5.264  1.5107 -0.6116 -2.2051
   11CHL1  H12B  773   2.695   2.269   5.270 -0.2622 -1.8887  1.5326
   11CHL1   C11  774   2.761   2.375   5.459 -0.1850 -0.2723 -0.0754
   11CHL1  H11A  775   2.809   2.473   5.480 -0.8491  0.0617 -0.1041
   11CHL1  H11B  776   2.653   2.395   5.475 -0.2705 -1.3042  0.7131
   11CHL1    C9  777   2.802   2.252   5.549 -0.3109 -0.6585 -0.4224
   11CHL1    H9  778   2.715   2.185   5.534 -1.3623  0.4500  0.6611
   11CHL1   C10  779   2.809   2.277   5.702 -0.0472 -0.0083 -0.1337
   11CHL1   C19  780   2.916   2.385   5.729  0.0710 -0.1760 -0.3660
   11CHL1  H19A  781   3.010   2.369   5.672  0.0017  0.2708 -0.6073
   11CHL1  H19B  782   2.878   2.483   5.693 -1.9575 -0.4407  0.9864
   11CHL1  H19C  783   2.944   2.379   5.836  1.3082 -2.9761 -0.7881
   11CHL1    C1  784   2.677   2.337   5.755  0.5831  0.1859 -1.1414
   11CHL1   H1A  785   2.659   2.433   5.702  3.7123  1.1177 -0.6076
   11CHL1   H1B  786   2.595   2.272   5.718 -1.1788 -0.1755  3.1118
   11CHL1    C2  787   2.660   2.345   5.907 -0.3168 -0.3499  0.1405
   11CHL1   H2A  788   2.553   2.368   5.926  0.0179  0.5152  0.9942
   11CHL1   H2B  789   2.721   2.432   5.940  1.2297 -1.2776 -0.2440
   11CHL1   C20  790   2.972   2.343   5.014 -0.1782  0.2547 -0.5701
   11CHL1   H20  791   3.073   2.381   5.042 -0.7653  0.0555  1.9151
   11CHL1   C21  792   2.879   2.462   5.008 -0.1364 -1.1413  0.2381
   11CHL1  H21A  793   2.878   2.524   5.100 -1.1293  2.2155 -1.9451
   11CHL1  H21B  794   2.775   2.439   4.976 -0.4452 -0.3280  0.6546
   11CHL1  H21C  795   2.905   2.539   4.933 -0.2498 -1.1935  0.1447
   11CHL1   C22  796   2.969   2.285   4.867 -0.7312 -0.2126  0.5903
   11CHL1  H22A  797   3.014   2.184   4.859  0.7171  0.4884 -0.3743
   11CHL1  H22B  798   2.862   2.273   4.839 -0.0955  0.8508 -2.4543
   11CHL1   C23  799   3.052   2.375   4.766  0.8654 -0.4660 -0.0498
   11CHL1  H23A  800   3.007   2.477   4.761  0.6914 -0.5778 -0.8279
   11CHL1  H23B  801   3.154   2.389   4.809  0.2775 -2.3400  2.0469
   11CHL1   C24  802   3.054   2.323   4.617 -0.5164 -0.1871 -0.7356
   11CHL1  H24A  803   3.088   2.217   4.609 -0.4058 -0.2254  0.1832
   11CHL1  H24B  804   2.950   2.316   4.578 -0.5754 -1.7362 -0.3316
   11CHL1   C25  805   3.137   2.417   4.516  0.2658  0.2231 -0.1775
   11CHL1   H25  806   3.230   2.446   4.568 -0.2419  2.1576 -0.3175
   11CHL1   C26  807   3.183   2.345   4.385 -0.0716 -0.3053 -0.0404
   11CHL1  H26A  808   3.263   2.275   4.415 -0.9530 -0.3960  2.2382
   11CHL1  H26B  809   3.095   2.300   4.334 -1.0392  2.4853 -0.9170
   11CHL1  H26C  810   3.234   2.417   4.318  0.8420  0.1318  1.1076
   11CHL1   C27  811   3.056   2.545   4.482 -0.8726  0.2472 -0.3072
   11CHL1  H27A  812   2.962   2.514   4.432 -0.7792 -2.1253  0.9093
   11CHL1  H27B  813   3.032   2.599   4.576 -0.8442  0.4370 -0.4104
   11CHL1  H27C  814   3.125   2.605   4.418 -0.3437 -0.6146 -0.5573
   12CHL1    C3  815   4.891   1.703   6.166  0.1718 -0.5613 -0.0530
   12CHL1    H3  816   4.785   1.733   6.146 -0.1780 -0.4740  1.8155
   12CHL1    O3  817   4.917   1.699   6.307  0.4933  0.1021 -0.2557
   12CHL1   H3'  818   5.012   1.711   6.317  0.1173  0.7190  2.9189
   12CHL1    C4  819   4.920   1.563   6.101  0.0298 -0.0529 -0.1522
   12CHL1   H4A  820   5.028   1.540   6.113  0.2079  0.5698 -0.5462
   12CHL1   H4B  821   4.849   1.493   6.151 -0.8049  0.5598 -0.4568
   12CHL1    C5  822   4.884   1.575   5.953 -0.2879  0.1689  0.6098
   12CHL1    C6  823   4.779   1.513   5.891 -0.1954 -0.2010  0.2650
   12CHL1    H6  824   4.722   1.444   5.955 -1.2329  1.6033  1.3022
   12CHL1    C7  825   4.759   1.512   5.744 -0.1816  0.4560  0.9950
   12CHL1   H7A  826   4.734   1.411   5.704 -0.2083 -0.5921  3.5618
   12CHL1   H7B  827   4.672   1.579   5.727  1.4102  1.9271 -1.7701
   12CHL1    C8  828   4.868   1.586   5.655 -0.7636 -0.0953  0.6633
   12CHL1    H8  829   4.945   1.506   5.644 -0.3448  0.2791  0.8917
   12CHL1   C14  830   4.817   1.637   5.519 -0.4455 -0.1542 -0.1037
   12CHL1   H14  831   4.727   1.694   5.550 -0.0785 -1.3769  3.4749
   12CHL1   C15  832   4.747   1.538   5.433 -0.0426  0.0638  0.2072
   12CHL1  H15A  833   4.801   1.441   5.443  3.6184  2.2176  2.3082
   12CHL1  H15B  834   4.643   1.518   5.469  0.0912  0.1900  0.6669
   12CHL1   C16  835   4.751   1.592   5.288  0.1847  0.6222  0.2727
   12CHL1  H16A  836   4.788   1.520   5.212 -0.9390  0.7492 -0.4122
   12CHL1  H16B  837   4.644   1.614   5.266  0.1660 -1.1198 -1.5516
   12CHL1   C17  838   4.827   1.727   5.304  0.3937  0.5183 -0.2359
   12CHL1   H17  839   4.751   1.801   5.338 -2.5306 -2.1648 -0.7051
   12CHL1   C13  840   4.910   1.714   5.435 -0.3769 -0.0595  0.6588
   12CHL1   C18  841   5.035   1.616   5.413 -0.2824 -0.1121 -0.0128
   12CHL1  H18A  842   5.006   1.523   5.360 -2.0011  0.8052 -0.7125
   12CHL1  H18B  843   5.101   1.673   5.344  1.7114 -2.3308  0.0208
   12CHL1  H18C  844   5.094   1.605   5.506  1.8653  2.7565 -0.9543
   12CHL1   C12  845   4.951   1.846   5.510 -0.1437  0.3917 -0.0491
   12CHL1  H12A  846   5.018   1.916   5.456 -1.2131  0.9774 -0.6506
   12CHL1  H12B  847   4.857   1.902   5.530 -1.6243 -1.7739 -0.7674
   12CHL1   C11  848   5.012   1.811   5.648  0.5144 -0.3913 -0.4250
   12CHL1  H11A  849   5.113   1.771   5.622  0.8622 -0.2567  0.6955
   12CHL1  H11B  850   5.013   1.901   5.713 -0.7725 -0.8407  0.2266
   12CHL1    C9  851   4.926   1.710   5.733 -0.2220 -0.7102 -0.2249
   12CHL1    H9  852   4.834   1.772   5.747  0.5845  0.3042  0.6798
   12CHL1   C10  853   4.971   1.679   5.878  0.8257  0.2018 -0.9548
   12CHL1   C19  854   5.113   1.615   5.859 -0.2935 -0.0022  0.0965
   12CHL1  H19A  855   5.186   1.688   5.818  1.8537 -1.7157  0.7598
   12CHL1  H19B  856   5.147   1.606   5.965  0.4013  0.0971 -0.1182
   12CHL1  H19C  857   5.116   1.521   5.801  0.6584  0.7296 -1.0475
   12CHL1    C1  858   4.969   1.815   5.958  0.1603  0.2487 -0.0504
   12CHL1   H1A  859   5.041   1.890   5.918 -1.7011  2.0569 -0.1200
   12CHL1   H1B  860   4.873   1.871   5.963  1.5150  2.7305 -0.9796
   12CHL1    C2  861   4.992   1.802   6.107 -0.0017 -0.2079 -0.3055
   12CHL1   H2A  862   4.985   1.904   6.152  2.5192 -0.5869  1.0297
   12CHL1   H2B  863   5.096   1.771   6.130 -0.4528 -0.5439  1.3692
   12CHL1   C20  864   4.894   1.783   5.179 -0.0903  0.1493  0.3194
   12CHL1   H20  865   4.963   1.865   5.209 -1.1289  0.5319  1.7075
   12CHL1   C21  866   4.781   1.854   5.094 -0.5706 -0.1356 -0.1471
   12CHL1  H21A  867   4.756   1.955   5.133  2.5245 -0.2948  2.4873
   12CHL1  H21B  868   4.691   1.794   5.118 -0.0273 -1.2325 -0.8113
   12CHL1  H21C  869   4.799   1.855   4.984 -2.0636  1.0153 -0.4085
   12CHL1   C22  870   4.966   1.672   5.101 -0.3403  0.2766  0.1786
   12CHL1  H22A  871   5.031   1.608   5.163  0.7226  0.6019 -0.5871
   12CHL1  H22B  872   4.882   1.617   5.051 -0.3409  1.9954 -1.7970
   12CHL1   C23  873   5.065   1.728   4.988  0.8762 -0.3166 -0.1459
   12CHL1  H23A  874   5.024   1.791   4.906 -0.4116  1.6427  1.9378
   12CHL1  H23B  875   5.136   1.783   5.054  1.9089 -2.2330  0.3853
   12CHL1   C24  876   5.133   1.602   4.929 -0.0109  0.1130 -0.6915
   12CHL1  H24A  877   5.222   1.568   4.986  0.7207 -1.8824 -2.9571
   12CHL1  H24B  878   5.070   1.512   4.915 -1.1548  0.5012  1.6558
   12CHL1   C25  879   5.199   1.631   4.789  0.4380 -0.3271  0.4143
   12CHL1   H25  880   5.136   1.709   4.740  3.4077  1.2147 -1.0960
   12CHL1   C26  881   5.338   1.703   4.807  0.5563  0.1925 -0.2493
   12CHL1  H26A  882   5.382   1.715   4.706  1.6670 -0.9397  0.0886
   12CHL1  H26B  883   5.337   1.797   4.865  0.3140  0.2715 -0.3821
   12CHL1  H26C  884   5.417   1.641   4.855  2.2169  2.1666 -0.3554
   12CHL1   C27  885   5.216   1.498   4.719  0.2607  0.1888 -0.1284
   12CHL1  H27A  886   5.115   1.463   4.689  0.9276  0.2877 -2.6631
   12CHL1  H27B  887   5.276   1.504   4.625  0.4028  0.2985 -0.0299
   12CHL1  H27C  888   5.254   1.419   4.787 -0.5437  1.5439  1.9343
   13CHL1    C3  889   3.703   1.060   5.955 -0.2408  0.0387 -0.5825
   13CHL1    H3  890   3.762   1.151   5.933  2.1295 -0.7803  2.1647
   13CHL1    O3  891   3.722   1.046   6.089 -0.1321 -0.5192  0.0976
   13CHL1   H3'  892   3.806   1.003   6.108 -2.5065 -3.5751  4.6221
   13CHL1    C4  893   3.557   1.104   5.918 -0.1462  0.2000  0.0849
   13CHL1   H4A  894   3.484   1.037   5.969  1.0674 -1.0968  0.1575
   13CHL1   H4B  895   3.543   1.201   5.970 -1.4938 -0.4524  0.9391
   13CHL1    C5  896   3.531   1.117   5.769  0.1311 -0.2302  0.4023
   13CHL1    C6  897   3.487   1.227   5.710  0.5984  0.6408 -0.2711
   13CHL1    H6  898   3.467   1.311   5.779  0.6583  0.6997 -0.3251
   13CHL1    C7  899   3.436   1.244   5.568  0.0963  0.5165  0.6535
   13CHL1   H7A  900   3.339   1.298   5.564 -1.0067 -1.5520 -1.6453
   13CHL1   H7B  901   3.516   1.300   5.516  1.3001 -1.8347 -0.0870
   13CHL1    C8  902   3.430   1.103   5.501  0.1120 -0.0597  0.0154
   13CHL1    H8  903   3.339   1.048   5.533 -0.6554 -0.1126 -2.1227
   13CHL1   C14  904   3.424   1.123   5.351 -0.2953  0.2313  0.7060
   13CHL1   H14  905   3.526   1.156   5.323  0.8489 -2.5137  1.4981
   13CHL1   C15  906   3.323   1.216   5.292  0.2312 -0.7260  0.4106
   13CHL1  H15A  907   3.223   1.206   5.340 -0.2566  1.2143 -0.1548
   13CHL1  H15B  908   3.357   1.319   5.313  0.3810 -0.6784 -0.0619
   13CHL1   C16  909   3.325   1.192   5.139  0.4472  0.6882 -0.2927
   13CHL1  H16A  910   3.220   1.178   5.105  0.9509 -3.4224 -0.3923
   13CHL1  H16B  911   3.378   1.269   5.079 -0.0146  0.7546 -0.6189
   13CHL1   C17  912   3.407   1.055   5.125  0.2643 -0.3531  0.2980
   13CHL1   H17  913   3.515   1.081   5.114 -0.0535  0.7163 -0.3629
   13CHL1   C13  914   3.407   0.995   5.269  0.2908 -0.6812 -0.7228
   13CHL1   C18  915   3.270   0.926   5.302 -0.2965 -1.4269  0.1895
   13CHL1  H18A  916   3.255   0.834   5.242 -4.7889 -0.6026 -0.1507
   13CHL1  H18B  917   3.268   0.890   5.407 -1.9090 -0.3981  0.5277
   13CHL1  H18C  918   3.182   0.991   5.283 -1.3614 -2.9226 -0.1426
   13CHL1   C12  919   3.532   0.896   5.297  0.4146 -0.2427 -0.2572
   13CHL1  H12A  920   3.509   0.791   5.267 -1.2285 -0.1486  0.6079
   13CHL1  H12B  921   3.627   0.936   5.254  1.0629 -0.9151  0.5368
   13CHL1   C11  922   3.549   0.881   5.450 -0.9099  0.3977  0.3980
   13CHL1  H11A  923   3.464   0.820   5.486 -2.8206  1.9652 -1.3902
   13CHL1  H11B  924   3.640   0.820   5.469 -1.8891 -1.0522  0.5288
   13CHL1    C9  925   3.548   1.015   5.535 -0.6595 -0.2402 -0.2618
   13CHL1    H9  926   3.634   1.074   5.496 -0.2475 -2.4931 -2.9340
   13CHL1   C10  927   3.567   0.991   5.686 -0.4692 -0.5159 -0.3125
   13CHL1   C19  928   3.464   0.887   5.738 -0.1778  0.2238  0.4346
   13CHL1  H19A  929   3.362   0.911   5.699  0.1542  2.0878  0.6680
   13CHL1  H19B  930   3.502   0.789   5.701  0.2842  0.3890  0.4779
   13CHL1  H19C  931   3.453   0.877   5.848 -1.9028  0.2209  0.2774
   13CHL1    C1  932   3.706   0.950   5.724  0.5240 -0.3083  0.2217
   13CHL1   H1A  933   3.729   0.858   5.666 -2.7264 -1.5882  0.8026
   13CHL1   H1B  934   3.785   1.019   5.688  2.8322 -3.8409 -1.7848
   13CHL1    C2  935   3.736   0.930   5.876 -0.3000 -0.1934  0.0107
   13CHL1   H2A  936   3.845   0.914   5.880 -0.3330 -0.8535 -1.6086
   13CHL1   H2B  937   3.678   0.843   5.914  0.4722 -1.1057 -0.8662
   13CHL1   C20  938   3.352   0.969   5.018  0.1783 -0.1632  0.1420
   13CHL1   H20  939   3.245   0.948   5.038 -0.2260 -0.2946 -2.0611
   13CHL1   C21  940   3.415   0.834   4.997 -0.4489  0.4494  0.3332
   13CHL1  H21A  941   3.427   0.772   5.089 -1.3940  2.4182  1.8108
   13CHL1  H21B  942   3.516   0.848   4.951 -0.3791 -1.3347 -0.1051
   13CHL1  H21C  943   3.349   0.781   4.925  0.1137 -2.2451  1.7319
   13CHL1   C22  944   3.348   1.046   4.880  0.3903  0.2981  0.3679
   13CHL1  H22A  945   3.282   0.989   4.811  0.2349 -0.3468  1.0419
   13CHL1  H22B  946   3.291   1.140   4.901  1.4157  1.0021  0.0189
   13CHL1   C23  947   3.486   1.073   4.823  0.1614 -0.6573 -0.2676
   13CHL1  H23A  948   3.562   1.090   4.902  2.1827 -0.7223 -2.1335
   13CHL1  H23B  949   3.508   0.976   4.773  1.5706 -1.3810  1.7059
   13CHL1   C24  950   3.489   1.192   4.729  0.8037 -0.0014  0.3342
   13CHL1  H24A  951   3.421   1.191   4.642 -1.0607  1.6770  1.7304
   13CHL1  H24B  952   3.459   1.281   4.789 -2.2820 -0.0095 -1.1096
   13CHL1   C25  953   3.630   1.212   4.660 -0.5019 -0.4785  0.0612
   13CHL1   H25  954   3.718   1.206   4.727 -1.4428  0.3932  1.3924
   13CHL1   C26  955   3.650   1.103   4.551  0.7349  0.3767 -0.2872
   13CHL1  H26A  956   3.593   1.138   4.462  0.8244 -0.0971 -0.5298
   13CHL1  H26B  957   3.757   1.086   4.524  0.8894  2.0069 -0.7615
   13CHL1  H26C  958   3.603   1.006   4.578  1.7099 -0.0470 -0.0801
   13CHL1   C27  959   3.630   1.353   4.596  0.0982  0.0278  0.1476
   13CHL1  H27A  960   3.615   1.427   4.678  1.1300 -0.5983  0.9111
   13CHL1  H27B  961   3.722   1.385   4.543 -0.7544  1.1764 -0.6831
   13CHL1  H27C  962   3.547   1.348   4.522  0.6494 -0.2485 -0.4570
   14CHL1    C3  963   2.516   6.068   6.063  0.6797  0.2591 -0.7107
   14CHL1    H3  964   2.615   6.033   6.098  0.4185  0.2382  0.0234
   14CHL1    O3  965   2.424   6.032   6.165 -0.0272 -0.5234  0.5574
   14CHL1   H3'  966   2.338   6.055   6.128  0.9442  2.5501  0.0249
   14CHL1    C4  967   2.523   6.221   6.027  0.5892  0.3279 -0.1765
   14CHL1   H4A  968   2.415   6.248   6.019  0.9048  1.2133 -1.6524
   14CHL1   H4B  969   2.558   6.271   6.120  1.3222 -0.7604  0.1336
   14CHL1    C5  970   2.600   6.245   5.896 -0.0576 -0.4215 -0.0001
   14CHL1    C6  971   2.700   6.333   5.893 -0.5224  0.6069 -0.2191
   14CHL1    H6  972   2.736   6.374   5.989  1.9592 -0.5283 -0.6187
   14CHL1    C7  973   2.771   6.371   5.768  0.3428 -0.2860 -0.5533
   14CHL1   H7A  974   2.785   6.481   5.765 -0.1528 -0.2253 -0.7587
   14CHL1   H7B  975   2.868   6.317   5.763  0.2499 -0.8170  2.3821
   14CHL1    C8  976   2.686   6.348   5.641 -0.5406 -0.7671 -0.1668
   14CHL1    H8  977   2.599   6.417   5.643 -1.3128 -1.7282  0.6015
   14CHL1   C14  978   2.770   6.373   5.512 -0.1295 -0.4097  0.5041
   14CHL1   H14  979   2.854   6.302   5.526 -0.8196 -1.1220  1.0839
   14CHL1   C15  980   2.840   6.507   5.483  1.1204  0.8890 -0.0656
   14CHL1  H15A  981   2.778   6.592   5.520  1.0862  0.8972 -0.1412
   14CHL1  H15B  982   2.939   6.508   5.534  0.3637 -0.3064  1.4775
   14CHL1   C16  983   2.874   6.497   5.338  0.4553  0.0096  0.5108
   14CHL1  H16A  984   2.858   6.587   5.273 -0.5748 -0.2453  0.4118
   14CHL1  H16B  985   2.984   6.484   5.324  0.6647  2.4783 -0.4929
   14CHL1   C17  986   2.802   6.370   5.286 -0.3222  0.4730  0.9898
   14CHL1   H17  987   2.873   6.285   5.290  0.5143  0.9913 -1.5643
   14CHL1   C13  988   2.692   6.334   5.386  0.6567  0.7567 -0.1371
   14CHL1   C18  989   2.573   6.429   5.381 -0.5151  0.2000 -0.0623
   14CHL1  H18A  990   2.513   6.405   5.290 -0.2474  0.8581 -0.4164
   14CHL1  H18B  991   2.504   6.422   5.467  1.4131  2.3103  1.7148
   14CHL1  H18C  992   2.605   6.535   5.379 -0.7623  0.2609 -1.6351
   14CHL1   C12  993   2.650   6.182   5.389 -0.0456 -0.1402 -0.1072
   14CHL1  H12A  994   2.589   6.156   5.300 -1.0035  1.3928  0.0762
   14CHL1  H12B  995   2.743   6.122   5.380 -1.1979 -1.9617 -0.1297
   14CHL1   C11  996   2.565   6.162   5.510 -0.2171 -0.0720  0.3660
   14CHL1  H11A  997   2.468   6.214   5.494  0.9281  3.0129  2.8836
   14CHL1  H11B  998   2.535   6.055   5.509  1.7970 -0.6317 -0.8855
   14CHL1    C9  999   2.633   6.202   5.645 -0.2557 -0.1471 -0.0871
   14CHL1    H9 1000   2.726   6.141   5.647  0.2565  0.6127 -0.8806
   14CHL1   C10 1001   2.553   6.171   5.775  0.0542  0.0650  1.0786
   14CHL1   C19 1002   2.404   6.213   5.736  0.3339  0.2850 -0.3766
   14CHL1  H19A 1003   2.402   6.309   5.680 -1.2481  0.7909  0.5109
   14CHL1  H19B 1004   2.346   6.147   5.668 -0.3308 -1.0388  1.4234
   14CHL1  H19C 1005   2.349   6.210   5.832  0.2234 -1.3977 -0.4793
   14CHL1    C1 1006   2.555   6.016   5.799 -0.0041 -0.2378 -0.1625
   14CHL1   H1A 1007   2.501   5.966   5.715 -0.1280  1.7921 -1.3311
   14CHL1   H1B 1008   2.658   5.974   5.798  0.1946  0.2461 -2.1412
   14CHL1    C2 1009   2.487   5.979   5.932 -0.2522  0.0303  0.5719
   14CHL1   H2A 1010   2.501   5.872   5.960  0.8673  0.2694  0.9438
   14CHL1   H2B 1011   2.378   5.981   5.913 -0.2216 -3.0798 -0.1750
   14CHL1   C20 1012   2.764   6.366   5.136  0.1845  0.3872 -0.0539
   14CHL1   H20 1013   2.704   6.275   5.114 -1.5832  1.2574  1.0569
   14CHL1   C21 1014   2.884   6.342   5.044 -0.3330 -0.5669  0.0254
   14CHL1  H21A 1015   2.955   6.427   5.047 -0.6365 -0.3272  0.3362
   14CHL1  H21B 1016   2.858   6.334   4.936 -2.1870 -0.6097  0.4646
   14CHL1  H21C 1017   2.942   6.252   5.076  1.3843 -0.4789 -2.5922
   14CHL1   C22 1018   2.700   6.500   5.080 -0.3881  0.4504  0.4442
   14CHL1  H22A 1019   2.626   6.527   5.158  0.6156  0.5565  1.3780
   14CHL1  H22B 1020   2.775   6.581   5.064 -1.0313  0.6933 -1.3883
   14CHL1   C23 1021   2.629   6.480   4.939 -0.1518 -0.8935 -0.3088
   14CHL1  H23A 1022   2.709   6.486   4.863 -0.5382  3.4976 -0.4851
   14CHL1  H23B 1023   2.572   6.384   4.932  1.4742 -1.8033 -1.4943
   14CHL1   C24 1024   2.534   6.603   4.939 -0.4913 -1.3495  0.5165
   14CHL1  H24A 1025   2.456   6.581   5.016 -1.1324 -0.4748  0.1249
   14CHL1  H24B 1026   2.593   6.692   4.970 -0.4456 -0.5444 -1.7865
   14CHL1   C25 1027   2.472   6.642   4.805  0.3461 -0.0016  0.0936
   14CHL1   H25 1028   2.414   6.729   4.843  2.4898  1.2643  0.5666
   14CHL1   C26 1029   2.562   6.673   4.693  0.4836  0.0484  0.4358
   14CHL1  H26A 1030   2.514   6.684   4.593  1.3124  0.1950  0.0531
   14CHL1  H26B 1031   2.613   6.769   4.715  1.7639 -0.0466 -1.9749
   14CHL1  H26C 1032   2.640   6.594   4.679  0.1402 -0.5416  1.7277
   14CHL1   C27 1033   2.363   6.542   4.762 -0.7321 -0.3017 -0.5177
   14CHL1  H27A 1034   2.292   6.593   4.693  0.4756  1.2161 -0.6584
   14CHL1  H27B 1035   2.408   6.461   4.701  0.3713 -0.0675 -0.0210
   14CHL1  H27C 1036   2.310   6.501   4.851  0.9415 -1.1804  0.1092
   15CHL1    C3 1037   1.414   5.482   5.814 -0.0177  0.3105  0.3433
   15CHL1    H3 1038   1.303   5.476   5.816 -0.0280 -0.3814 -1.0131
   15CHL1    O3 1039   1.465   5.470   5.943  0.5141  0.2304  0.2761
   15CHL1   H3' 1040   1.534   5.405   5.937  0.4654  0.2530 -0.6360
   15CHL1    C4 1041   1.479   5.378   5.722 -0.6844 -0.5815  0.2962
   15CHL1   H4A 1042   1.590   5.383   5.719 -0.5648 -2.4094  0.8699
   15CHL1   H4B 1043   1.447   5.280   5.765  0.2929  0.3385  3.1864
   15CHL1    C5 1044   1.431   5.389   5.580 -0.0419 -0.3038  0.4646
   15CHL1    C6 1045   1.372   5.290   5.515 -0.6231  0.1616 -0.4312
   15CHL1    H6 1046   1.366   5.194   5.568  1.6197  1.2429  1.9154
   15CHL1    C7 1047   1.323   5.297   5.373 -0.2795  0.4605  0.2090
   15CHL1   H7A 1048   1.373   5.213   5.321 -0.9543  0.4195 -0.3746
   15CHL1   H7B 1049   1.213   5.279   5.367  0.2845 -3.9702  1.1596
   15CHL1    C8 1050   1.363   5.424   5.299 -1.2451  0.3790 -0.6111
   15CHL1    H8 1051   1.471   5.426   5.274 -1.5346  0.4134 -1.8475
   15CHL1   C14 1052   1.266   5.444   5.186 -0.1405 -0.4990  0.3413
   15CHL1   H14 1053   1.174   5.458   5.246 -0.9640 -1.0096 -0.8009
   15CHL1   C15 1054   1.241   5.324   5.093 -0.8227 -0.0231 -0.2743
   15CHL1  H15A 1055   1.338   5.278   5.064 -0.1121  0.8479  0.6866
   15CHL1  H15B 1056   1.174   5.249   5.142  0.5685 -0.9167  0.3037
   15CHL1   C16 1057   1.181   5.381   4.968  0.1604 -0.3624  0.6804
   15CHL1  H16A 1058   1.249   5.359   4.883 -0.3328 -1.9481  0.6955
   15CHL1  H16B 1059   1.080   5.340   4.946 -0.2934 -0.6885  3.2446
   15CHL1   C17 1060   1.182   5.535   4.991 -0.8131  0.3795 -0.0142
   15CHL1   H17 1061   1.082   5.546   5.039 -0.9972 -1.7555  0.1122
   15CHL1   C13 1062   1.288   5.562   5.101 -0.3813 -0.6870  0.7501
   15CHL1   C18 1063   1.430   5.552   5.038  0.2401  0.0810 -0.1708
   15CHL1  H18A 1064   1.509   5.555   5.116 -0.8997  1.1909  0.9584
   15CHL1  H18B 1065   1.438   5.460   4.976 -0.5286 -0.1123  0.0077
   15CHL1  H18C 1066   1.454   5.647   4.986 -0.9651  0.7057  0.3891
   15CHL1   C12 1067   1.279   5.689   5.190 -1.0834  0.1928 -0.5287
   15CHL1  H12A 1068   1.312   5.776   5.129  0.4159  0.1589  0.2099
   15CHL1  H12B 1069   1.177   5.688   5.234  0.6068 -1.3258  3.7081
   15CHL1   C11 1070   1.371   5.686   5.316  0.2915 -0.2534  0.1242
   15CHL1  H11A 1071   1.478   5.700   5.289  0.1175 -0.5362 -0.7210
   15CHL1  H11B 1072   1.348   5.767   5.389 -0.0899 -0.4479  0.2179
   15CHL1    C9 1073   1.358   5.551   5.393  0.0678  0.1237  0.0296
   15CHL1    H9 1074   1.256   5.538   5.436 -0.4192  1.4323 -0.7020
   15CHL1   C10 1075   1.446   5.534   5.521  0.1159 -0.4258 -0.1046
   15CHL1   C19 1076   1.597   5.548   5.490  0.0463  0.3088  0.3592
   15CHL1  H19A 1077   1.631   5.461   5.430 -0.0165  1.0299 -0.7328
   15CHL1  H19B 1078   1.600   5.638   5.425  1.1397 -0.4336 -0.6379
   15CHL1  H19C 1079   1.656   5.557   5.584 -0.3770  0.2677  0.6300
   15CHL1    C1 1080   1.406   5.643   5.626 -0.3509  0.4795  0.2792
   15CHL1   H1A 1081   1.437   5.745   5.596  0.8322  0.5244  1.6099
   15CHL1   H1B 1082   1.295   5.644   5.638 -0.3260 -0.3679  0.6348
   15CHL1    C2 1083   1.464   5.621   5.766  0.1563 -0.3069  0.5109
   15CHL1   H2A 1084   1.421   5.704   5.827 -2.0173 -1.6111  0.8279
   15CHL1   H2B 1085   1.574   5.633   5.763  0.2418 -0.2759  2.7765
   15CHL1   C20 1086   1.188   5.628   4.867 -0.7169  0.0440  0.3233
   15CHL1   H20 1087   1.291   5.669   4.869  0.2780 -2.2402 -0.9930
   15CHL1   C21 1088   1.092   5.745   4.903  0.5189  0.4251 -0.6188
   15CHL1  H21A 1089   0.992   5.701   4.887  1.3260 -2.4925  1.9108
   15CHL1  H21B 1090   1.116   5.835   4.842 -3.0240  0.2392 -2.4042
   15CHL1  H21C 1091   1.108   5.780   5.007 -0.4761 -0.2611 -0.2289
   15CHL1   C22 1092   1.154   5.570   4.725 -0.2328  0.7502  0.2229
   15CHL1  H22A 1093   1.070   5.498   4.732 -0.4887  0.8960 -1.1507
   15CHL1  H22B 1094   1.110   5.647   4.658 -0.3820 -0.5826 -1.2519
   15CHL1   C23 1095   1.269   5.508   4.634  0.0182  0.5752 -0.3036
   15CHL1  H23A 1096   1.322   5.581   4.570  2.1217 -1.3066 -0.8074
   15CHL1  H23B 1097   1.330   5.449   4.706 -1.1164 -0.9799 -0.5896
   15CHL1   C24 1098   1.200   5.398   4.548 -0.1356 -0.1048 -0.3822
   15CHL1  H24A 1099   1.129   5.336   4.607  2.6467 -0.5284  2.6018
   15CHL1  H24B 1100   1.146   5.453   4.468  0.1738 -0.3064 -0.7266
   15CHL1   C25 1101   1.293   5.309   4.476 -0.4146 -0.4767  0.6962
   15CHL1   H25 1102   1.366   5.371   4.420  0.3814 -1.6213  0.4481
   15CHL1   C26 1103   1.380   5.219   4.575 -0.3438 -0.0691 -0.1125
   15CHL1  H26A 1104   1.448   5.153   4.517 -0.8321  1.4303 -2.4420
   15CHL1  H26B 1105   1.447   5.279   4.640  0.1692 -0.7607  0.0056
   15CHL1  H26C 1106   1.309   5.156   4.633  0.3046 -1.2762 -0.6011
   15CHL1   C27 1107   1.209   5.217   4.384  0.0388  0.0308  0.7368
   15CHL1  H27A 1108   1.147   5.273   4.311  0.4372 -1.1612 -0.5385
   15CHL1  H27B 1109   1.283   5.157   4.326  0.6179 -1.3877  2.9117
   15CHL1  H27C 1110   1.141   5.147   4.436  1.0752 -0.5034  1.3896
   16CHL1    C3 1111   0.734   2.466   5.865  0.3907  0.6430  0.4795
   16CHL1    H3 1112   0.747   2.361   5.833  0.3884  1.0110 -0.7292
   16CHL1    O3 1113   0.674   2.477   5.984  0.7747 -0.3875 -0.5057
   16CHL1   H3' 1114   0.666   2.572   6.001  0.8162  0.1887 -3.4087
   16CHL1    C4 1115   0.874   2.529   5.862  0.1094 -0.4627 -0.1543
   16CHL1   H4A 1116   0.867   2.638   5.884  1.0121  0.0588 -2.3712
   16CHL1   H4B 1117   0.942   2.487   5.939 -1.1890 -1.0963  0.6756
   16CHL1    C5 1118   0.936   2.498   5.732 -0.0581 -0.2587 -0.2650
   16CHL1    C6 1119   1.052   2.432   5.725 -0.5235  0.4402 -0.1267
   16CHL1    H6 1120   1.094   2.395   5.819  0.3350 -0.8022 -0.9802
   16CHL1    C7 1121   1.136   2.411   5.601 -0.2186 -0.0040  0.2132
   16CHL1   H7A 1122   1.235   2.455   5.623 -0.9127  0.5444  2.3660
   16CHL1   H7B 1123   1.160   2.306   5.572  2.3944 -0.5859  4.1636
   16CHL1    C8 1124   1.074   2.478   5.475 -0.4057 -0.0948 -0.3643
   16CHL1    H8 1125   1.107   2.584   5.483 -1.2493  0.2368 -1.2694
   16CHL1   C14 1126   1.118   2.420   5.343  0.2299  0.2159 -0.6098
   16CHL1   H14 1127   1.073   2.320   5.331  1.4810 -0.3756 -0.3955
   16CHL1   C15 1128   1.273   2.410   5.321  0.2019 -0.8492  0.5108
   16CHL1  H15A 1129   1.319   2.503   5.362 -0.7573  0.4939 -1.3831
   16CHL1  H15B 1130   1.314   2.323   5.377  0.7944 -0.4853  0.6534
   16CHL1   C16 1131   1.290   2.384   5.172  0.1827  0.1023 -0.0721
   16CHL1  H16A 1132   1.370   2.450   5.131 -2.3971  3.1725 -0.4006
   16CHL1  H16B 1133   1.325   2.282   5.145  1.7444 -0.1115  2.6222
   16CHL1   C17 1134   1.153   2.412   5.102  0.4591 -0.1276 -0.1065
   16CHL1   H17 1135   1.107   2.311   5.096  2.3433 -1.0979  1.1233
   16CHL1   C13 1136   1.066   2.485   5.215  0.1655 -0.9056  0.2241
   16CHL1   C18 1137   1.098   2.634   5.206 -0.5056 -0.2228 -0.7251
   16CHL1  H18A 1138   1.034   2.674   5.123 -0.8545  2.4669  0.7842
   16CHL1  H18B 1139   1.059   2.683   5.298  1.1180  0.2478 -0.2808
   16CHL1  H18C 1140   1.208   2.649   5.198 -0.3983 -0.2259  0.7535
   16CHL1   C12 1141   0.916   2.464   5.215 -0.5431  0.1581  1.0785
   16CHL1  H12A 1142   0.872   2.507   5.123 -0.1332 -1.2587  0.2002
   16CHL1  H12B 1143   0.894   2.355   5.209  0.0700  0.0404  0.8912
   16CHL1   C11 1144   0.856   2.525   5.351 -0.1355  0.8096  0.0811
   16CHL1  H11A 1145   0.859   2.636   5.348  1.9078  0.7656 -0.2159
   16CHL1  H11B 1146   0.748   2.500   5.351  0.1052 -0.2679 -1.1197
   16CHL1    C9 1147   0.924   2.481   5.481 -0.6685 -0.1112 -0.3970
   16CHL1    H9 1148   0.897   2.374   5.490  1.8682 -0.8643 -1.3289
   16CHL1   C10 1149   0.861   2.545   5.603 -0.2372 -0.3138 -0.2500
   16CHL1   C19 1150   0.868   2.696   5.598  0.8075 -0.4092 -0.7932
   16CHL1  H19A 1151   0.819   2.732   5.691  0.6878  0.6093 -1.2470
   16CHL1  H19B 1152   0.969   2.739   5.583 -0.2336  2.6658  0.7605
   16CHL1  H19C 1153   0.800   2.740   5.523 -2.0303 -1.6798  0.9419
   16CHL1    C1 1154   0.708   2.502   5.617  0.0134 -1.1262 -0.8385
   16CHL1   H1A 1155   0.637   2.552   5.548  0.8265  0.5304 -0.4977
   16CHL1   H1B 1156   0.707   2.392   5.602  1.1423 -0.9978 -1.8981
   16CHL1    C2 1157   0.643   2.521   5.757  0.8239 -0.4358  0.4243
   16CHL1   H2A 1158   0.552   2.458   5.755 -0.1197  0.9024  0.6908
   16CHL1   H2B 1159   0.609   2.626   5.772 -0.2860 -0.6761 -0.4106
   16CHL1   C20 1160   1.163   2.465   4.955  0.0805  0.6493 -0.6793
   16CHL1   H20 1161   1.190   2.573   4.951  0.4786  0.6869  2.1454
   16CHL1   C21 1162   1.033   2.433   4.893 -0.0513  0.7182 -1.5774
   16CHL1  H21A 1163   1.017   2.469   4.789  1.6053  0.3546 -1.9713
   16CHL1  H21B 1164   0.954   2.490   4.946 -0.3656 -1.8116  0.8305
   16CHL1  H21C 1165   1.008   2.325   4.880  1.5744  0.1616 -0.3331
   16CHL1   C22 1166   1.274   2.390   4.878  0.0133 -0.8684 -0.3400
   16CHL1  H22A 1167   1.366   2.427   4.928 -0.7042 -1.9691  1.8335
   16CHL1  H22B 1168   1.255   2.280   4.874 -0.3781 -0.7702 -1.7361
   16CHL1   C23 1169   1.317   2.435   4.737 -0.5093  0.3321  0.0566
   16CHL1  H23A 1170   1.233   2.423   4.666 -2.8552  4.1689  2.0025
   16CHL1  H23B 1171   1.355   2.539   4.748  0.3878 -0.3629  3.9844
   16CHL1   C24 1172   1.438   2.344   4.684  0.3921  0.3323  0.9072
   16CHL1  H24A 1173   1.529   2.368   4.743  1.6347 -0.8441 -0.5054
   16CHL1  H24B 1174   1.407   2.238   4.686 -0.5952  0.4558 -3.4597
   16CHL1   C25 1175   1.480   2.377   4.538  0.1793 -0.1441 -0.2862
   16CHL1   H25 1176   1.400   2.366   4.462 -1.6158 -0.6667  1.6267
   16CHL1   C26 1177   1.538   2.516   4.531  0.2605 -0.3346  0.2936
   16CHL1  H26A 1178   1.477   2.594   4.581  2.3654  2.3979 -1.2995
   16CHL1  H26B 1179   1.636   2.534   4.582 -0.8511 -0.1448  2.4213
   16CHL1  H26C 1180   1.548   2.557   4.429 -0.4394 -0.4518  0.1739
   16CHL1   C27 1181   1.583   2.276   4.500 -0.0535 -0.5548 -0.1213
   16CHL1  H27A 1182   1.640   2.305   4.409 -0.8079  3.0371  0.4372
   16CHL1  H27B 1183   1.664   2.279   4.577 -1.8988  1.2902  1.8136
   16CHL1  H27C 1184   1.556   2.170   4.488 -0.1513 -0.6908  1.2137
   17CHL1    C3 1185   1.938   6.092   5.922 -0.6224  0.1487  0.0277
   17CHL1    H3 1186   1.941   6.202   5.905  0.6134 -0.2635 -2.6803
   17CHL1    O3 1187   1.960   6.074   6.060 -0.0261 -0.3154 -0.0053
   17CHL1   H3' 1188   1.886   6.119   6.101 -0.3841 -2.5365  1.8673
   17CHL1    C4 1189   1.797   6.043   5.882 -0.1336  0.2610  0.0977
   17CHL1   H4A 1190   1.789   5.934   5.901  1.1054  0.1683  0.0935
   17CHL1   H4B 1191   1.729   6.105   5.944  0.6894 -1.0002  2.3065
   17CHL1    C5 1192   1.778   6.071   5.728  0.3035  0.6950  0.7883
   17CHL1    C6 1193   1.680   6.155   5.687  0.4559  0.4348  0.1657
   17CHL1    H6 1194   1.608   6.197   5.759 -0.7315  1.8333 -1.7926
   17CHL1    C7 1195   1.646   6.174   5.543 -0.2521  0.2945 -0.5922
   17CHL1   H7A 1196   1.536   6.170   5.530 -0.7827 -2.6266  3.6668
   17CHL1   H7B 1197   1.691   6.273   5.520 -0.6199  0.0637 -2.3521
   17CHL1    C8 1198   1.716   6.067   5.449 -0.6676  0.6184 -0.4202
   17CHL1    H8 1199   1.665   5.969   5.462 -1.4832  0.8766 -1.5205
   17CHL1   C14 1200   1.703   6.111   5.308 -0.7077 -0.1771 -0.0425
   17CHL1   H14 1201   1.752   6.211   5.309  1.3018 -1.1483  0.0038
   17CHL1   C15 1202   1.561   6.137   5.259 -0.0028 -0.2563  0.0174
   17CHL1  H15A 1203   1.499   6.054   5.298  0.8735  0.9437  4.2365
   17CHL1  H15B 1204   1.515   6.229   5.302 -0.0758 -1.3157  2.3053
   17CHL1   C16 1205   1.578   6.145   5.114 -0.1682 -0.0497  0.2295
   17CHL1  H16A 1206   1.531   6.061   5.058  1.6317 -1.0807  0.2086
   17CHL1  H16B 1207   1.549   6.243   5.072 -1.3301 -0.1757  0.7114
   17CHL1   C17 1208   1.727   6.115   5.082  0.4373 -0.1638  0.3291
   17CHL1   H17 1209   1.773   6.216   5.092  2.0038 -0.6697 -1.4191
   17CHL1   C13 1210   1.772   6.030   5.202 -0.2618 -0.2506  0.5838
   17CHL1   C18 1211   1.703   5.882   5.205 -0.2248  0.2651 -0.7432
   17CHL1  H18A 1212   1.610   5.868   5.146 -2.2703 -0.9091  2.6320
   17CHL1  H18B 1213   1.785   5.813   5.177 -0.2663  1.4248 -3.9378
   17CHL1  H18C 1214   1.667   5.847   5.304  0.0286 -3.5575 -1.9402
   17CHL1   C12 1215   1.922   6.021   5.234 -0.4034  0.1118  0.6859
   17CHL1  H12A 1216   1.964   5.946   5.163  2.0226  0.4682  1.6737
   17CHL1  H12B 1217   1.963   6.124   5.221  0.1605 -0.1716  0.1935
   17CHL1   C11 1218   1.940   5.972   5.385  0.1455  0.0179 -0.9349
   17CHL1  H11A 1219   1.893   5.871   5.384 -0.3161  0.1605  2.3887
   17CHL1  H11B 1220   2.047   5.960   5.413  0.1280  1.6424 -0.1207
   17CHL1    C9 1221   1.860   6.047   5.489  0.4886 -0.3217  0.0625
   17CHL1    H9 1222   1.897   6.151   5.492 -0.7542  0.1752 -1.5405
   17CHL1   C10 1223   1.876   6.003   5.634 -0.1442  0.5090 -0.6639
   17CHL1   C19 1224   1.841   5.849   5.649 -0.1142 -0.6428  0.0359
   17CHL1  H19A 1225   1.882   5.825   5.750  2.6315  1.6093 -0.4712
   17CHL1  H19B 1226   1.735   5.819   5.634 -0.3123  1.2194 -2.6892
   17CHL1  H19C 1227   1.918   5.803   5.583  0.9984 -1.2739  1.7371
   17CHL1    C1 1228   2.018   6.042   5.686 -0.5170 -0.5784 -0.2870
   17CHL1   H1A 1229   2.093   5.972   5.644  1.1734  1.1530 -0.2020
   17CHL1   H1B 1230   2.050   6.141   5.649  2.1130 -1.1929  0.2981
   17CHL1    C2 1231   2.050   6.028   5.842  0.6250 -0.3846 -0.3016
   17CHL1   H2A 1232   2.149   6.063   5.878 -0.1193 -0.3165  1.7714
   17CHL1   H2B 1233   2.060   5.918   5.854 -2.9707 -0.8198 -0.8543
   17CHL1   C20 1234   1.769   6.068   4.938  0.4670  0.3723  0.4901
   17CHL1   H20 1235   1.712   6.123   4.861  1.6346  0.6708 -0.1808
   17CHL1   C21 1236   1.753   5.916   4.905 -0.1692  0.0781 -0.2561
   17CHL1  H21A 1237   1.823   5.865   4.975 -0.1361  0.6311  0.1141
   17CHL1  H21B 1238   1.784   5.906   4.799  2.3815 -2.2763  0.6445
   17CHL1  H21C 1239   1.648   5.888   4.929 -0.3584  1.5684  0.7107
   17CHL1   C22 1240   1.913   6.115   4.899  0.5868  0.7344 -0.2779
   17CHL1  H22A 1241   1.920   6.221   4.934  0.5859  0.9238 -0.8429
   17CHL1  H22B 1242   1.987   6.063   4.963  1.8791  1.5717 -1.0674
   17CHL1   C23 1243   1.964   6.112   4.751  0.0315 -0.1481  0.0045
   17CHL1  H23A 1244   1.955   6.005   4.720 -0.8643 -0.5618  1.6208
   17CHL1  H23B 1245   1.886   6.171   4.699  1.2781 -0.1049 -1.8741
   17CHL1   C24 1246   2.110   6.162   4.741 -0.1019 -0.0969 -0.0128
   17CHL1  H24A 1247   2.108   6.273   4.753 -0.9294 -0.2021  0.8632
   17CHL1  H24B 1248   2.161   6.114   4.828  0.3532 -1.4135 -0.9917
   17CHL1   C25 1249   2.173   6.139   4.599 -0.1385 -0.1879 -0.5235
   17CHL1   H25 1250   2.172   6.033   4.565 -2.5680  0.0921 -1.4319
   17CHL1   C26 1251   2.086   6.209   4.498 -0.1980 -0.4663  0.1715
   17CHL1  H26A 1252   2.125   6.187   4.397  0.9260 -1.1539  0.7437
   17CHL1  H26B 1253   1.983   6.167   4.494 -0.0955 -0.8013  0.9126
   17CHL1  H26C 1254   2.068   6.318   4.514  2.2120  0.2239 -1.5718
   17CHL1   C27 1255   2.326   6.181   4.585  1.0558  0.2206 -0.1469
   17CHL1  H27A 1256   2.351   6.219   4.484 -1.1921  1.8496 -0.1185
   17CHL1  H27B 1257   2.360   6.268   4.646  0.6961  0.0787  0.2559
   17CHL1  H27C 1258   2.381   6.088   4.612 -2.0692 -1.2765  1.2197
   18CHL1    C3 1259   3.816   0.507   5.849 -0.6844  0.1099 -0.0369
   18CHL1    H3 1260   3.775   0.610   5.840 -0.6969  0.1439  0.4244
   18CHL1    O3 1261   3.834   0.476   5.988  0.3982 -0.1015  0.1725
   18CHL1   H3' 1262   3.845   0.561   6.031 -1.6742  0.3240 -0.0779
   18CHL1    C4 1263   3.724   0.404   5.790  0.2251  0.9487 -0.5805
   18CHL1   H4A 1264   3.768   0.303   5.807 -0.8200  0.4853 -0.6290
   18CHL1   H4B 1265   3.631   0.419   5.848  1.3898 -0.7142  1.8432
   18CHL1    C5 1266   3.704   0.428   5.642 -0.1316  0.0204 -0.3900
   18CHL1    C6 1267   3.579   0.446   5.593 -0.0500 -0.4110 -0.0470
   18CHL1    H6 1268   3.494   0.449   5.663 -0.2728  1.4774 -0.3767
   18CHL1    C7 1269   3.550   0.458   5.445 -0.2199  0.1683 -0.6924
   18CHL1   H7A 1270   3.466   0.390   5.422 -1.2650  1.6309 -1.2930
   18CHL1   H7B 1271   3.522   0.564   5.427 -0.2782  0.4513  0.9834
   18CHL1    C8 1272   3.677   0.421   5.362 -0.2189 -0.5303  0.1736
   18CHL1    H8 1273   3.695   0.312   5.371  1.7977 -0.2539 -0.2524
   18CHL1   C14 1274   3.653   0.463   5.217  0.4337 -0.1073  0.0675
   18CHL1   H14 1275   3.644   0.574   5.228  0.0737 -0.2742  1.4941
   18CHL1   C15 1276   3.519   0.433   5.142 -0.0616 -0.1206 -0.0137
   18CHL1  H15A 1277   3.489   0.328   5.162 -0.9394  0.1048 -0.1167
   18CHL1  H15B 1278   3.440   0.495   5.190  0.5460 -0.7333  1.8106
   18CHL1   C16 1279   3.551   0.473   4.997 -0.2093 -0.1114 -0.0672
   18CHL1  H16A 1280   3.502   0.403   4.925 -2.9025  3.6686 -2.1200
   18CHL1  H16B 1281   3.490   0.564   4.979 -1.8649 -1.2470 -0.3652
   18CHL1   C17 1282   3.711   0.485   4.985  0.2693 -0.1418 -0.1943
   18CHL1   H17 1283   3.731   0.594   4.972 -0.2791 -0.0334 -0.1146
   18CHL1   C13 1284   3.767   0.439   5.118  0.3559 -0.4188  0.5850
   18CHL1   C18 1285   3.789   0.288   5.116 -0.4218 -0.4760  0.7272
   18CHL1  H18A 1286   3.866   0.254   5.044 -0.5058  2.2789 -0.7642
   18CHL1  H18B 1287   3.825   0.254   5.215 -0.9899  0.7436  1.3640
   18CHL1  H18C 1288   3.689   0.245   5.093 -0.6589  0.0451  0.7607
   18CHL1   C12 1289   3.888   0.521   5.170 -0.3789  0.3486  0.3003
   18CHL1  H12A 1290   3.970   0.500   5.098 -0.7709  0.3561 -0.1584
   18CHL1  H12B 1291   3.869   0.630   5.158 -3.4452 -0.0581  1.0592
   18CHL1   C11 1292   3.922   0.491   5.317  0.3077 -0.0128  0.4947
   18CHL1  H11A 1293   3.974   0.393   5.311 -0.0253 -0.1597 -0.0317
   18CHL1  H11B 1294   3.997   0.570   5.335 -1.1214  1.1105  1.6887
   18CHL1    C9 1295   3.802   0.490   5.417  0.0412 -0.5014 -0.3806
   18CHL1    H9 1296   3.779   0.599   5.422 -0.7630 -0.6729 -0.2872
   18CHL1   C10 1297   3.829   0.444   5.564 -0.2424 -0.1086 -0.5419
   18CHL1   C19 1298   3.910   0.307   5.559 -0.2208  0.6273  0.5921
   18CHL1  H19A 1299   3.838   0.234   5.514 -1.0192  2.4401 -1.1345
   18CHL1  H19B 1300   3.995   0.308   5.488 -0.7745 -0.4644 -0.1014
   18CHL1  H19C 1301   3.933   0.267   5.660 -1.4540  1.8142  1.3711
   18CHL1    C1 1302   3.922   0.540   5.631 -1.1554 -0.4086 -0.3419
   18CHL1   H1A 1303   4.010   0.547   5.563  0.1036  0.4739  1.3402
   18CHL1   H1B 1304   3.874   0.641   5.629  0.2709  0.2655 -1.7109
   18CHL1    C2 1305   3.953   0.509   5.784  0.6752  0.0292  0.0779
   18CHL1   H2A 1306   4.011   0.591   5.832  1.2152  0.6184 -1.5652
   18CHL1   H2B 1307   4.006   0.412   5.795 -0.5336 -0.6081  0.2901
   18CHL1   C20 1308   3.770   0.431   4.854  0.4256  0.2893 -0.3773
   18CHL1   H20 1309   3.740   0.325   4.860  0.7110 -0.0266 -3.5685
   18CHL1   C21 1310   3.918   0.434   4.831  0.6971  0.4914  0.0531
   18CHL1  H21A 1311   3.966   0.360   4.898 -0.9579  1.2843  2.1820
   18CHL1  H21B 1312   3.966   0.526   4.868  0.7598  1.0331 -1.3497
   18CHL1  H21C 1313   3.946   0.408   4.726 -1.1854  0.7489 -0.5461
   18CHL1   C22 1314   3.693   0.482   4.732  0.7697  0.0873  0.1069
   18CHL1  H22A 1315   3.590   0.514   4.756  0.1278 -0.4192 -1.8972
   18CHL1  H22B 1316   3.742   0.565   4.677 -0.9317 -0.6502 -2.6332
   18CHL1   C23 1317   3.669   0.377   4.625 -0.0638 -0.0321 -0.1473
   18CHL1  H23A 1318   3.764   0.326   4.596 -2.0400 -3.1212 -1.4136
   18CHL1  H23B 1319   3.606   0.299   4.672  0.4542 -0.6301 -0.4270
   18CHL1   C24 1320   3.616   0.438   4.496  0.6254  0.4808  0.0837
   18CHL1  H24A 1321   3.518   0.485   4.520  0.2897  1.4051 -2.9119
   18CHL1  H24B 1322   3.689   0.513   4.457 -2.0236  1.8057 -2.4726
   18CHL1   C25 1323   3.594   0.332   4.383  0.0393  0.2022 -0.3840
   18CHL1   H25 1324   3.689   0.282   4.355 -0.9882 -2.0488  0.0576
   18CHL1   C26 1325   3.503   0.217   4.418 -0.2793  0.4356  0.5020
   18CHL1  H26A 1326   3.473   0.155   4.330  1.7646  0.0477  0.0547
   18CHL1  H26B 1327   3.558   0.145   4.483  0.6310  2.0970  1.6086
   18CHL1  H26C 1328   3.410   0.249   4.470 -0.9301  0.6846 -0.8010
   18CHL1   C27 1329   3.535   0.409   4.259  0.1422  0.0243 -0.1358
   18CHL1  H27A 1330   3.509   0.335   4.180 -2.6126  0.3531  0.4257
   18CHL1  H27B 1331   3.468   0.493   4.287 -0.0250  0.0972 -0.7433
   18CHL1  H27C 1332   3.616   0.469   4.213  2.2717 -2.6505 -0.0133
   19CHL1    C3 1333   2.155   0.861   5.900  0.0008  0.2037  0.5248
   19CHL1    H3 1334   2.053   0.884   5.860  0.5394  0.4697 -0.7313
   19CHL1    O3 1335   2.141   0.784   6.019  0.3814  0.4364  0.0133
   19CHL1   H3' 1336   2.167   0.694   6.001 -2.0927 -0.1368 -0.9119
   19CHL1    C4 1337   2.231   0.778   5.795 -0.2260 -0.5683 -0.1513
   19CHL1   H4A 1338   2.334   0.762   5.833 -0.9332  0.6099  2.4048
   19CHL1   H4B 1339   2.183   0.680   5.779  1.2610 -1.1386 -1.2224
   19CHL1    C5 1340   2.245   0.865   5.665 -0.4137  0.0291 -0.4773
   19CHL1    C6 1341   2.194   0.823   5.544 -0.1644  0.5213 -0.1826
   19CHL1    H6 1342   2.138   0.728   5.542 -0.1148  0.4928 -0.2321
   19CHL1    C7 1343   2.217   0.898   5.417  0.6234 -0.2611 -0.2657
   19CHL1   H7A 1344   2.267   0.835   5.341  2.0734  0.3571  0.1529
   19CHL1   H7B 1345   2.118   0.922   5.373 -0.1735  0.6865  1.9690
   19CHL1    C8 1346   2.308   1.034   5.427 -0.1424  0.1961 -0.3080
   19CHL1    H8 1347   2.412   0.996   5.420 -0.7331 -1.2338 -1.6366
   19CHL1   C14 1348   2.279   1.128   5.311 -0.3044  0.3051 -0.2531
   19CHL1   H14 1349   2.170   1.145   5.327 -0.1534  0.4578  0.6291
   19CHL1   C15 1350   2.293   1.079   5.167 -0.4441  0.2393  0.1958
   19CHL1  H15A 1351   2.381   1.012   5.156 -1.4529 -1.2968  1.2026
   19CHL1  H15B 1352   2.196   1.033   5.137 -2.4470  3.0164  2.1672
   19CHL1   C16 1353   2.305   1.206   5.090 -0.4827 -0.6291  0.0873
   19CHL1  H16A 1354   2.399   1.202   5.031 -1.2624  1.5293 -1.3484
   19CHL1  H16B 1355   2.232   1.221   5.008  1.2886 -0.5034 -1.4992
   19CHL1   C17 1356   2.297   1.328   5.185 -0.1724  0.1293  1.2495
   19CHL1   H17 1357   2.191   1.356   5.201 -0.3060  0.3036  0.0558
   19CHL1   C13 1358   2.355   1.263   5.317 -0.5254 -0.5032  0.7732
   19CHL1   C18 1359   2.502   1.241   5.307  0.0435  0.0665  0.2026
   19CHL1  H18A 1360   2.533   1.149   5.360  0.7513  0.2290  0.0799
   19CHL1  H18B 1361   2.534   1.231   5.202 -5.5801 -2.2657 -1.4801
   19CHL1  H18C 1362   2.557   1.325   5.355  0.0547  0.8282 -1.1179
   19CHL1   C12 1363   2.314   1.333   5.449 -0.2625  0.4952 -0.7844
   19CHL1  H12A 1364   2.347   1.438   5.467 -0.3946  0.4425 -0.2138
   19CHL1  H12B 1365   2.203   1.345   5.446 -0.2421  1.3057  1.1728
   19CHL1   C11 1366   2.351   1.239   5.569 -0.2722  0.0472 -0.3902
   19CHL1  H11A 1367   2.462   1.232   5.567 -0.0466  3.1323 -0.8690
   19CHL1  H11B 1368   2.331   1.296   5.662 -1.1508 -1.6990  0.5132
   19CHL1    C9 1369   2.281   1.099   5.564 -0.6871  0.5175 -0.0503
   19CHL1    H9 1370   2.172   1.121   5.559 -0.3205  2.1490 -1.2958
   19CHL1   C10 1371   2.301   1.009   5.684 -0.4744  0.7073 -0.1470
   19CHL1   C19 1372   2.457   1.003   5.714 -1.1822 -0.1999 -0.2382
   19CHL1  H19A 1373   2.515   0.991   5.621  1.9456 -1.5820  1.8064
   19CHL1  H19B 1374   2.481   1.100   5.762 -1.1843  0.3583 -1.3658
   19CHL1  H19C 1375   2.481   0.923   5.787 -1.1381 -2.6458 -2.8553
   19CHL1    C1 1376   2.244   1.073   5.806 -0.8722 -0.9133  0.1050
   19CHL1   H1A 1377   2.304   1.163   5.835 -2.1959 -0.5291  1.7177
   19CHL1   H1B 1378   2.141   1.111   5.793  0.0611  1.3973 -0.8217
   19CHL1    C2 1379   2.238   0.985   5.933 -0.6212  0.3002  0.2505
   19CHL1   H2A 1380   2.187   1.027   6.022  0.1640  0.3177  0.7001
   19CHL1   H2B 1381   2.344   0.958   5.955 -0.4911 -1.1080 -1.9497
   19CHL1   C20 1382   2.368   1.458   5.124  0.7919  0.2634 -0.4671
   19CHL1   H20 1383   2.475   1.431   5.113  0.6518 -0.3045 -0.4760
   19CHL1   C21 1384   2.356   1.577   5.221 -0.2191  0.5076  0.7432
   19CHL1  H21A 1385   2.250   1.583   5.254  0.3109  3.2467  2.0858
   19CHL1  H21B 1386   2.392   1.667   5.168  0.8487 -1.1514 -1.4095
   19CHL1  H21C 1387   2.421   1.544   5.305 -0.6552 -2.7082 -0.1291
   19CHL1   C22 1388   2.314   1.502   4.987  0.2478 -0.2454 -0.8118
   19CHL1  H22A 1389   2.204   1.484   4.988  0.4158 -1.3490  0.6347
   19CHL1  H22B 1390   2.316   1.612   4.970 -0.1302  0.0733  1.0732
   19CHL1   C23 1391   2.387   1.449   4.863  0.1341  0.0257 -0.7443
   19CHL1  H23A 1392   2.495   1.476   4.862 -0.7675  4.1639  1.1055
   19CHL1  H23B 1393   2.374   1.339   4.874 -2.1459  0.3847  0.3718
   19CHL1   C24 1394   2.325   1.502   4.734 -0.3501  0.2859  0.4136
   19CHL1  H24A 1395   2.222   1.467   4.711 -0.9871  0.0162  3.4960
   19CHL1  H24B 1396   2.322   1.613   4.740  1.7209  0.5404 -2.1862
   19CHL1   C25 1397   2.401   1.455   4.607  0.2417  0.2748  0.5379
   19CHL1   H25 1398   2.506   1.486   4.620 -0.0346  0.3147  3.0563
   19CHL1   C26 1399   2.398   1.303   4.594 -0.2670  0.5010  0.2684
   19CHL1  H26A 1400   2.302   1.266   4.552  0.7776 -0.1672 -1.5533
   19CHL1  H26B 1401   2.473   1.273   4.518 -0.9712 -1.0759  0.1866
   19CHL1  H26C 1402   2.422   1.252   4.690 -1.1113  1.3109  0.9253
   19CHL1   C27 1403   2.347   1.520   4.481  0.1579  0.2208  0.6930
   19CHL1  H27A 1404   2.360   1.630   4.484 -0.5728  0.3908 -1.2823
   19CHL1  H27B 1405   2.393   1.477   4.389 -0.5834  2.9773 -1.0355
   19CHL1  H27C 1406   2.238   1.509   4.459  0.6665 -1.4830 -1.1477
   20CHL1    C3 1407   1.754   0.668   6.013  0.3645 -0.0941 -0.2736
   20CHL1    H3 1408   1.837   0.741   6.021  0.6739 -0.2347 -2.0466
   20CHL1    O3 1409   1.697   0.644   6.146  0.1157  0.1370 -0.2264
   20CHL1   H3' 1410   1.623   0.705   6.154  0.3441  0.4227 -0.3098
   20CHL1    C4 1411   1.637   0.705   5.926 -0.1895 -0.5106 -0.2313
   20CHL1   H4A 1412   1.558   0.626   5.928  0.2769 -0.9696 -0.0528
   20CHL1   H4B 1413   1.587   0.793   5.973 -0.3819 -1.7413  1.9372
   20CHL1    C5 1414   1.684   0.728   5.782  0.5209 -0.0541 -0.9194
   20CHL1    C6 1415   1.681   0.851   5.723 -0.7696  0.0632 -0.1804
   20CHL1    H6 1416   1.632   0.935   5.775 -0.5940 -0.6446  1.1758
   20CHL1    C7 1417   1.729   0.886   5.585  0.4673 -0.2354  0.1447
   20CHL1   H7A 1418   1.653   0.952   5.538 -1.0516 -0.7272  1.8297
   20CHL1   H7B 1419   1.822   0.946   5.596  0.7626 -0.3417 -1.7355
   20CHL1    C8 1420   1.757   0.757   5.503 -0.5170 -0.1945  0.2308
   20CHL1    H8 1421   1.658   0.721   5.467 -0.4938  0.0938 -0.1180
   20CHL1   C14 1422   1.846   0.803   5.385  0.5303 -0.5582 -0.8423
   20CHL1   H14 1423   1.939   0.842   5.432 -0.2781 -2.0351  2.1124
   20CHL1   C15 1424   1.786   0.913   5.303  0.4964  0.0793  0.0667
   20CHL1  H15A 1425   1.680   0.896   5.276 -0.0286 -1.2285  2.8127
   20CHL1  H15B 1426   1.783   1.010   5.358 -1.2256  0.2098 -0.2524
   20CHL1   C16 1427   1.886   0.910   5.179  0.5136 -0.8450  0.2924
   20CHL1  H16A 1428   1.821   0.919   5.089  0.3757  2.3148  0.6422
   20CHL1  H16B 1429   1.965   0.988   5.180 -0.0549 -0.2726  0.7860
   20CHL1   C17 1430   1.954   0.767   5.180  0.5547 -0.3597 -0.4378
   20CHL1   H17 1431   2.059   0.789   5.207 -0.0303  0.5641  1.1745
   20CHL1   C13 1432   1.880   0.692   5.292 -0.0676 -0.1995  0.1608
   20CHL1   C18 1433   1.749   0.634   5.231 -0.7993  0.0360 -0.9451
   20CHL1  H18A 1434   1.709   0.702   5.153  1.2437 -1.0238 -2.9831
   20CHL1  H18B 1435   1.778   0.539   5.180 -3.7999 -2.1097  1.1723
   20CHL1  H18C 1436   1.681   0.599   5.312 -1.2710  2.2904 -0.3487
   20CHL1   C12 1437   1.956   0.579   5.371  0.0170  0.6015  0.3681
   20CHL1  H12A 1438   1.975   0.490   5.307 -0.4298  1.6203 -1.1793
   20CHL1  H12B 1439   2.059   0.615   5.394  0.4603 -1.0988  1.1747
   20CHL1   C11 1440   1.885   0.528   5.500  0.0123  0.7517  0.1109
   20CHL1  H11A 1441   1.801   0.466   5.461 -0.3949  1.6618 -0.4974
   20CHL1  H11B 1442   1.942   0.453   5.559 -0.8429  0.2122  0.2507
   20CHL1    C9 1443   1.836   0.648   5.590  0.2493 -0.6400 -0.3659
   20CHL1    H9 1444   1.931   0.702   5.610 -0.2708  0.7358 -1.4964
   20CHL1   C10 1445   1.762   0.613   5.722  0.0207  0.6140 -0.1714
   20CHL1   C19 1446   1.649   0.508   5.682 -0.0238 -0.6835 -1.0101
   20CHL1  H19A 1447   1.600   0.562   5.598  1.0656 -0.4247 -1.4858
   20CHL1  H19B 1448   1.683   0.412   5.637  0.5346 -0.4126 -1.1692
   20CHL1  H19C 1449   1.578   0.478   5.761 -1.7475  0.3185 -2.1494
   20CHL1    C1 1450   1.869   0.552   5.822  0.6404 -0.0472  0.5306
   20CHL1   H1A 1451   1.902   0.458   5.773  0.2366 -0.2955  0.7302
   20CHL1   H1B 1452   1.960   0.616   5.827  1.3243 -0.8386 -1.3455
   20CHL1    C2 1453   1.819   0.534   5.965 -0.5426  0.2580 -0.3194
   20CHL1   H2A 1454   1.902   0.509   6.034 -1.5340 -2.3195 -0.0167
   20CHL1   H2B 1455   1.757   0.442   5.961  0.9890 -0.7135 -2.4249
   20CHL1   C20 1456   1.966   0.711   5.037  0.7265  0.6390  0.0879
   20CHL1   H20 1457   1.863   0.706   4.996  1.1917  0.0702 -1.0301
   20CHL1   C21 1458   2.026   0.565   5.046  0.1493 -0.4864  0.3671
   20CHL1  H21A 1459   1.961   0.497   5.106  2.4975 -0.7592  2.6645
   20CHL1  H21B 1460   2.118   0.573   5.108 -2.0789 -0.8808  3.8708
   20CHL1  H21C 1461   2.047   0.527   4.943 -0.0308  1.7244 -0.5181
   20CHL1   C22 1462   2.057   0.804   4.946 -0.1454 -0.2643  1.1292
   20CHL1  H22A 1463   2.023   0.909   4.937 -0.7336 -0.5702 -0.3028
   20CHL1  H22B 1464   2.161   0.793   4.985  0.6821  0.1254 -0.9004
   20CHL1   C23 1465   2.057   0.776   4.795 -0.0025 -0.2330 -0.3852
   20CHL1  H23A 1466   2.089   0.672   4.777  0.8579 -0.2338  1.0722
   20CHL1  H23B 1467   1.954   0.801   4.762 -0.4237  0.5380  1.4261
   20CHL1   C24 1468   2.159   0.873   4.733 -0.0601 -0.4482  0.0216
   20CHL1  H24A 1469   2.129   0.974   4.770 -0.6267 -0.6240  0.0512
   20CHL1  H24B 1470   2.261   0.846   4.766  0.1488 -0.3385 -0.5193
   20CHL1   C25 1471   2.172   0.866   4.574  0.6473 -0.2462  0.0353
   20CHL1   H25 1472   2.138   0.763   4.552 -1.9042  0.2853  1.3363
   20CHL1   C26 1473   2.083   0.970   4.491  0.2689  0.3125 -0.2772
   20CHL1  H26A 1474   1.976   0.969   4.522  0.2878 -1.2970 -0.2331
   20CHL1  H26B 1475   2.118   1.074   4.506  0.8577 -0.2360  2.5735
   20CHL1  H26C 1476   2.100   0.953   4.383 -0.7243 -2.4554 -0.0448
   20CHL1   C27 1477   2.318   0.874   4.533  0.2057 -0.4594 -0.0091
   20CHL1  H27A 1478   2.330   0.862   4.423 -0.5094  0.4674 -0.1957
   20CHL1  H27B 1479   2.366   0.967   4.572 -0.5426 -0.4189  0.8280
   20CHL1  H27C 1480   2.370   0.790   4.584  1.1302  0.2697  0.2640
   21CHL1    C3 1481   6.999   2.348   5.906  0.0978  0.1592 -0.8195
   21CHL1    H3 1482   6.903   2.293   5.910 -0.2480  0.8219  0.1786
   21CHL1    O3 1483   7.014   2.411   6.030 -0.0379 -0.5991  0.1771
   21CHL1   H3' 1484   7.020   2.345   6.099 -0.2181  0.1310  0.8967
   21CHL1    C4 1485   7.114   2.253   5.873 -0.0730  0.1043 -0.1881
   21CHL1   H4A 1486   7.199   2.324   5.883  0.6102 -0.9986  2.1902
   21CHL1   H4B 1487   7.131   2.182   5.957  1.5334  0.8527  0.1412
   21CHL1    C5 1488   7.102   2.200   5.736  0.1370 -0.5917  0.2070
   21CHL1    C6 1489   7.091   2.070   5.718 -0.4150 -0.1367  0.4082
   21CHL1    H6 1490   7.091   1.998   5.801 -3.2241 -1.7648 -0.9110
   21CHL1    C7 1491   7.090   2.002   5.583  0.4132 -0.1854  0.4995
   21CHL1   H7A 1492   7.164   1.920   5.569  0.4399 -0.1889  0.6529
   21CHL1   H7B 1493   6.991   1.954   5.567  1.0068 -1.3755  0.3263
   21CHL1    C8 1494   7.123   2.096   5.468 -0.4064  0.8006 -0.4578
   21CHL1    H8 1495   7.233   2.109   5.473 -0.2884 -0.6122  1.2360
   21CHL1   C14 1496   7.084   2.024   5.339  0.4806 -0.4110  0.3170
   21CHL1   H14 1497   6.978   1.992   5.340  1.2891 -3.1913 -0.0537
   21CHL1   C15 1498   7.150   1.899   5.294  0.3348 -0.4252  0.0091
   21CHL1  H15A 1499   7.257   1.925   5.302  0.4172 -0.7340 -0.0646
   21CHL1  H15B 1500   7.127   1.811   5.358 -1.7405  0.7416  0.9232
   21CHL1   C16 1501   7.117   1.887   5.150  0.0972 -0.0114  1.0644
   21CHL1  H16A 1502   7.216   1.875   5.102 -1.3120  0.2770 -2.0369
   21CHL1  H16B 1503   7.074   1.788   5.121 -0.5513  0.9511 -1.3991
   21CHL1   C17 1504   7.053   2.026   5.093  0.2935 -0.3611  0.0955
   21CHL1   H17 1505   6.942   2.018   5.096  0.2752 -0.6989 -1.4842
   21CHL1   C13 1506   7.097   2.116   5.209  0.3339 -0.1504  0.2006
   21CHL1   C18 1507   7.243   2.167   5.193  0.4995  0.3596 -0.1561
   21CHL1  H18A 1508   7.320   2.088   5.175 -0.7403 -1.3876  1.9984
   21CHL1  H18B 1509   7.247   2.235   5.105 -2.6837 -0.2180 -0.7832
   21CHL1  H18C 1510   7.293   2.216   5.280  0.7225  1.8899 -1.1347
   21CHL1   C12 1511   7.005   2.239   5.237 -0.1679  0.4580 -0.9171
   21CHL1  H12A 1512   7.021   2.315   5.157 -0.6551  1.4122 -0.1152
   21CHL1  H12B 1513   6.899   2.205   5.236 -0.3217  0.9301 -0.9941
   21CHL1   C11 1514   7.031   2.316   5.365 -0.6751  0.0185 -0.6891
   21CHL1  H11A 1515   7.133   2.358   5.348  0.2408 -2.6948 -2.1986
   21CHL1  H11B 1516   6.950   2.392   5.367 -1.4741 -0.8309 -0.4907
   21CHL1    C9 1517   7.040   2.223   5.488 -0.1131 -0.0144 -0.3104
   21CHL1    H9 1518   6.933   2.197   5.499  0.0563 -0.1024  1.1196
   21CHL1   C10 1519   7.086   2.298   5.620  0.0083 -0.2337  0.1430
   21CHL1   C19 1520   7.217   2.375   5.579 -0.4686  0.5955 -0.0077
   21CHL1  H19A 1521   7.188   2.469   5.529 -0.0989 -0.3579 -2.0632
   21CHL1  H19B 1522   7.264   2.401   5.677 -0.1782  0.1894 -0.0342
   21CHL1  H19C 1523   7.292   2.330   5.510  1.5716  0.7604  2.0376
   21CHL1    C1 1524   6.973   2.394   5.669 -0.0132  0.5942  0.6231
   21CHL1   H1A 1525   6.968   2.475   5.592 -1.7022 -0.5154 -0.4595
   21CHL1   H1B 1526   6.872   2.348   5.658  0.8466 -1.0734 -0.4635
   21CHL1    C2 1527   6.992   2.459   5.804  0.3614 -0.2326  0.0295
   21CHL1   H2A 1528   6.906   2.529   5.811  1.0252  0.3448  2.8600
   21CHL1   H2B 1529   7.087   2.514   5.820  0.7313 -0.2735 -1.9720
   21CHL1   C20 1530   7.101   2.067   4.949 -0.3775  0.1546  0.1672
   21CHL1   H20 1531   7.212   2.076   4.946 -0.4592  1.5490  0.9414
   21CHL1   C21 1532   7.038   2.195   4.903  0.1855  0.3699 -0.2672
   21CHL1  H21A 1533   7.031   2.218   4.794  2.3351  0.5273 -0.3901
   21CHL1  H21B 1534   7.098   2.283   4.933  3.3364 -1.4957 -0.8304
   21CHL1  H21C 1535   6.934   2.205   4.940  0.5222 -0.5766  0.9817
   21CHL1   C22 1536   7.064   1.947   4.866 -0.0181 -0.5873  0.3347
   21CHL1  H22A 1537   7.112   1.855   4.907  1.9361  0.2395 -0.0189
   21CHL1  H22B 1538   6.954   1.934   4.867 -0.2185  1.0184 -0.7643
   21CHL1   C23 1539   7.105   1.955   4.715  0.2739 -0.0983  0.0248
   21CHL1  H23A 1540   7.073   2.048   4.663  0.8111 -0.8291 -1.6335
   21CHL1  H23B 1541   7.216   1.954   4.721  0.2970 -0.4019 -0.4679
   21CHL1   C24 1542   7.067   1.833   4.639  1.0665 -1.5144  0.3488
   21CHL1  H24A 1543   7.129   1.746   4.668  0.4789 -2.5319 -1.3614
   21CHL1  H24B 1544   6.961   1.808   4.661 -0.3998  1.8984 -2.2831
   21CHL1   C25 1545   7.084   1.843   4.485 -0.5854  0.3450 -0.6089
   21CHL1   H25 1546   7.191   1.856   4.459 -0.2936 -2.2107 -0.7429
   21CHL1   C26 1547   7.034   1.707   4.436 -0.1186 -0.1451 -0.1513
   21CHL1  H26A 1548   6.937   1.678   4.480  0.7306  0.0653  1.9070
   21CHL1  H26B 1549   7.031   1.710   4.325  0.1103 -2.3518 -0.2427
   21CHL1  H26C 1550   7.101   1.620   4.455  1.9684  1.1210 -1.4444
   21CHL1   C27 1551   7.002   1.956   4.414 -0.6184  0.2267 -0.4026
   21CHL1  H27A 1552   7.027   1.954   4.306  1.6015 -2.1963  0.0910
   21CHL1  H27B 1553   6.894   1.936   4.431 -0.3738 -2.5205 -1.7989
   21CHL1  H27C 1554   7.031   2.052   4.461 -0.6005  0.5466 -1.0668
   22CHL1    C3 1555   0.985   5.258   6.051 -0.7178 -0.4952  0.6295
   22CHL1    H3 1556   0.883   5.292   6.080 -0.7592  0.9502 -1.1089
   22CHL1    O3 1557   1.059   5.210   6.164 -0.0675 -0.2929  0.6892
   22CHL1   H3' 1558   1.151   5.217   6.136  0.0629 -0.1868  1.1410
   22CHL1    C4 1559   0.983   5.150   5.946  0.7895  0.1172  0.1044
   22CHL1   H4A 1560   1.087   5.133   5.912  0.2516 -0.8161 -1.1083
   22CHL1   H4B 1561   0.948   5.048   5.972  0.7568  0.0387 -0.2449
   22CHL1    C5 1562   0.919   5.195   5.818  0.3900 -0.1804  1.0502
   22CHL1    C6 1563   0.815   5.130   5.761  1.0953  0.5263  0.7195
   22CHL1    H6 1564   0.775   5.037   5.804  0.9313  0.7650  1.0820
   22CHL1    C7 1565   0.742   5.176   5.635 -0.0552  0.3928  0.3191
   22CHL1   H7A 1566   0.716   5.093   5.567 -0.5102  0.1669  0.7689
   22CHL1   H7B 1567   0.645   5.225   5.657 -0.5401  0.3106 -1.6103
   22CHL1    C8 1568   0.817   5.278   5.555  0.3801 -0.1471  0.2812
   22CHL1    H8 1569   0.893   5.229   5.491  0.3591 -0.4960  0.5273
   22CHL1   C14 1570   0.721   5.355   5.462  0.2580  0.2335  0.1070
   22CHL1   H14 1571   0.655   5.414   5.528  0.8615  0.0856  0.8588
   22CHL1   C15 1572   0.631   5.271   5.371  0.1068 -0.7398  0.2711
   22CHL1  H15A 1573   0.691   5.190   5.324  1.2783  1.1356 -1.5190
   22CHL1  H15B 1574   0.544   5.222   5.420 -0.5920  0.5962  0.3957
   22CHL1   C16 1575   0.586   5.372   5.266  0.2453 -0.5167 -0.4670
   22CHL1  H16A 1576   0.596   5.337   5.161 -1.3121 -1.6353 -0.2574
   22CHL1  H16B 1577   0.482   5.405   5.285  0.2136 -1.4770  1.1237
   22CHL1   C17 1578   0.670   5.500   5.299  0.3821  0.0130 -0.2742
   22CHL1   H17 1579   0.605   5.546   5.376 -0.6940 -1.6281 -0.1834
   22CHL1   C13 1580   0.798   5.451   5.375 -0.2068  0.4599  0.7264
   22CHL1   C18 1581   0.904   5.379   5.284  0.1855 -0.2781 -0.2414
   22CHL1  H18A 1582   0.931   5.441   5.195 -4.0717  1.0095 -0.7742
   22CHL1  H18B 1583   0.995   5.368   5.345  0.9720  1.9414 -0.9671
   22CHL1  H18C 1584   0.875   5.274   5.264 -1.2632  0.1254 -0.3313
   22CHL1   C12 1585   0.864   5.565   5.457 -0.4967  0.2553  0.8650
   22CHL1  H12A 1586   0.918   5.642   5.397 -0.7073  2.2435  3.1343
   22CHL1  H12B 1587   0.784   5.626   5.505  0.3518  0.4498  2.0507
   22CHL1   C11 1588   0.956   5.503   5.568 -0.3654 -0.0568 -0.5633
   22CHL1  H11A 1589   1.040   5.466   5.506 -0.0019 -0.3223  0.0849
   22CHL1  H11B 1590   0.976   5.588   5.636 -0.2905 -1.4598  1.2235
   22CHL1    C9 1591   0.889   5.391   5.646  0.2460 -0.6357 -0.1298
   22CHL1    H9 1592   0.804   5.440   5.698 -1.0823 -2.5401 -0.4433
   22CHL1   C10 1593   0.973   5.333   5.761  0.2253 -1.1486 -0.2537
   22CHL1   C19 1594   1.107   5.289   5.694 -0.1008 -0.1484 -0.7470
   22CHL1  H19A 1595   1.088   5.233   5.600  0.6284 -2.3182  0.3574
   22CHL1  H19B 1596   1.155   5.386   5.668  0.9561 -0.3869  0.2557
   22CHL1  H19C 1597   1.175   5.237   5.765 -0.9348  3.1782  2.6044
   22CHL1    C1 1598   0.993   5.442   5.873  0.2321  0.2947  0.0418
   22CHL1   H1A 1599   1.056   5.517   5.820  0.1913  0.2535 -0.0622
   22CHL1   H1B 1600   0.902   5.501   5.899  1.0198  2.2637 -1.5151
   22CHL1    C2 1601   1.056   5.386   5.998 -0.1571  0.4117 -0.2476
   22CHL1   H2A 1602   1.040   5.463   6.077  0.0602 -0.1790  0.3711
   22CHL1   H2B 1603   1.161   5.357   5.981 -0.7525 -2.1707  0.3498
   22CHL1   C20 1604   0.688   5.608   5.195  0.1742  0.2753 -0.2940
   22CHL1   H20 1605   0.794   5.609   5.162 -0.6290  1.8209 -3.0673
   22CHL1   C21 1606   0.652   5.748   5.259 -0.5876  0.0851  0.5069
   22CHL1  H21A 1607   0.731   5.783   5.330  0.3740 -2.3197  0.6642
   22CHL1  H21B 1608   0.550   5.750   5.302  0.0165  2.0158  1.9618
   22CHL1  H21C 1609   0.663   5.825   5.180  2.6758 -0.4652  0.3576
   22CHL1   C22 1610   0.607   5.582   5.057 -0.3020 -0.1811 -0.1612
   22CHL1  H22A 1611   0.640   5.484   5.017 -0.7298  0.5744 -2.3891
   22CHL1  H22B 1612   0.498   5.589   5.076 -0.3353 -1.2821  0.1026
   22CHL1   C23 1613   0.658   5.683   4.957  0.0751 -0.4237  0.3177
   22CHL1  H23A 1614   0.605   5.781   4.964 -2.3724 -1.6717 -0.1699
   22CHL1  H23B 1615   0.766   5.705   4.963 -0.2738  0.8295  2.2798
   22CHL1   C24 1616   0.617   5.642   4.809  0.3105 -0.2378 -0.1062
   22CHL1  H24A 1617   0.681   5.561   4.767  0.1840  0.1031 -0.9717
   22CHL1  H24B 1618   0.512   5.609   4.821  0.1216 -0.6489 -2.5109
   22CHL1   C25 1619   0.635   5.762   4.716 -0.3754 -0.2797 -0.4938
   22CHL1   H25 1620   0.578   5.846   4.761 -0.0245 -0.2613 -0.0895
   22CHL1   C26 1621   0.781   5.804   4.703 -0.1997  0.1808 -0.1737
   22CHL1  H26A 1622   0.785   5.896   4.640 -0.2069 -0.1243 -0.6291
   22CHL1  H26B 1623   0.811   5.839   4.804 -2.2059  1.4194  0.0172
   22CHL1  H26C 1624   0.851   5.727   4.664  0.4079  0.7294 -0.1749
   22CHL1   C27 1625   0.583   5.740   4.575 -0.2600 -0.0141  0.2663
   22CHL1  H27A 1626   0.625   5.654   4.519  0.0102  2.5709 -3.7442
   22CHL1  H27B 1627   0.476   5.718   4.594 -0.6265  0.1395 -1.4888
   22CHL1  H27C 1628   0.597   5.829   4.510 -0.5073  1.1009  1.7063
   23CHL1    C3 1629   0.109   2.384   6.062 -0.4179 -0.7249  0.4354
   23CHL1    H3 1630   0.013   2.403   6.009  0.1021  1.2504  0.1822
   23CHL1    O3 1631   0.093   2.432   6.191 -0.1918  0.0996  0.1065
   23CHL1   H3' 1632   0.180   2.470   6.203  0.2289 -0.9065  0.3499
   23CHL1    C4 1633   0.132   2.234   6.058  0.1111 -0.5754  0.1692
   23CHL1   H4A 1634   0.227   2.213   6.112  0.9039  1.6938 -0.2874
   23CHL1   H4B 1635   0.055   2.173   6.110 -1.0114  0.5405 -0.1420
   23CHL1    C5 1636   0.149   2.180   5.912 -0.4810  0.1621  0.4705
   23CHL1    C6 1637   0.091   2.069   5.865 -0.3882 -0.3957 -0.0907
   23CHL1    H6 1638   0.027   2.009   5.931  1.2700 -1.0302  0.9451
   23CHL1    C7 1639   0.115   2.002   5.726  0.5611 -0.6388  0.2112
   23CHL1   H7A 1640   0.142   1.897   5.752 -2.6282 -1.6497 -0.2618
   23CHL1   H7B 1641   0.021   2.004   5.666  0.3962 -1.6101  0.4107
   23CHL1    C8 1642   0.223   2.075   5.644 -0.0259  0.2614  0.5535
   23CHL1    H8 1643   0.321   2.045   5.687 -0.9437  2.2039  4.2322
   23CHL1   C14 1644   0.198   2.055   5.491 -1.1677  0.1853 -0.9003
   23CHL1   H14 1645   0.097   2.098   5.475 -1.3848  0.4836  1.0624
   23CHL1   C15 1646   0.186   1.912   5.441 -0.3392  0.2994 -0.7208
   23CHL1  H15A 1647   0.234   1.831   5.499 -0.0411  0.0785 -1.2715
   23CHL1  H15B 1648   0.077   1.887   5.445 -0.5234  1.3435  1.8128
   23CHL1   C16 1649   0.212   1.933   5.287 -0.0592 -0.1611  0.2082
   23CHL1  H16A 1650   0.299   1.869   5.261 -0.0183  0.2187 -0.6342
   23CHL1  H16B 1651   0.124   1.893   5.231 -1.2072  0.2042  1.7405
   23CHL1   C17 1652   0.254   2.072   5.260 -0.2355 -0.0184  0.2817
   23CHL1   H17 1653   0.164   2.133   5.240  0.1432  0.0680 -1.2746
   23CHL1   C13 1654   0.300   2.128   5.402  1.0283 -0.7843  0.1815
   23CHL1   C18 1655   0.437   2.069   5.447 -0.0274 -0.1036  0.3795
   23CHL1  H18A 1656   0.513   2.097   5.370  1.7192 -0.9032  1.7915
   23CHL1  H18B 1657   0.480   2.115   5.538  1.9479 -1.9958  0.4533
   23CHL1  H18C 1658   0.445   1.960   5.463 -2.6987 -0.2357  0.9725
   23CHL1   C12 1659   0.283   2.280   5.430  0.0441 -0.3088  0.3951
   23CHL1  H12A 1660   0.356   2.338   5.369 -1.9171  1.0171 -0.7705
   23CHL1  H12B 1661   0.183   2.306   5.388 -1.2435 -0.8447  3.0398
   23CHL1   C11 1662   0.308   2.319   5.575 -0.0822  0.2782 -0.0022
   23CHL1  H11A 1663   0.416   2.303   5.592 -0.2542 -1.2033 -0.2895
   23CHL1  H11B 1664   0.285   2.428   5.580 -1.0363  0.0747  0.1074
   23CHL1    C9 1665   0.220   2.231   5.674  0.3410  0.3788  0.6653
   23CHL1    H9 1666   0.115   2.253   5.646 -0.1261  0.8653  2.7443
   23CHL1   C10 1667   0.244   2.264   5.824 -0.0466  0.0295  0.0813
   23CHL1   C19 1668   0.386   2.224   5.871  0.2634 -0.2400 -0.1692
   23CHL1  H19A 1669   0.457   2.267   5.798  1.0449  1.8691  1.7569
   23CHL1  H19B 1670   0.407   2.269   5.971 -2.4242 -0.0068  0.3505
   23CHL1  H19C 1671   0.400   2.114   5.873  3.0714  0.0931  0.4183
   23CHL1    C1 1672   0.232   2.415   5.848 -0.2853 -0.6310  0.4091
   23CHL1   H1A 1673   0.325   2.459   5.805 -0.4198  1.4096  2.0965
   23CHL1   H1B 1674   0.144   2.451   5.790 -0.1719  0.7271  1.0672
   23CHL1    C2 1675   0.225   2.461   5.994  0.5606  0.3611  1.0462
   23CHL1   H2A 1676   0.196   2.568   5.997  1.9559  0.7038  2.8044
   23CHL1   H2B 1677   0.322   2.445   6.045  0.1262 -1.8704  1.2132
   23CHL1   C20 1678   0.334   2.098   5.134 -0.4829 -0.1989 -0.5283
   23CHL1   H20 1679   0.436   2.056   5.144 -0.6277 -0.1897  1.1635
   23CHL1   C21 1680   0.343   2.245   5.098  0.3419  0.0595  0.3214
   23CHL1  H21A 1681   0.401   2.296   5.178 -0.1491 -1.7146  1.8390
   23CHL1  H21B 1682   0.242   2.293   5.098  1.0620  1.6554 -1.9118
   23CHL1  H21C 1683   0.381   2.276   4.999  0.3083 -0.3095  0.1957
   23CHL1   C22 1684   0.272   2.013   5.017  0.1512  0.1690  0.1641
   23CHL1  H22A 1685   0.161   2.006   5.018  0.1520 -0.3865 -1.5707
   23CHL1  H22B 1686   0.287   2.078   4.928  0.8716  0.2018  0.3077
   23CHL1   C23 1687   0.348   1.886   4.969 -0.8748 -0.1770 -0.2647
   23CHL1  H23A 1688   0.450   1.909   4.931 -0.4584 -0.8552  0.4213
   23CHL1  H23B 1689   0.357   1.821   5.059  0.4608 -0.4049 -0.5585
   23CHL1   C24 1690   0.264   1.810   4.860 -0.3216  0.1145 -0.4747
   23CHL1  H24A 1691   0.159   1.811   4.896 -0.1346  3.4665  0.1198
   23CHL1  H24B 1692   0.262   1.882   4.775 -0.6453 -1.4135 -1.7923
   23CHL1   C25 1693   0.318   1.676   4.808  0.3159 -0.1154 -0.2447
   23CHL1   H25 1694   0.343   1.626   4.904  1.0687  0.6128 -0.0612
   23CHL1   C26 1695   0.204   1.602   4.733  0.5026  0.8491  0.4424
   23CHL1  H26A 1696   0.177   1.665   4.646  1.6767  0.9969  0.1730
   23CHL1  H26B 1697   0.225   1.497   4.703  0.9929  1.1386 -0.2517
   23CHL1  H26C 1698   0.110   1.596   4.792  1.5101 -3.5469  1.7406
   23CHL1   C27 1699   0.437   1.692   4.710 -0.2350  0.4254  0.5429
   23CHL1  H27A 1700   0.527   1.728   4.764  0.2316  0.5542 -0.3149
   23CHL1  H27B 1701   0.464   1.596   4.663 -1.2192  0.0868  0.6581
   23CHL1  H27C 1702   0.427   1.764   4.625  2.4367  1.6356  1.2166
   24CHL1    C3 1703   1.410   7.204   5.962  0.4315  0.0234 -0.3545
   24CHL1    H3 1704   1.315   7.245   5.920  0.0512 -0.0778  0.4061
   24CHL1    O3 1705   1.431   7.194   6.099  0.8172  0.0553 -0.3389
   24CHL1   H3' 1706   1.519   7.157   6.111  0.7248 -1.0605 -2.8134
   24CHL1    C4 1707   1.400   7.056   5.903 -0.2703  0.1207  0.5525
   24CHL1   H4A 1708   1.486   6.996   5.939 -1.3544 -0.7816  1.6754
   24CHL1   H4B 1709   1.305   7.007   5.935 -1.1447 -0.0384 -2.1475
   24CHL1    C5 1710   1.394   7.049   5.755  0.6433 -0.1871  0.3687
   24CHL1    C6 1711   1.304   6.975   5.692 -0.0112  0.3365 -0.4927
   24CHL1    H6 1712   1.233   6.913   5.749  0.7221  0.1979  0.2660
   24CHL1    C7 1713   1.287   6.952   5.546  0.1410  0.5728 -0.3448
   24CHL1   H7A 1714   1.265   6.846   5.524 -0.6418  0.5054  0.7306
   24CHL1   H7B 1715   1.196   7.013   5.523  0.9671  1.7431 -0.5915
   24CHL1    C8 1716   1.406   7.019   5.474 -0.0427 -0.6263 -0.1351
   24CHL1    H8 1717   1.495   6.952   5.482 -0.6489 -1.3910  0.2601
   24CHL1   C14 1718   1.370   7.039   5.327  0.6135  0.9861  0.3327
   24CHL1   H14 1719   1.285   7.111   5.323 -0.1167  0.0892 -1.0252
   24CHL1   C15 1720   1.325   6.910   5.255 -0.5444 -0.4708 -0.1068
   24CHL1  H15A 1721   1.392   6.826   5.281 -0.6328 -0.1856  1.0908
   24CHL1  H15B 1722   1.222   6.874   5.273 -0.3420 -1.9420 -1.8182
   24CHL1   C16 1723   1.336   6.945   5.103 -0.4448  0.4302 -0.0564
   24CHL1  H16A 1724   1.382   6.863   5.044 -2.0412 -0.9466  0.6016
   24CHL1  H16B 1725   1.232   6.961   5.069 -0.7087 -0.0322  0.5459
   24CHL1   C17 1726   1.421   7.077   5.099 -0.1050  0.1245  0.1160
   24CHL1   H17 1727   1.353   7.163   5.089 -2.2264 -1.3222  1.5494
   24CHL1   C13 1728   1.485   7.094   5.233 -0.5952 -0.3210 -1.1627
   24CHL1   C18 1729   1.614   7.006   5.243 -0.2465  0.9226 -0.4374
   24CHL1  H18A 1730   1.704   7.056   5.202 -1.3209  0.8918 -2.8846
   24CHL1  H18B 1731   1.648   6.987   5.347  1.1742 -2.4711 -1.4498
   24CHL1  H18C 1732   1.589   6.907   5.200  0.5079  0.4659  0.1447
   24CHL1   C12 1733   1.510   7.236   5.285 -0.3191  0.6310  0.0829
   24CHL1  H12A 1734   1.592   7.287   5.231  1.6674 -1.8667  0.6197
   24CHL1  H12B 1735   1.411   7.287   5.279 -0.9052 -0.5549 -0.5260
   24CHL1   C11 1736   1.542   7.243   5.439 -0.7889 -0.3106  0.0864
   24CHL1  H11A 1737   1.648   7.211   5.445 -1.3651 -1.9734  1.9236
   24CHL1  H11B 1738   1.545   7.351   5.465 -0.4769 -0.2377 -0.2504
   24CHL1    C9 1739   1.449   7.154   5.529  0.0270 -0.0652  0.4453
   24CHL1    H9 1740   1.357   7.216   5.527  1.3155  1.8930  0.5161
   24CHL1   C10 1741   1.491   7.146   5.683  0.3996  0.5659 -0.2526
   24CHL1   C19 1742   1.635   7.097   5.686  0.1826  0.5463 -0.2102
   24CHL1  H19A 1743   1.647   7.004   5.627 -0.8897  0.3126 -0.0680
   24CHL1  H19B 1744   1.701   7.171   5.635  2.5204 -0.3200  1.4735
   24CHL1  H19C 1745   1.671   7.076   5.789 -1.5585 -0.6646  0.1734
   24CHL1    C1 1746   1.498   7.288   5.747 -0.0411  0.1669 -0.4981
   24CHL1   H1A 1747   1.580   7.341   5.693  0.4197 -0.2208 -0.1840
   24CHL1   H1B 1748   1.409   7.342   5.707 -0.1551 -1.5198 -2.6669
   24CHL1    C2 1749   1.526   7.286   5.896 -0.2905 -0.1006  0.5241
   24CHL1   H2A 1750   1.529   7.388   5.941  2.2736 -0.2219  0.7045
   24CHL1   H2B 1751   1.624   7.234   5.904  0.9670  1.3461 -3.8003
   24CHL1   C20 1752   1.514   7.082   4.974  0.2971  0.8010  0.2404
   24CHL1   H20 1753   1.588   7.000   4.987 -1.9485 -1.3117  0.0538
   24CHL1   C21 1754   1.589   7.217   4.975 -0.3724 -0.4898  0.0469
   24CHL1  H21A 1755   1.528   7.307   4.993 -2.6733 -1.8159 -0.9300
   24CHL1  H21B 1756   1.633   7.231   4.874 -1.3857  0.8995 -0.1989
   24CHL1  H21C 1757   1.673   7.222   5.049 -0.5691 -0.1065  0.2461
   24CHL1   C22 1758   1.435   7.063   4.843 -0.6631 -0.3234 -0.4487
   24CHL1  H22A 1759   1.335   7.023   4.870 -0.0378 -1.1896  0.6430
   24CHL1  H22B 1760   1.420   7.154   4.781  2.1264 -0.8527 -1.9575
   24CHL1   C23 1761   1.499   6.971   4.737 -0.0968 -0.9555 -0.2503
   24CHL1  H23A 1762   1.595   7.014   4.703 -0.0136 -2.3382 -1.8596
   24CHL1  H23B 1763   1.517   6.877   4.793 -0.7266 -2.1129 -1.9554
   24CHL1   C24 1764   1.410   6.942   4.607  0.1234  0.0416  1.1456
   24CHL1  H24A 1765   1.321   6.891   4.650  2.0392 -3.6395  0.9611
   24CHL1  H24B 1766   1.389   7.041   4.563  1.7175  0.1432  0.5843
   24CHL1   C25 1767   1.473   6.853   4.505  0.5875  0.7289  0.2348
   24CHL1   H25 1768   1.495   6.751   4.543  0.0277 -0.4779 -2.5200
   24CHL1   C26 1769   1.366   6.835   4.395 -0.5310  0.5632 -0.1496
   24CHL1  H26A 1770   1.363   6.931   4.339  0.9002  0.6359 -0.1397
   24CHL1  H26B 1771   1.382   6.742   4.335  0.5768  0.6769 -0.0417
   24CHL1  H26C 1772   1.268   6.813   4.442 -1.3250 -0.3367 -2.1632
   24CHL1   C27 1773   1.595   6.912   4.428 -0.0446 -0.1040 -0.1288
   24CHL1  H27A 1774   1.594   7.023   4.432 -1.7092 -0.0933 -0.3700
   24CHL1  H27B 1775   1.684   6.876   4.483  0.3619 -0.0658 -0.7625
   24CHL1  H27C 1776   1.606   6.874   4.325  0.1353 -1.1607  0.2770
   25CHL1    C3 1777   7.043   1.530   5.931 -0.8016 -0.6645  0.2377
   25CHL1    H3 1778   7.098   1.445   5.977  1.4633  0.6997  0.1661
   25CHL1    O3 1779   6.942   1.565   6.027 -0.3084 -0.1982 -0.3973
   25CHL1   H3' 1780   6.882   1.626   5.982 -1.4203 -1.8546 -1.2145
   25CHL1    C4 1781   7.130   1.649   5.906  0.1052 -0.3799  0.4587
   25CHL1   H4A 1782   7.078   1.730   5.850 -3.0450 -1.4218  1.8150
   25CHL1   H4B 1783   7.174   1.691   5.999 -0.4661  1.0649  0.0932
   25CHL1    C5 1784   7.237   1.605   5.804 -0.4889  0.0479 -0.7941
   25CHL1    C6 1785   7.368   1.614   5.830 -0.3870 -0.0366 -0.4661
   25CHL1    H6 1786   7.410   1.665   5.918 -3.6310 -1.2188  1.8534
   25CHL1    C7 1787   7.469   1.580   5.726 -0.2127 -0.4754  0.6850
   25CHL1   H7A 1788   7.544   1.660   5.712 -0.1187 -0.3017  2.1224
   25CHL1   H7B 1789   7.535   1.499   5.763  1.1853  0.5148  0.3747
   25CHL1    C8 1790   7.416   1.545   5.592  0.2034 -0.5046  0.5226
   25CHL1    H8 1791   7.393   1.645   5.548  1.4447  1.2814  3.8123
   25CHL1   C14 1792   7.511   1.456   5.509  1.4762 -0.4529  0.4316
   25CHL1   H14 1793   7.515   1.358   5.561 -1.0863 -0.3780  0.8640
   25CHL1   C15 1794   7.658   1.494   5.495  0.0531  0.8185  0.5027
   25CHL1  H15A 1795   7.666   1.603   5.476 -0.0497  0.6191 -0.7430
   25CHL1  H15B 1796   7.714   1.472   5.588 -0.4372  0.0625  0.6309
   25CHL1   C16 1797   7.707   1.412   5.378 -0.0528 -0.3252 -0.1390
   25CHL1  H16A 1798   7.764   1.488   5.320  2.7686 -1.5666  0.8986
   25CHL1  H16B 1799   7.778   1.330   5.402 -0.7443 -1.6716 -2.4644
   25CHL1   C17 1800   7.588   1.353   5.301 -0.3874  0.3726  0.6774
   25CHL1   H17 1801   7.580   1.249   5.337  1.9113  0.5316  1.7273
   25CHL1   C13 1802   7.462   1.429   5.362  0.1247  0.5962 -0.3061
   25CHL1   C18 1803   7.447   1.564   5.288  0.5201 -0.2107 -0.0488
   25CHL1  H18A 1804   7.366   1.621   5.337  1.5819 -0.2346  1.7963
   25CHL1  H18B 1805   7.539   1.626   5.280  1.4296 -1.5135  0.1416
   25CHL1  H18C 1806   7.418   1.533   5.186 -2.6625  2.4319 -0.0133
   25CHL1   C12 1807   7.335   1.336   5.370 -0.0121 -0.2857 -0.1745
   25CHL1  H12A 1808   7.296   1.319   5.268  0.3989  0.3120 -0.4368
   25CHL1  H12B 1809   7.371   1.245   5.422  0.0387 -0.7845 -1.0767
   25CHL1   C11 1810   7.229   1.406   5.462 -0.6870 -0.3592 -0.4622
   25CHL1  H11A 1811   7.183   1.490   5.407  0.1121 -0.5053 -1.3712
   25CHL1  H11B 1812   7.153   1.327   5.482 -0.2231 -0.2623  1.8345
   25CHL1    C9 1813   7.289   1.459   5.598 -0.0567 -0.1010 -0.4178
   25CHL1    H9 1814   7.323   1.369   5.654  1.3807 -1.0644 -2.7604
   25CHL1   C10 1815   7.180   1.537   5.682 -0.6697 -1.0107 -0.2169
   25CHL1   C19 1816   7.126   1.647   5.595  0.4729  0.0235 -0.4015
   25CHL1  H19A 1817   7.068   1.725   5.648 -2.0753 -1.4805 -0.9088
   25CHL1  H19B 1818   7.204   1.697   5.535  1.4179  0.9326  1.5309
   25CHL1  H19C 1819   7.055   1.597   5.526  1.2936 -0.7290 -0.7225
   25CHL1    C1 1820   7.073   1.434   5.713 -0.0018 -0.7419 -0.1170
   25CHL1   H1A 1821   7.019   1.394   5.625 -1.4669 -3.0470  1.7394
   25CHL1   H1B 1822   7.118   1.343   5.758  1.9109  1.0696  1.7170
   25CHL1    C2 1823   6.972   1.484   5.806  0.3004  1.1737  0.3941
   25CHL1   H2A 1824   6.906   1.402   5.841  1.6094  0.2730  0.7873
   25CHL1   H2B 1825   6.912   1.564   5.758  1.8146  1.4407 -1.1012
   25CHL1   C20 1826   7.609   1.340   5.150 -0.1908  0.0162  0.0518
   25CHL1   H20 1827   7.635   1.439   5.108  2.0067 -0.7164 -0.4032
   25CHL1   C21 1828   7.480   1.289   5.074  0.6614  0.1938 -0.2913
   25CHL1  H21A 1829   7.457   1.183   5.094 -1.4670  0.4755 -1.1862
   25CHL1  H21B 1830   7.507   1.299   4.966  1.2952 -0.4217 -0.1906
   25CHL1  H21C 1831   7.392   1.355   5.089  1.3341  0.7637  1.3101
   25CHL1   C22 1832   7.725   1.243   5.116  0.4764  0.1314 -0.0378
   25CHL1  H22A 1833   7.818   1.283   5.160 -0.2391  0.0068  1.6018
   25CHL1  H22B 1834   7.707   1.140   5.153 -1.1016 -0.2136 -1.6979
   25CHL1   C23 1835   7.756   1.217   4.966  0.0345  0.1758  0.0486
   25CHL1  H23A 1836   7.664   1.171   4.926 -1.3041  1.0321  2.0572
   25CHL1  H23B 1837   7.769   1.315   4.916 -0.8439  0.7559  0.9543
   25CHL1   C24 1838   7.877   1.121   4.948  0.8716 -0.5408 -1.0325
   25CHL1  H24A 1839   7.970   1.160   4.994  1.6143 -0.3325 -2.7119
   25CHL1  H24B 1840   7.852   1.029   5.005 -1.2169  1.1253  0.8328
   25CHL1   C25 1841   7.910   1.076   4.807 -0.8500 -0.3816 -0.3923
   25CHL1   H25 1842   7.976   0.988   4.823 -1.7129 -0.5281  2.6416
   25CHL1   C26 1843   7.785   1.038   4.723 -0.0075  0.1987 -0.1025
   25CHL1  H26A 1844   7.824   1.001   4.626  0.5127 -0.6712  0.4297
   25CHL1  H26B 1845   7.735   0.951   4.771  1.3031 -0.1964  0.5715
   25CHL1  H26C 1846   7.723   1.129   4.707 -0.4111 -0.2267 -0.9914
   25CHL1   C27 1847   7.992   1.190   4.736 -0.4063  0.3912 -0.5626
   25CHL1  H27A 1848   7.926   1.277   4.716  0.3143  1.1170  0.1959
   25CHL1  H27B 1849   8.065   1.227   4.811 -1.9177 -0.7944  1.5687
   25CHL1  H27C 1850   8.044   1.147   4.648  0.8791  0.2411  0.2675
   26CHL1    C3 1851   2.048   0.081   5.968  0.1897  0.3879 -0.2775
   26CHL1    H3 1852   2.150   0.045   5.941 -0.4033  0.0537 -2.1683
   26CHL1    O3 1853   2.032   0.078   6.106  0.2218  0.1643  0.0535
   26CHL1   H3' 1854   1.940   0.056   6.122 -0.2416  2.4343  0.6355
   26CHL1    C4 1855   2.030   0.223   5.909 -0.4548 -0.2518  0.0817
   26CHL1   H4A 1856   1.924   0.253   5.927 -0.0523  1.2186  0.0334
   26CHL1   H4B 1857   2.099   0.292   5.962  0.8130 -0.8286 -0.7880
   26CHL1    C5 1858   2.066   0.228   5.759  0.6496  0.2697 -0.3999
   26CHL1    C6 1859   2.165   0.294   5.699 -0.5288 -0.5668 -0.3063
   26CHL1    H6 1860   2.218   0.372   5.756  0.2539 -1.2715 -0.0615
   26CHL1    C7 1861   2.204   0.290   5.557  0.2872  0.0745  0.1808
   26CHL1   H7A 1862   2.204   0.395   5.520  1.0524 -0.6781 -2.0420
   26CHL1   H7B 1863   2.306   0.247   5.555  0.9001  1.4776 -3.1245
   26CHL1    C8 1864   2.101   0.217   5.464 -0.1859  0.3808 -0.4449
   26CHL1    H8 1865   2.006   0.272   5.447 -1.5847 -1.2373  1.7575
   26CHL1   C14 1866   2.169   0.184   5.331 -0.1609 -0.5163 -0.2182
   26CHL1   H14 1867   2.255   0.118   5.356 -0.1787  0.4960  2.6348
   26CHL1   C15 1868   2.241   0.297   5.245  0.6106 -0.3791  0.2200
   26CHL1  H15A 1869   2.181   0.390   5.240  0.2349 -0.6693 -0.7093
   26CHL1  H15B 1870   2.342   0.324   5.284  1.0436 -1.1137 -0.4009
   26CHL1   C16 1871   2.248   0.229   5.106 -0.8755  0.1786 -0.3596
   26CHL1  H16A 1872   2.194   0.300   5.040 -1.8372  0.0324  0.2623
   26CHL1  H16B 1873   2.351   0.224   5.065 -0.8564  0.2221 -0.3184
   26CHL1   C17 1874   2.165   0.099   5.112  0.5245 -0.0893 -0.4198
   26CHL1   H17 1875   2.244   0.023   5.132  1.5851  1.4937  1.6108
   26CHL1   C13 1876   2.075   0.116   5.240 -0.2789  0.2250  1.0671
   26CHL1   C18 1877   1.950   0.203   5.206 -0.6108 -0.2617 -0.5175
   26CHL1  H18A 1878   1.882   0.158   5.131 -1.2921  0.2820 -0.2307
   26CHL1  H18B 1879   1.890   0.230   5.296  0.1020  1.1547 -0.4553
   26CHL1  H18C 1880   1.976   0.299   5.157 -1.0895  0.7063  1.0707
   26CHL1   C12 1881   2.035  -0.016   5.304 -0.8532 -0.7406  0.4231
   26CHL1  H12A 1882   1.953  -0.059   5.244 -1.8039  0.4975  0.8147
   26CHL1  H12B 1883   2.118  -0.090   5.301  0.1486  0.2930  1.5399
   26CHL1   C11 1884   1.984  -0.003   5.449  0.4273 -0.1560  0.1256
   26CHL1  H11A 1885   1.881   0.037   5.438  0.1179 -0.8383  0.5050
   26CHL1  H11B 1886   1.982  -0.106   5.490 -1.1175 -0.5475 -0.8841
   26CHL1    C9 1887   2.059   0.093   5.539 -0.1709 -0.0174 -1.0651
   26CHL1    H9 1888   2.160   0.050   5.558  1.0762  2.3492 -2.0065
   26CHL1   C10 1889   1.991   0.118   5.679  0.1123 -0.1639 -0.2206
   26CHL1   C19 1890   1.839   0.171   5.660 -0.3433  0.5902 -0.3365
   26CHL1  H19A 1891   1.775   0.090   5.619 -1.0242  1.6445 -1.4051
   26CHL1  H19B 1892   1.791   0.214   5.751  0.0491  0.7832 -0.2210
   26CHL1  H19C 1893   1.848   0.244   5.576  1.4853 -0.5212 -1.1385
   26CHL1    C1 1894   1.978  -0.020   5.754 -0.3296  0.0705 -0.0703
   26CHL1   H1A 1895   1.887  -0.058   5.702 -0.2640 -0.8874  0.5098
   26CHL1   H1B 1896   2.066  -0.086   5.739 -0.8824 -1.0928  1.6322
   26CHL1    C2 1897   1.942  -0.011   5.901 -0.1288  0.1502 -0.7008
   26CHL1   H2A 1898   1.942  -0.108   5.954  0.4117  0.4704 -0.1063
   26CHL1   H2B 1899   1.843   0.037   5.920  0.7482  1.4452  0.7601
   26CHL1   C20 1900   2.100   0.071   4.966  0.3604 -0.3161 -0.0730
   26CHL1   H20 1901   2.023   0.150   4.958  1.0360  0.1486 -2.5620
   26CHL1   C21 1902   2.033  -0.066   4.974 -0.1299 -0.1177  0.0369
   26CHL1  H21A 1903   2.097  -0.143   5.022  0.8233  0.2175 -0.6802
   26CHL1  H21B 1904   2.018  -0.107   4.871  0.0376 -1.4130  0.5233
   26CHL1  H21C 1905   1.930  -0.062   5.016 -0.2858  1.2778 -0.4539
   26CHL1   C22 1906   2.192   0.091   4.842 -0.1552  0.0724 -0.2986
   26CHL1  H22A 1907   2.249   0.185   4.860 -1.5892  0.9577 -0.2801
   26CHL1  H22B 1908   2.268   0.012   4.823 -2.8784 -2.6958 -0.0455
   26CHL1   C23 1909   2.109   0.108   4.716 -0.0407  0.4121  0.5818
   26CHL1  H23A 1910   2.073   0.005   4.694  1.3270 -0.1218  0.7841
   26CHL1  H23B 1911   2.019   0.174   4.721 -0.1293  0.4797 -1.4651
   26CHL1   C24 1912   2.187   0.140   4.586 -0.1385 -0.1023  0.4207
   26CHL1  H24A 1913   2.246   0.232   4.601  1.4751 -1.3939  2.2866
   26CHL1  H24B 1914   2.259   0.059   4.563 -1.9075 -1.3097 -1.0466
   26CHL1   C25 1915   2.097   0.159   4.459 -0.2287  0.0362 -0.2513
   26CHL1   H25 1916   2.024   0.235   4.494 -0.8983 -1.0121  0.7058
   26CHL1   C26 1917   2.172   0.219   4.336  0.4226 -0.0011  0.4497
   26CHL1  H26A 1918   2.100   0.278   4.275  0.2704 -0.2658  0.3758
   26CHL1  H26B 1919   2.248   0.293   4.368  1.3220 -0.4371 -0.6503
   26CHL1  H26C 1920   2.212   0.141   4.268 -0.6576 -0.4546  0.3371
   26CHL1   C27 1921   2.016   0.029   4.429 -0.3473  0.2434 -0.0057
   26CHL1  H27A 1922   1.957   0.048   4.338 -1.7666  0.1208  0.8723
   26CHL1  H27B 1923   2.083  -0.052   4.394 -0.7302  0.1090 -0.4264
   26CHL1  H27C 1924   1.944  -0.001   4.508 -0.4295  0.1792 -0.1060
   27CHL1    C3 1925   0.996   6.637   5.823  0.3806 -0.1783  0.9802
   27CHL1    H3 1926   1.063   6.725   5.814 -0.0063  0.2503  2.1443
   27CHL1    O3 1927   0.981   6.585   5.952  0.0141 -0.6058 -1.0017
   27CHL1   H3' 1928   0.943   6.498   5.942 -1.0943 -0.1509 -0.7561
   27CHL1    C4 1929   0.854   6.659   5.758  0.3414 -0.5410  0.3295
   27CHL1   H4A 1930   0.799   6.563   5.770  2.8400 -2.1276 -0.5226
   27CHL1   H4B 1931   0.799   6.734   5.820  0.0040 -0.4176 -0.1112
   27CHL1    C5 1932   0.857   6.703   5.612  0.4483 -0.5613  0.9026
   27CHL1    C6 1933   0.814   6.825   5.575 -0.2363 -0.0703 -0.0936
   27CHL1    H6 1934   0.774   6.898   5.647 -0.0158 -0.8616  0.8466
   27CHL1    C7 1935   0.810   6.874   5.437  0.2497  0.2139  0.2165
   27CHL1   H7A 1936   0.710   6.915   5.415  1.1312  1.7773 -1.0002
   27CHL1   H7B 1937   0.880   6.959   5.420 -1.2116  1.5228  0.7303
   27CHL1    C8 1938   0.841   6.772   5.326 -0.2161 -0.3784  0.0202
   27CHL1    H8 1939   0.746   6.716   5.318 -0.6209  0.0437  1.7782
   27CHL1   C14 1940   0.875   6.840   5.187  0.4259 -0.0356 -0.5902
   27CHL1   H14 1941   0.978   6.880   5.202  0.1187 -0.5738  3.7997
   27CHL1   C15 1942   0.797   6.951   5.127 -0.3235 -0.0285 -0.0120
   27CHL1  H15A 1943   0.689   6.927   5.133 -0.2938  0.3140  2.1138
   27CHL1  H15B 1944   0.819   7.051   5.170  2.0119 -0.3507 -0.3843
   27CHL1   C16 1945   0.840   6.951   4.984 -0.2186 -0.3233  0.3128
   27CHL1  H16A 1946   0.751   6.940   4.919  0.5329  1.8414 -1.1232
   27CHL1  H16B 1947   0.886   7.049   4.961  0.7532 -0.8549 -0.0467
   27CHL1   C17 1948   0.939   6.834   4.961  0.1669  0.7215 -0.5980
   27CHL1   H17 1949   1.041   6.861   4.996  0.3339  1.3234 -1.5268
   27CHL1   C13 1950   0.902   6.735   5.078  0.6214 -0.1313 -1.0341
   27CHL1   C18 1951   0.764   6.659   5.045  0.2525 -0.3903  0.0206
   27CHL1  H18A 1952   0.703   6.652   5.138  0.1857  0.7754  0.0715
   27CHL1  H18B 1953   0.723   6.716   4.959  0.0455 -1.5863 -0.6783
   27CHL1  H18C 1954   0.794   6.560   5.006  0.8434  1.1202 -3.5259
   27CHL1   C12 1955   1.008   6.638   5.126  1.2450  0.5231  0.0860
   27CHL1  H12A 1956   1.039   6.563   5.049  0.6712 -0.1297  0.4877
   27CHL1  H12B 1957   1.102   6.695   5.141  1.5554 -0.1362  0.6599
   27CHL1   C11 1958   0.966   6.570   5.257  0.5149 -0.1455  0.2741
   27CHL1  H11A 1959   0.882   6.501   5.235  1.2385 -0.8305 -0.3862
   27CHL1  H11B 1960   1.049   6.502   5.288 -0.5376 -0.8367  1.6510
   27CHL1    C9 1961   0.950   6.669   5.371 -1.0903 -0.3623 -0.0767
   27CHL1    H9 1962   1.050   6.717   5.385 -1.3680  0.6913 -1.5283
   27CHL1   C10 1963   0.918   6.606   5.511 -0.0445  0.0841  0.2451
   27CHL1   C19 1964   0.827   6.483   5.500  1.5684 -0.6058 -0.1793
   27CHL1  H19A 1965   0.726   6.520   5.475  0.7607 -1.9175  1.0606
   27CHL1  H19B 1966   0.866   6.407   5.429  1.3273 -1.4354  0.5701
   27CHL1  H19C 1967   0.815   6.432   5.598 -1.3064  2.0061  0.9183
   27CHL1    C1 1968   1.051   6.568   5.579  0.7107 -0.2884 -0.6088
   27CHL1   H1A 1969   1.088   6.480   5.522  2.0054  0.0298 -0.2726
   27CHL1   H1B 1970   1.120   6.654   5.573  0.3017 -0.0266 -1.5966
   27CHL1    C2 1971   1.053   6.524   5.728  0.1418  0.0330 -0.6771
   27CHL1   H2A 1972   1.160   6.507   5.750 -0.0895 -0.3265  0.1736
   27CHL1   H2B 1973   0.990   6.433   5.718 -0.9374  0.8065 -1.0541
   27CHL1   C20 1974   0.942   6.783   4.819  0.1349  0.1893  0.7784
   27CHL1   H20 1975   0.846   6.732   4.795 -0.6093  1.6137  0.6450
   27CHL1   C21 1976   1.068   6.699   4.795 -0.0116  0.5123  0.6008
   27CHL1  H21A 1977   1.164   6.752   4.812  1.0465 -1.4979  1.1376
   27CHL1  H21B 1978   1.081   6.651   4.696 -1.9316 -1.3214  1.1997
   27CHL1  H21C 1979   1.064   6.612   4.865 -3.2868 -0.6241 -0.8928
   27CHL1   C22 1980   0.943   6.897   4.715 -0.1024 -0.0254  0.1589
   27CHL1  H22A 1981   0.844   6.945   4.735 -0.9602 -1.5119 -0.3928
   27CHL1  H22B 1982   1.031   6.959   4.740  1.3359 -2.0496  0.2230
   27CHL1   C23 1983   0.959   6.848   4.564 -0.4158 -0.4102 -0.9380
   27CHL1  H23A 1984   0.973   6.938   4.499  2.2005 -0.3885 -0.4015
   27CHL1  H23B 1985   1.062   6.808   4.557 -0.1791 -0.8784  3.6252
   27CHL1   C24 1986   0.846   6.765   4.498  0.0372  0.1684 -0.3317
   27CHL1  H24A 1987   0.864   6.664   4.540  0.2260  0.2192 -0.2909
   27CHL1  H24B 1988   0.753   6.804   4.545 -0.5832  0.6047 -1.9037
   27CHL1   C25 1989   0.842   6.768   4.343 -0.5790 -0.0219  0.3851
   27CHL1   H25 1990   0.856   6.875   4.315 -0.2533 -0.8850 -2.9869
   27CHL1   C26 1991   0.959   6.693   4.267  0.2479 -0.4707 -0.2400
   27CHL1  H26A 1992   0.966   6.589   4.304 -0.6564  0.0095  1.3633
   27CHL1  H26B 1993   0.960   6.679   4.157  0.8607  0.1756 -0.3201
   27CHL1  H26C 1994   1.051   6.743   4.305 -0.3213  0.5539 -0.1846
   27CHL1   C27 1995   0.706   6.715   4.284  0.2885  0.0307  0.4143
   27CHL1  H27A 1996   0.709   6.731   4.174  3.1739 -1.1051  0.2675
   27CHL1  H27B 1997   0.707   6.608   4.313  1.9485  0.0277  0.4202
   27CHL1  H27C 1998   0.616   6.767   4.323 -0.0858  0.0912 -0.5275
   28CHL1    C3 1999   0.920   1.113   6.026  0.4619  0.1102 -0.4305
   28CHL1    H3 2000   0.863   1.032   5.977  0.4377 -1.1546  1.6134
   28CHL1    O3 2001   0.955   1.076   6.156  0.5690  0.2166  0.2851
   28CHL1   H3' 2002   1.011   1.147   6.188 -0.1996  1.5697 -1.3031
   28CHL1    C4 2003   1.046   1.158   5.957 -0.2128 -0.3281 -0.0078
   28CHL1   H4A 2004   1.078   1.254   6.004  0.6786 -1.7117  2.2913
   28CHL1   H4B 2005   1.124   1.081   5.970  0.5829 -0.0572 -2.8478
   28CHL1    C5 2006   1.031   1.195   5.814  0.0563 -0.0476 -0.7707
   28CHL1    C6 2007   1.102   1.143   5.708 -0.0805 -0.0941 -0.3622
   28CHL1    H6 2008   1.188   1.077   5.728  0.1786  0.6859  1.1616
   28CHL1    C7 2009   1.074   1.181   5.563  0.3436 -0.3369  0.1993
   28CHL1   H7A 2010   1.159   1.172   5.492  0.5406  0.3772  0.3400
   28CHL1   H7B 2011   1.000   1.104   5.531 -0.8733  0.9742 -0.2164
   28CHL1    C8 2012   0.987   1.307   5.544 -0.1509 -0.2494 -0.5553
   28CHL1    H8 2013   1.048   1.397   5.569 -0.0489 -0.2230 -0.8918
   28CHL1   C14 2014   0.933   1.313   5.401 -0.4326  0.5801 -0.2496
   28CHL1   H14 2015   0.863   1.227   5.400  0.9561 -0.5927  0.3835
   28CHL1   C15 2016   1.035   1.291   5.282 -0.3667  0.4277 -0.1920
   28CHL1  H15A 2017   1.133   1.332   5.315 -1.2885  0.9325  2.0642
   28CHL1  H15B 2018   1.058   1.183   5.271 -1.5911  0.1296  0.0624
   28CHL1   C16 2019   0.973   1.364   5.160  0.1144 -0.2770  0.6712
   28CHL1  H16A 2020   1.044   1.446   5.137  1.9237 -1.4242  2.1126
   28CHL1  H16B 2021   0.965   1.288   5.079 -1.1133  0.9117 -0.3626
   28CHL1   C17 2022   0.834   1.424   5.207 -0.6742  0.5336 -0.3258
   28CHL1   H17 2023   0.764   1.337   5.211  0.2554 -0.2262 -0.5326
   28CHL1   C13 2024   0.858   1.437   5.365 -0.0068  0.9612  0.1658
   28CHL1   C18 2025   0.948   1.562   5.392  0.0382  0.1400 -0.0359
   28CHL1  H18A 2026   0.899   1.652   5.349  1.4496 -0.5675 -3.1980
   28CHL1  H18B 2027   0.963   1.580   5.501 -1.7507  1.2179  0.0616
   28CHL1  H18C 2028   1.048   1.556   5.344  1.1543 -1.2545  2.3682
   28CHL1   C12 2029   0.730   1.441   5.458 -1.1769  0.4025 -0.6529
   28CHL1  H12A 2030   0.671   1.535   5.450 -2.9961 -0.7644 -1.2745
   28CHL1  H12B 2031   0.672   1.353   5.421  3.4138 -2.1678 -2.1044
   28CHL1   C11 2032   0.768   1.423   5.607 -0.4016  0.0716 -0.9158
   28CHL1  H11A 2033   0.817   1.517   5.642  2.8293 -2.0678  0.5713
   28CHL1  H11B 2034   0.675   1.401   5.663  0.7972 -0.0972  1.0540
   28CHL1    C9 2035   0.873   1.305   5.646 -0.0332 -0.6581  0.6194
   28CHL1    H9 2036   0.823   1.209   5.622 -1.5487  0.5396 -1.1752
   28CHL1   C10 2037   0.910   1.294   5.792  0.4056 -0.8702 -0.2620
   28CHL1   C19 2038   0.967   1.434   5.843 -1.3812 -0.2500 -0.4187
   28CHL1  H19A 2039   0.888   1.512   5.840 -0.3027  1.0749  3.0678
   28CHL1  H19B 2040   1.009   1.427   5.946 -1.7181 -0.5865 -0.3015
   28CHL1  H19C 2041   1.040   1.471   5.768 -0.0564 -0.7399  0.6136
   28CHL1    C1 2042   0.789   1.258   5.877  0.4436  0.4811 -0.4956
   28CHL1   H1A 2043   0.719   1.343   5.861 -2.3711 -1.8052 -0.7683
   28CHL1   H1B 2044   0.747   1.164   5.835  1.3165 -0.8539  1.5732
   28CHL1    C2 2045   0.819   1.231   6.024  0.0565 -0.1250  0.1746
   28CHL1   H2A 2046   0.731   1.190   6.078  0.1265  0.1883  0.5301
   28CHL1   H2B 2047   0.844   1.326   6.076  2.4404 -0.2937 -0.6046
   28CHL1   C20 2048   0.771   1.539   5.129 -0.4902  0.1720 -0.4595
   28CHL1   H20 2049   0.716   1.604   5.200  1.8603  1.2981  0.3847
   28CHL1   C21 2050   0.664   1.488   5.020  0.2994  0.1218 -0.0348
   28CHL1  H21A 2051   0.606   1.579   4.994  1.0164  1.6420  3.3832
   28CHL1  H21B 2052   0.594   1.412   5.061 -0.8559 -0.2146 -2.5175
   28CHL1  H21C 2053   0.725   1.457   4.933  1.8892  1.9657  0.3704
   28CHL1   C22 2054   0.871   1.634   5.062  0.3179 -0.3988 -0.3549
   28CHL1  H22A 2055   0.972   1.637   5.109 -0.5775 -1.0526  1.6702
   28CHL1  H22B 2056   0.892   1.598   4.959  1.3450  2.1370 -1.0759
   28CHL1   C23 2057   0.819   1.777   5.060  0.2061  0.6124  0.6913
   28CHL1  H23A 2058   0.727   1.792   5.000 -0.0319 -0.4809  0.7611
   28CHL1  H23B 2059   0.820   1.824   5.161  0.5697 -3.1376  2.5503
   28CHL1   C24 2060   0.923   1.858   4.979  0.2771  0.0469 -0.1857
   28CHL1  H24A 2061   1.017   1.854   5.038 -1.5913 -1.4222  2.7833
   28CHL1  H24B 2062   0.941   1.807   4.882  3.2155 -0.3000  0.4943
   28CHL1   C25 2063   0.896   2.007   4.947 -0.2934  0.0934 -0.0854
   28CHL1   H25 2064   0.991   2.043   4.901 -0.1493  0.1368  0.2467
   28CHL1   C26 2065   0.781   2.013   4.844 -0.0122  0.1425 -1.0175
   28CHL1  H26A 2066   0.793   2.112   4.795 -2.0511  1.1610  0.4693
   28CHL1  H26B 2067   0.793   1.925   4.777  2.5763 -0.5866  0.3049
   28CHL1  H26C 2068   0.682   2.015   4.893  0.2254 -0.3025 -0.5177
   28CHL1   C27 2069   0.867   2.102   5.073  0.1752  0.5723  0.7324
   28CHL1  H27A 2070   0.816   2.195   5.040 -0.2238  0.5177  1.1881
   28CHL1  H27B 2071   0.796   2.046   5.138  0.1134 -1.1752 -0.8017
   28CHL1  H27C 2072   0.965   2.120   5.121  1.4867 -1.4336 -1.1091
   29CHL1    C3 2073   3.519   3.251   2.566  0.9945  0.4186 -1.1837
   29CHL1    H3 2074   3.513   3.357   2.596  1.6645  0.0912  0.1694
   29CHL1    O3 2075   3.518   3.243   2.428 -0.1604 -0.6990  0.2591
   29CHL1   H3' 2076   3.499   3.154   2.398  2.7346 -1.3590  0.1722
   29CHL1    C4 2077   3.655   3.201   2.621  0.2248 -0.0357 -0.3100
   29CHL1   H4A 2078   3.658   3.090   2.613 -1.5101 -0.3752  2.6828
   29CHL1   H4B 2079   3.735   3.243   2.557 -0.0929  0.1812 -0.5656
   29CHL1    C5 2080   3.674   3.228   2.771  0.2819 -0.1231  0.3929
   29CHL1    C6 2081   3.780   3.300   2.813  1.1565 -0.0816  0.7473
   29CHL1    H6 2082   3.852   3.336   2.738  1.4492  0.8721  1.4761
   29CHL1    C7 2083   3.807   3.334   2.959 -0.1760  0.3198  0.5116
   29CHL1   H7A 2084   3.913   3.309   2.982  0.8459  2.8012 -1.2468
   29CHL1   H7B 2085   3.792   3.441   2.986  0.8209 -0.0531  2.6504
   29CHL1    C8 2086   3.709   3.261   3.052 -0.1648  0.3789  0.8728
   29CHL1    H8 2087   3.747   3.157   3.053 -0.6165  0.1900 -0.5713
   29CHL1   C14 2088   3.703   3.326   3.188 -0.3147  1.1017  0.1667
   29CHL1   H14 2089   3.653   3.425   3.178 -0.6862  1.2318  3.0009
   29CHL1   C15 2090   3.837   3.367   3.258  0.0506 -0.4189  0.0497
   29CHL1  H15A 2091   3.909   3.282   3.259 -1.0581 -1.3888 -1.3126
   29CHL1  H15B 2092   3.888   3.456   3.215 -1.3467  0.8421  0.9446
   29CHL1   C16 2093   3.798   3.398   3.409 -0.9477  0.5781 -0.0962
   29CHL1  H16A 2094   3.870   3.331   3.460 -1.7329  1.0536  1.6462
   29CHL1  H16B 2095   3.796   3.507   3.430 -0.9020  0.4787  0.4087
   29CHL1   C17 2096   3.655   3.339   3.420  1.0146  0.0665  0.4972
   29CHL1   H17 2097   3.593   3.427   3.393 -0.6163 -1.2229 -0.0610
   29CHL1   C13 2098   3.625   3.250   3.293 -0.5622  0.6922 -0.6207
   29CHL1   C18 2099   3.685   3.112   3.319  0.4216  0.0145 -0.7682
   29CHL1  H18A 2100   3.682   3.058   3.222  0.8087 -1.9858  0.3255
   29CHL1  H18B 2101   3.789   3.110   3.358  0.1257 -1.8690 -0.0310
   29CHL1  H18C 2102   3.638   3.040   3.389  1.4442  0.9715  0.9371
   29CHL1   C12 2103   3.481   3.243   3.240  0.4120 -0.0705 -0.0011
   29CHL1  H12A 2104   3.414   3.175   3.297  2.5086  0.3467  3.1100
   29CHL1  H12B 2105   3.430   3.341   3.251  0.1417 -0.1969 -0.1513
   29CHL1   C11 2106   3.469   3.186   3.099 -0.1810  0.1792 -0.0341
   29CHL1  H11A 2107   3.478   3.077   3.117  2.8871  0.2545 -0.9528
   29CHL1  H11B 2108   3.366   3.198   3.059  0.3372  0.3462 -1.3208
   29CHL1    C9 2109   3.562   3.245   2.995  0.0232  0.0581  0.6163
   29CHL1    H9 2110   3.536   3.352   2.979 -1.1828 -0.3558 -0.1865
   29CHL1   C10 2111   3.558   3.173   2.854 -0.4573 -0.0525 -0.1129
   29CHL1   C19 2112   3.571   3.026   2.871 -0.0281  0.0715 -0.3311
   29CHL1  H19A 2113   3.651   3.003   2.944 -0.8683  0.9679  0.9044
   29CHL1  H19B 2114   3.482   2.976   2.915 -0.4865  1.6622  0.6110
   29CHL1  H19C 2115   3.594   2.973   2.777 -1.3179 -0.7862 -0.1847
   29CHL1    C1 2116   3.425   3.206   2.790  0.7349  0.4099  0.0716
   29CHL1   H1A 2117   3.349   3.151   2.849  0.3353  1.0043  0.1274
   29CHL1   H1B 2118   3.398   3.314   2.801  0.1345  0.2466  0.1794
   29CHL1    C2 2119   3.407   3.175   2.632 -0.5718 -0.2667  0.9441
   29CHL1   H2A 2120   3.305   3.212   2.612 -0.2476 -1.0940 -2.4188
   29CHL1   H2B 2121   3.408   3.066   2.612  1.3070  0.2229 -1.9587
   29CHL1   C20 2122   3.629   3.276   3.556  0.2256 -0.1011 -0.1709
   29CHL1   H20 2123   3.700   3.196   3.586 -0.9373 -0.8524  0.6260
   29CHL1   C21 2124   3.481   3.221   3.559  0.4002  0.3259 -0.7823
   29CHL1  H21A 2125   3.460   3.203   3.666  0.0789  0.2262 -0.8620
   29CHL1  H21B 2126   3.476   3.124   3.504 -1.4677  1.3107 -2.3961
   29CHL1  H21C 2127   3.408   3.294   3.519  0.2635  1.2483  1.1177
   29CHL1   C22 2128   3.653   3.390   3.667 -0.4186 -0.3111 -0.1447
   29CHL1  H22A 2129   3.756   3.430   3.669 -0.2114 -0.8617  0.8541
   29CHL1  H22B 2130   3.593   3.480   3.644 -1.6783 -0.9834  0.4251
   29CHL1   C23 2131   3.634   3.345   3.810  0.4881  0.2672  0.1148
   29CHL1  H23A 2132   3.547   3.281   3.835  1.4419 -0.3567  1.9040
   29CHL1  H23B 2133   3.724   3.288   3.840 -0.9360 -0.9056  2.2423
   29CHL1   C24 2134   3.634   3.467   3.904 -0.4525  0.0746  0.0219
   29CHL1  H24A 2135   3.731   3.519   3.887 -0.8916  0.6362 -0.7559
   29CHL1  H24B 2136   3.554   3.534   3.866 -0.7442 -0.0953  0.3427
   29CHL1   C25 2137   3.624   3.439   4.054 -0.6471  0.4729 -0.3349
   29CHL1   H25 2138   3.522   3.403   4.077 -0.3048  0.4231  1.1345
   29CHL1   C26 2139   3.717   3.332   4.107 -0.0900 -0.7473  0.2051
   29CHL1  H26A 2140   3.715   3.234   4.054 -1.2385  0.1293 -1.4010
   29CHL1  H26B 2141   3.823   3.364   4.118 -0.1551  0.3333 -2.1766
   29CHL1  H26C 2142   3.685   3.310   4.212  0.2852  2.4875  1.0314
   29CHL1   C27 2143   3.643   3.577   4.135 -0.4020 -0.5757  0.2453
   29CHL1  H27A 2144   3.555   3.643   4.119 -2.2555 -3.1777 -0.6200
   29CHL1  H27B 2145   3.648   3.551   4.242  1.0196  2.1644  0.9074
   29CHL1  H27C 2146   3.742   3.618   4.105 -0.4553 -0.6805 -0.0829
   30CHL1    C3 2147   4.268   4.849   2.619 -0.1644  0.1200  0.4007
   30CHL1    H3 2148   4.225   4.747   2.628  0.2301 -0.0476  0.3760
   30CHL1    O3 2149   4.254   4.901   2.491  0.2491  0.2268 -0.6266
   30CHL1   H3' 2150   4.168   4.876   2.456  0.2515 -1.5488  0.5809
   30CHL1    C4 2151   4.182   4.930   2.714 -0.5754 -0.5589 -0.4589
   30CHL1   H4A 2152   4.197   5.036   2.686 -0.5147 -0.4441 -0.0049
   30CHL1   H4B 2153   4.078   4.903   2.688 -0.6380  0.2792 -1.0738
   30CHL1    C5 2154   4.203   4.921   2.865  0.1840  0.8331  0.1018
   30CHL1    C6 2155   4.092   4.889   2.942  0.2165 -0.6639 -0.3200
   30CHL1    H6 2156   3.992   4.875   2.898 -0.0618 -0.6545  0.3093
   30CHL1    C7 2157   4.110   4.875   3.091 -0.1636 -0.2702  0.1007
   30CHL1   H7A 2158   4.037   4.938   3.145  1.0610  2.3327 -1.1707
   30CHL1   H7B 2159   4.100   4.766   3.110  1.7363 -0.3107  1.0370
   30CHL1    C8 2160   4.254   4.917   3.148 -0.4966  0.3037 -0.0678
   30CHL1    H8 2161   4.270   5.026   3.154 -1.2171  0.2934  2.6814
   30CHL1   C14 2162   4.280   4.857   3.287 -0.5765 -0.4065  0.7062
   30CHL1   H14 2163   4.289   4.748   3.268 -2.7733 -0.6704  1.0122
   30CHL1   C15 2164   4.170   4.867   3.393  0.7221 -1.2205  0.4467
   30CHL1  H15A 2165   4.134   4.972   3.400  1.5411 -0.8460 -0.6999
   30CHL1  H15B 2166   4.084   4.802   3.367  0.8010 -1.4394  0.7368
   30CHL1   C16 2167   4.238   4.808   3.519  0.1578  0.0829  0.4924
   30CHL1  H16A 2168   4.219   4.876   3.605  3.1080 -0.4713  1.6197
   30CHL1  H16B 2169   4.193   4.712   3.552 -1.7980  0.8529  0.1566
   30CHL1   C17 2170   4.391   4.807   3.487 -0.0039 -0.3024 -0.3560
   30CHL1   H17 2171   4.422   4.705   3.454 -2.2744 -0.7331 -1.2580
   30CHL1   C13 2172   4.410   4.893   3.359  0.9637 -0.3657 -0.5289
   30CHL1   C18 2173   4.410   5.040   3.406 -0.1433 -0.9507 -0.6216
   30CHL1  H18A 2174   4.501   5.063   3.466 -0.6905  1.2025 -0.5504
   30CHL1  H18B 2175   4.416   5.111   3.320  1.1324 -0.2673  0.0264
   30CHL1  H18C 2176   4.326   5.071   3.472 -0.3840 -1.6048 -0.6230
   30CHL1   C12 2177   4.527   4.847   3.256 -0.1034 -0.3851  0.1329
   30CHL1  H12A 2178   4.619   4.898   3.293 -0.8096  1.2257 -0.2815
   30CHL1  H12B 2179   4.539   4.737   3.244  0.8813 -0.2308 -0.3044
   30CHL1   C11 2180   4.506   4.898   3.118  0.0392 -0.7782  0.0786
   30CHL1  H11A 2181   4.526   5.007   3.117  2.2514 -1.1304 -2.6071
   30CHL1  H11B 2182   4.575   4.843   3.049  0.7640 -1.4896  1.3515
   30CHL1    C9 2183   4.364   4.867   3.057 -0.0689 -0.3619  0.1968
   30CHL1    H9 2184   4.358   4.757   3.045 -0.8704 -0.1279 -1.7190
   30CHL1   C10 2185   4.350   4.923   2.910  0.8472  0.0528  0.1235
   30CHL1   C19 2186   4.393   5.072   2.899  0.7156  0.5338 -0.1633
   30CHL1  H19A 2187   4.350   5.127   2.985 -0.7969 -0.5323 -0.2282
   30CHL1  H19B 2188   4.505   5.072   2.897  0.7676  0.8842  1.6536
   30CHL1  H19C 2189   4.364   5.121   2.803 -0.7985  0.4353  0.2379
   30CHL1    C1 2190   4.433   4.830   2.821  0.2777 -0.7526  0.2816
   30CHL1   H1A 2191   4.536   4.830   2.862  0.3033 -1.2719  0.2118
   30CHL1   H1B 2192   4.402   4.725   2.839 -0.0843 -0.8887 -1.0335
   30CHL1    C2 2193   4.416   4.864   2.672 -0.2637  0.5330 -0.9115
   30CHL1   H2A 2194   4.493   4.798   2.626  0.2519 -0.9284  1.9075
   30CHL1   H2B 2195   4.449   4.968   2.655  0.3719  0.4289 -0.3438
   30CHL1   C20 2196   4.479   4.824   3.609 -0.1764  0.2122 -0.7989
   30CHL1   H20 2197   4.448   4.916   3.663  0.4027 -1.4939  2.5654
   30CHL1   C21 2198   4.625   4.833   3.569 -0.3614 -0.3562 -0.5586
   30CHL1  H21A 2199   4.646   4.762   3.487  0.7760 -2.4308  1.4411
   30CHL1  H21B 2200   4.690   4.800   3.653 -0.4688  0.8224  0.0018
   30CHL1  H21C 2201   4.657   4.933   3.534 -3.1815  1.2464  1.2649
   30CHL1   C22 2202   4.447   4.715   3.718 -0.0303  1.1703 -0.0095
   30CHL1  H22A 2203   4.337   4.716   3.735  0.0876  0.7657  0.7912
   30CHL1  H22B 2204   4.467   4.619   3.666  1.2985  0.8003  1.1411
   30CHL1   C23 2205   4.524   4.733   3.852  0.3719 -0.3770 -0.5685
   30CHL1  H23A 2206   4.631   4.706   3.843  0.2661 -0.9700 -0.0408
   30CHL1  H23B 2207   4.507   4.837   3.888 -0.1142 -0.2486 -1.1509
   30CHL1   C24 2208   4.468   4.641   3.958 -0.1065 -0.2210 -0.6464
   30CHL1  H24A 2209   4.358   4.658   3.965 -0.5867 -2.7132 -1.7806
   30CHL1  H24B 2210   4.477   4.536   3.924  1.6388 -0.3048  0.0061
   30CHL1   C25 2211   4.541   4.656   4.095 -0.0105  1.0256 -0.4096
   30CHL1   H25 2212   4.560   4.765   4.102  0.7290  0.8885 -0.1895
   30CHL1   C26 2213   4.449   4.591   4.208  0.3162 -0.2412  1.1490
   30CHL1  H26A 2214   4.467   4.643   4.304  2.2700 -0.0113  0.6826
   30CHL1  H26B 2215   4.343   4.613   4.188 -0.0379 -1.1953  1.9204
   30CHL1  H26C 2216   4.460   4.481   4.200 -2.5899 -0.5240  0.4058
   30CHL1   C27 2217   4.681   4.582   4.094  0.2130 -0.5029 -0.1505
   30CHL1  H27A 2218   4.743   4.647   4.028 -0.3127  0.3901  0.2284
   30CHL1  H27B 2219   4.725   4.599   4.195 -0.6241  1.0200 -0.0299
   30CHL1  H27C 2220   4.675   4.474   4.069  0.1662 -0.6870  0.6449
   31CHL1    C3 2221   3.205   4.541   2.624  0.4311 -0.1715 -0.2343
   31CHL1    H3 2222   3.162   4.452   2.676 -1.3788  1.5426  1.2650
   31CHL1    O3 2223   3.153   4.547   2.493  0.4338  1.0000  0.2566
   31CHL1   H3' 2224   3.185   4.632   2.460  1.1871  1.0917  1.1962
   31CHL1    C4 2225   3.178   4.671   2.712 -0.8318 -0.9790  0.6538
   31CHL1   H4A 2226   3.195   4.752   2.638 -2.4822  0.3340  1.6969
   31CHL1   H4B 2227   3.071   4.674   2.740 -0.5156  0.6748  1.7755
   31CHL1    C5 2228   3.266   4.676   2.839 -0.1205 -0.5283  0.4333
   31CHL1    C6 2229   3.199   4.713   2.955 -0.4915 -0.5234  0.0730
   31CHL1    H6 2230   3.095   4.748   2.946 -0.4444 -0.9574 -2.5930
   31CHL1    C7 2231   3.257   4.707   3.094 -0.1554  0.8338  0.1327
   31CHL1   H7A 2232   3.207   4.788   3.153  1.3602  0.6575  1.6989
   31CHL1   H7B 2233   3.240   4.605   3.135  0.8194  0.7345  0.3059
   31CHL1    C8 2234   3.418   4.709   3.075  0.3186 -0.1644  0.0644
   31CHL1    H8 2235   3.439   4.814   3.045 -2.7453  0.5733  0.3183
   31CHL1   C14 2236   3.473   4.691   3.220  0.6719 -0.2136 -0.1250
   31CHL1   H14 2237   3.434   4.591   3.250  0.1060 -0.1819 -0.7470
   31CHL1   C15 2238   3.432   4.789   3.327  0.3665 -0.3162 -0.2062
   31CHL1  H15A 2239   3.445   4.895   3.295 -1.6798  1.1007  3.3486
   31CHL1  H15B 2240   3.325   4.773   3.350 -0.4572  3.4601 -1.0697
   31CHL1   C16 2241   3.540   4.771   3.437  0.0216 -0.0878 -0.7285
   31CHL1  H16A 2242   3.581   4.871   3.463  0.1373 -0.7548  1.7018
   31CHL1  H16B 2243   3.478   4.738   3.523  0.6385  0.0298 -0.2362
   31CHL1   C17 2244   3.634   4.658   3.389  0.1171 -0.4093 -0.4778
   31CHL1   H17 2245   3.588   4.559   3.413 -2.0207  0.1754 -2.0657
   31CHL1   C13 2246   3.629   4.675   3.237 -0.2435  0.0695 -0.1688
   31CHL1   C18 2247   3.689   4.812   3.199 -0.4337 -0.4659  0.4325
   31CHL1  H18A 2248   3.700   4.826   3.089  3.1540 -0.3783  0.7630
   31CHL1  H18B 2249   3.630   4.898   3.238 -1.4461 -1.0808  0.2778
   31CHL1  H18C 2250   3.790   4.813   3.244  0.5229  0.2115 -1.6627
   31CHL1   C12 2251   3.664   4.556   3.147 -0.8884 -0.0960 -0.2448
   31CHL1  H12A 2252   3.774   4.541   3.154 -0.9382  0.0896  1.2197
   31CHL1  H12B 2253   3.613   4.467   3.190  0.2007 -1.8132 -2.4353
   31CHL1   C11 2254   3.618   4.569   2.997  0.5638 -0.4767  0.6624
   31CHL1  H11A 2255   3.669   4.654   2.946 -0.5591 -1.2493 -1.8644
   31CHL1  H11B 2256   3.639   4.473   2.944 -1.2306 -1.2238  1.2985
   31CHL1    C9 2257   3.464   4.598   2.981 -0.0046 -0.2865 -0.3649
   31CHL1    H9 2258   3.420   4.505   3.023 -2.6521  1.1675  0.1796
   31CHL1   C10 2259   3.412   4.624   2.834  0.3426 -0.6472 -0.1915
   31CHL1   C19 2260   3.501   4.740   2.782  0.4437  0.3266 -0.0078
   31CHL1  H19A 2261   3.452   4.780   2.691  0.2313 -1.2086 -0.5862
   31CHL1  H19B 2262   3.506   4.824   2.854 -3.7089  0.8264 -0.1877
   31CHL1  H19C 2263   3.604   4.708   2.754  0.3565  1.0484 -1.1879
   31CHL1    C1 2264   3.422   4.501   2.737  0.2522  0.0932 -0.5564
   31CHL1   H1A 2265   3.531   4.486   2.721  0.3825  0.2550  0.1786
   31CHL1   H1B 2266   3.380   4.419   2.799  0.2341  0.0358 -0.6447
   31CHL1    C2 2267   3.354   4.522   2.603  0.5221 -0.0516  0.5646
   31CHL1   H2A 2268   3.364   4.429   2.543  1.9342 -0.1687  0.9433
   31CHL1   H2B 2269   3.404   4.604   2.548  0.1968  0.9522  1.7583
   31CHL1   C20 2270   3.773   4.648   3.460  0.5037  0.2383 -0.2929
   31CHL1   H20 2271   3.831   4.741   3.443 -0.9285  1.6189  2.0040
   31CHL1   C21 2272   3.858   4.527   3.417 -0.1223 -0.5855 -0.4972
   31CHL1  H21A 2273   3.785   4.446   3.397 -0.0224 -0.7412 -0.2336
   31CHL1  H21B 2274   3.919   4.481   3.498  1.4272  1.9494 -0.1499
   31CHL1  H21C 2275   3.916   4.554   3.326  2.7560  0.7576  1.6402
   31CHL1   C22 2276   3.758   4.647   3.615  0.5839 -0.0670 -0.6680
   31CHL1  H22A 2277   3.684   4.722   3.650 -1.2252 -0.8014 -2.8498
   31CHL1  H22B 2278   3.717   4.549   3.646 -0.8018 -0.0050 -2.2454
   31CHL1   C23 2279   3.889   4.669   3.696  0.5359 -0.4322 -0.7808
   31CHL1  H23A 2280   3.969   4.596   3.671  1.1214  0.1609 -0.6568
   31CHL1  H23B 2281   3.926   4.771   3.672  0.2652 -0.3693 -0.9341
   31CHL1   C24 2282   3.855   4.673   3.849  0.0640  0.3190  0.0262
   31CHL1  H24A 2283   3.789   4.760   3.867 -0.8827 -0.4212  0.1277
   31CHL1  H24B 2284   3.808   4.576   3.872  2.3717 -0.5689  1.0915
   31CHL1   C25 2285   3.981   4.699   3.931  0.0742  0.6363  0.4016
   31CHL1   H25 2286   4.056   4.620   3.908  1.1001  2.0079 -1.1064
   31CHL1   C26 2287   4.053   4.827   3.898  0.1184 -0.1094  0.4191
   31CHL1  H26A 2288   4.105   4.866   3.988  0.4963 -0.4318  0.3402
   31CHL1  H26B 2289   4.115   4.809   3.807 -0.2423  1.3176 -0.1347
   31CHL1  H26C 2290   3.976   4.906   3.881  0.2178 -0.5282 -2.1760
   31CHL1   C27 2291   3.949   4.672   4.082  0.7666 -0.9474  0.0068
   31CHL1  H27A 2292   4.044   4.690   4.137  0.0962 -1.1672  1.2627
   31CHL1  H27B 2293   3.864   4.737   4.111  0.7530 -1.1312  0.3859
   31CHL1  H27C 2294   3.911   4.570   4.105  0.0484 -0.5569  0.5730
   32CHL1    C3 2295   3.323   2.365   2.608 -0.3242  0.0706 -0.1892
   32CHL1    H3 2296   3.213   2.369   2.596 -0.4955 -2.6769  0.1585
   32CHL1    O3 2297   3.364   2.304   2.490 -0.1247  0.7284  0.2302
   32CHL1   H3' 2298   3.458   2.297   2.509 -0.3947  0.5049  1.5337
   32CHL1    C4 2299   3.392   2.499   2.616 -0.3129 -0.1557 -0.4103
   32CHL1   H4A 2300   3.502   2.488   2.602 -0.3744 -1.5493  0.1079
   32CHL1   H4B 2301   3.359   2.565   2.533 -2.6666 -0.2759  0.3982
   32CHL1    C5 2302   3.358   2.562   2.746 -0.8106  0.1863  0.1013
   32CHL1    C6 2303   3.289   2.682   2.755  0.0562  0.3093  0.1217
   32CHL1    H6 2304   3.264   2.726   2.657  0.1610 -0.0046 -0.0495
   32CHL1    C7 2305   3.239   2.746   2.881 -0.0634  0.3861  0.2773
   32CHL1   H7A 2306   3.260   2.855   2.878 -0.9481  0.5695  0.6217
   32CHL1   H7B 2307   3.129   2.733   2.886  0.1322 -0.4066  3.4527
   32CHL1    C8 2308   3.314   2.691   3.007 -0.2405 -0.9319 -0.1725
   32CHL1    H8 2309   3.420   2.724   3.016 -1.0408  1.0662  2.7384
   32CHL1   C14 2310   3.242   2.736   3.130  0.7849 -0.6100 -0.0386
   32CHL1   H14 2311   3.141   2.693   3.115  0.0659  0.7281  0.9049
   32CHL1   C15 2312   3.212   2.892   3.151  0.6689 -0.2979  0.0806
   32CHL1  H15A 2313   3.314   2.937   3.148  0.4418  0.3282  1.6746
   32CHL1  H15B 2314   3.143   2.927   3.071  1.0130 -1.9824 -0.9653
   32CHL1   C16 2315   3.160   2.892   3.297  0.9697  0.0733  0.1203
   32CHL1  H16A 2316   3.205   2.982   3.345  0.3143  0.6277 -0.2948
   32CHL1  H16B 2317   3.050   2.898   3.283  0.9917  1.1517  0.3270
   32CHL1   C17 2318   3.201   2.760   3.365 -0.1210  0.6541 -0.1053
   32CHL1   H17 2319   3.114   2.690   3.360 -1.2645  1.7301  3.2754
   32CHL1   C13 2320   3.297   2.686   3.265 -0.6818  0.0894 -0.1271
   32CHL1   C18 2321   3.445   2.737   3.282  1.0011  0.4761 -0.5661
   32CHL1  H18A 2322   3.513   2.694   3.206 -0.7267  1.3836 -2.6893
   32CHL1  H18B 2323   3.448   2.848   3.281 -1.3494  0.5870 -0.0233
   32CHL1  H18C 2324   3.489   2.700   3.377  0.0376 -0.4955 -0.4905
   32CHL1   C12 2325   3.286   2.535   3.258  0.1806 -0.2061 -0.0683
   32CHL1  H12A 2326   3.335   2.489   3.346  1.2099  1.4813  0.2596
   32CHL1  H12B 2327   3.181   2.501   3.251  0.0678  0.0579  0.3355
   32CHL1   C11 2328   3.352   2.465   3.136 -0.7544  0.3573  0.3863
   32CHL1  H11A 2329   3.461   2.478   3.151 -0.7910  2.6078 -1.0523
   32CHL1  H11B 2330   3.322   2.358   3.134  1.4318 -0.3034  1.3896
   32CHL1    C9 2331   3.313   2.537   3.005  0.7291  0.1882  0.0909
   32CHL1    H9 2332   3.206   2.513   2.988  1.2284 -0.8013 -1.9005
   32CHL1   C10 2333   3.386   2.482   2.874 -0.6179  0.8793 -0.2965
   32CHL1   C19 2334   3.540   2.490   2.896 -0.6465  0.0018  0.1640
   32CHL1  H19A 2335   3.598   2.445   2.812  2.0607  1.3840  1.2445
   32CHL1  H19B 2336   3.574   2.595   2.895 -0.4058 -0.0797 -1.2503
   32CHL1  H19C 2337   3.577   2.442   2.989  0.8716 -2.0812 -1.4590
   32CHL1    C1 2338   3.330   2.332   2.858 -0.1257  0.1552  0.0332
   32CHL1   H1A 2339   3.377   2.277   2.942 -2.3077 -1.8335 -0.0054
   32CHL1   H1B 2340   3.220   2.333   2.872 -0.1545  2.5435 -0.0314
   32CHL1    C2 2341   3.358   2.273   2.722  0.6314  0.3534  0.3434
   32CHL1   H2A 2342   3.305   2.176   2.716 -0.4605  0.9302  0.4988
   32CHL1   H2B 2343   3.467   2.251   2.723  0.9068  1.5948  3.3258
   32CHL1   C20 2344   3.255   2.757   3.513 -0.0994  0.3250  0.3938
   32CHL1   H20 2345   3.325   2.671   3.519 -0.3858 -0.0331 -1.1170
   32CHL1   C21 2346   3.143   2.715   3.606 -0.6676  0.1466 -0.7026
   32CHL1  H21A 2347   3.193   2.671   3.694 -3.5168 -0.0744  0.8645
   32CHL1  H21B 2348   3.077   2.636   3.563  0.0680 -2.0994  2.1504
   32CHL1  H21C 2349   3.072   2.792   3.642  0.8539  0.2664  2.1543
   32CHL1   C22 2350   3.316   2.886   3.560  0.0057  0.8679 -0.2719
   32CHL1  H22A 2351   3.382   2.944   3.492  0.0883  0.4998 -0.5062
   32CHL1  H22B 2352   3.235   2.957   3.591 -0.9011 -0.4312  0.3815
   32CHL1   C23 2353   3.399   2.878   3.690  0.6205 -0.5510 -0.0735
   32CHL1  H23A 2354   3.420   2.982   3.724 -0.7602  0.1376 -1.2698
   32CHL1  H23B 2355   3.348   2.818   3.769  1.7582 -0.7189  0.5460
   32CHL1   C24 2356   3.533   2.808   3.666  0.5722 -0.5457 -0.3849
   32CHL1  H24A 2357   3.509   2.704   3.637 -0.6989  0.2538 -2.2410
   32CHL1  H24B 2358   3.589   2.845   3.578 -0.0091 -1.7424 -1.2645
   32CHL1   C25 2359   3.631   2.793   3.789  0.5264 -0.0071 -0.0401
   32CHL1   H25 2360   3.569   2.732   3.858  0.1534  0.6368  0.2021
   32CHL1   C26 2361   3.754   2.706   3.746 -0.0415  0.1385 -0.6322
   32CHL1  H26A 2362   3.774   2.612   3.804 -1.2439  1.2953  1.7366
   32CHL1  H26B 2363   3.733   2.666   3.645  0.5390 -1.5669 -0.1097
   32CHL1  H26C 2364   3.846   2.768   3.740  0.6017 -0.6459  0.6169
   32CHL1   C27 2365   3.682   2.923   3.854  0.2178  0.4760 -0.3849
   32CHL1  H27A 2366   3.761   2.913   3.932 -2.0974 -0.0623  1.9781
   32CHL1  H27B 2367   3.736   2.978   3.774 -0.4392 -1.3609 -2.1285
   32CHL1  H27C 2368   3.596   2.986   3.885  0.5508  1.0582 -0.6428
   33CHL1    C3 2369   2.223   3.318   2.571 -0.6367 -0.4772  0.4794
   33CHL1    H3 2370   2.301   3.238   2.567 -0.1338  0.0610 -0.7064
   33CHL1    O3 2371   2.210   3.367   2.432  0.0640  0.2245 -0.1479
   33CHL1   H3' 2372   2.193   3.290   2.377 -2.2764 -1.1601  2.3759
   33CHL1    C4 2373   2.092   3.254   2.611  0.1119 -0.0879  0.5590
   33CHL1   H4A 2374   2.010   3.327   2.595  1.5130  1.2817 -0.5206
   33CHL1   H4B 2375   2.060   3.167   2.550 -0.5033 -0.5826  1.5835
   33CHL1    C5 2376   2.093   3.205   2.758 -0.7459  0.3238 -0.0217
   33CHL1    C6 2377   2.074   3.078   2.789  0.4593 -0.6007  0.8273
   33CHL1    H6 2378   2.061   3.008   2.706  1.8281  1.2338 -0.9799
   33CHL1    C7 2379   2.070   3.029   2.927 -0.7353  0.3173 -0.1512
   33CHL1   H7A 2380   1.992   2.951   2.937  0.3128 -0.6243  0.8016
   33CHL1   H7B 2381   2.166   2.975   2.945 -0.8668 -1.6165 -4.4802
   33CHL1    C8 2382   2.053   3.136   3.037 -0.0125  0.0532 -0.4771
   33CHL1    H8 2383   1.948   3.173   3.038 -0.9507 -2.4250 -1.5886
   33CHL1   C14 2384   2.088   3.084   3.177  0.2882 -0.0997 -0.6934
   33CHL1   H14 2385   2.196   3.068   3.157  0.1296 -1.3869 -0.5751
   33CHL1   C15 2386   2.023   2.945   3.222  0.1520  0.2429 -0.0970
   33CHL1  H15A 2387   1.917   2.942   3.190  0.2778 -0.2333 -0.4611
   33CHL1  H15B 2388   2.073   2.862   3.169  0.7205 -0.9505  2.2547
   33CHL1   C16 2389   2.042   2.950   3.376  0.2153  0.7218 -0.1961
   33CHL1  H16A 2390   1.943   2.953   3.426 -0.3333  0.5674 -1.2508
   33CHL1  H16B 2391   2.093   2.857   3.407  2.8196  1.9734 -0.6274
   33CHL1   C17 2392   2.119   3.082   3.409  0.5339 -0.1209  0.3518
   33CHL1   H17 2393   2.228   3.066   3.396  0.3687 -0.6141 -0.4427
   33CHL1   C13 2394   2.071   3.177   3.297  0.3184  0.2400 -0.5302
   33CHL1   C18 2395   1.919   3.221   3.303  0.4546  0.3866 -0.2526
   33CHL1  H18A 2396   1.908   3.272   3.401  0.3442 -0.3277  0.1113
   33CHL1  H18B 2397   1.891   3.294   3.224 -0.7998  0.7326  0.4917
   33CHL1  H18C 2398   1.853   3.132   3.308 -1.2279  1.6965  1.5044
   33CHL1   C12 2399   2.154   3.299   3.262  0.9634 -0.2563  0.0634
   33CHL1  H12A 2400   2.134   3.369   3.346  0.1042  2.0020 -1.9596
   33CHL1  H12B 2401   2.260   3.270   3.274  1.1904  0.9649  1.1640
   33CHL1   C11 2402   2.141   3.371   3.124 -0.0386 -0.1289  0.5637
   33CHL1  H11A 2403   2.040   3.419   3.126  0.1609  0.4642 -2.0044
   33CHL1  H11B 2404   2.224   3.444   3.112  0.3576 -0.7670 -0.6277
   33CHL1    C9 2405   2.143   3.261   3.010  0.5982  0.4195 -0.3269
   33CHL1    H9 2406   2.248   3.225   3.005  0.7938  0.6066  1.9651
   33CHL1   C10 2407   2.131   3.314   2.863 -0.0423  0.1134  0.1283
   33CHL1   C19 2408   2.015   3.420   2.862  0.2057  0.0693 -0.3792
   33CHL1  H19A 2409   2.031   3.512   2.923 -3.0571 -0.2833  1.1251
   33CHL1  H19B 2410   2.008   3.452   2.756 -0.1126 -1.5754 -0.8647
   33CHL1  H19C 2411   1.923   3.374   2.905  1.2940 -2.2897 -0.5168
   33CHL1    C1 2412   2.262   3.382   2.813 -0.3271  0.4913 -0.0537
   33CHL1   H1A 2413   2.301   3.460   2.882 -1.4249  0.8454  0.1665
   33CHL1   H1B 2414   2.337   3.303   2.836 -1.7410 -0.7270  0.4226
   33CHL1    C2 2415   2.273   3.423   2.665  0.1202  0.2419 -0.3228
   33CHL1   H2A 2416   2.373   3.460   2.637 -0.5460  1.4776 -1.1190
   33CHL1   H2B 2417   2.203   3.506   2.640 -1.1917 -0.7751 -0.1112
   33CHL1   C20 2418   2.106   3.141   3.552 -0.7908  0.5487  0.0751
   33CHL1   H20 2419   2.105   3.250   3.531  1.4594  0.7340  0.8473
   33CHL1   C21 2420   2.237   3.097   3.632 -0.1890  0.5437 -0.6264
   33CHL1  H21A 2421   2.244   2.987   3.647 -0.0713  0.4418 -1.4305
   33CHL1  H21B 2422   2.247   3.142   3.733  2.9845  1.1596 -1.1641
   33CHL1  H21C 2423   2.323   3.128   3.570  0.7015 -0.1328  0.2593
   33CHL1   C22 2424   1.974   3.108   3.628 -0.4804  0.3632  0.4123
   33CHL1  H22A 2425   1.889   3.113   3.557  1.8367  0.6900 -2.4345
   33CHL1  H22B 2426   1.978   2.999   3.650  1.2134  0.3101 -0.0846
   33CHL1   C23 2427   1.948   3.177   3.758  0.3433 -0.5935 -0.3338
   33CHL1  H23A 2428   2.027   3.149   3.831  1.0126 -0.1907 -0.8830
   33CHL1  H23B 2429   1.947   3.288   3.748  0.2940 -0.6897 -1.4707
   33CHL1   C24 2430   1.807   3.132   3.813 -0.6165  0.1812 -0.4723
   33CHL1  H24A 2431   1.734   3.138   3.729 -0.1963  0.8417 -0.7952
   33CHL1  H24B 2432   1.821   3.023   3.832 -0.3803  0.3603  0.3976
   33CHL1   C25 2433   1.758   3.201   3.936 -0.2642 -0.2465 -0.2497
   33CHL1   H25 2434   1.798   3.303   3.923  5.5134 -2.0104  2.0215
   33CHL1   C26 2435   1.607   3.191   3.956  0.3146  0.1620 -0.2318
   33CHL1  H26A 2436   1.552   3.248   3.878 -2.4774 -1.4923  0.4381
   33CHL1  H26B 2437   1.568   3.087   3.944 -1.1318  0.5728  0.7195
   33CHL1  H26C 2438   1.580   3.237   4.054  1.1602 -0.5815  0.3577
   33CHL1   C27 2439   1.823   3.133   4.066  0.4813  0.3510  0.5687
   33CHL1  H27A 2440   1.828   3.022   4.067 -0.2556  0.3201  0.9553
   33CHL1  H27B 2441   1.928   3.169   4.064  0.7838 -0.5760 -0.4620
   33CHL1  H27C 2442   1.773   3.177   4.155 -3.0221 -0.0185 -1.1207
   34CHL1    C3 2443   4.852   5.235   2.574 -0.1942 -0.5220  0.2907
   34CHL1    H3 2444   4.953   5.190   2.590  1.3807  3.1001  1.0056
   34CHL1    O3 2445   4.836   5.227   2.430 -0.5195  0.1583 -1.3983
   34CHL1   H3' 2446   4.854   5.136   2.405 -0.9659 -0.2215 -0.3632
   34CHL1    C4 2447   4.744   5.166   2.651  0.5172 -0.1015  0.3046
   34CHL1   H4A 2448   4.645   5.213   2.639  0.6417  0.7013  2.2890
   34CHL1   H4B 2449   4.736   5.059   2.621 -1.9340 -0.1025  0.8473
   34CHL1    C5 2450   4.783   5.173   2.796 -0.0033  0.3772  0.4583
   34CHL1    C6 2451   4.798   5.069   2.877  0.1605  0.0764  0.4768
   34CHL1    H6 2452   4.783   4.974   2.823  0.3402  0.1409  0.3140
   34CHL1    C7 2453   4.832   5.066   3.027 -0.0714  0.3006  0.6698
   34CHL1   H7A 2454   4.777   4.989   3.084  1.5454 -1.2305  0.2029
   34CHL1   H7B 2455   4.939   5.034   3.030 -0.6989 -2.3372 -2.3212
   34CHL1    C8 2456   4.795   5.208   3.092  0.2376  0.7844  0.3561
   34CHL1    H8 2457   4.684   5.215   3.099  0.0921 -1.5809  1.0647
   34CHL1   C14 2458   4.851   5.211   3.233 -0.5617 -0.4559 -0.3038
   34CHL1   H14 2459   4.962   5.202   3.223 -0.4454  1.1113 -0.4994
   34CHL1   C15 2460   4.808   5.104   3.344  0.1409  0.1101  0.5200
   34CHL1  H15A 2461   4.699   5.096   3.323  0.8583 -2.2994 -2.6622
   34CHL1  H15B 2462   4.849   5.001   3.341  2.6698  1.1018  0.2760
   34CHL1   C16 2463   4.826   5.174   3.485  0.7770  0.1143  0.4326
   34CHL1  H16A 2464   4.731   5.191   3.540 -0.6234  1.4720 -2.2842
   34CHL1  H16B 2465   4.901   5.123   3.549  1.0568 -1.0951 -0.8376
   34CHL1   C17 2466   4.887   5.310   3.440 -0.4518  0.2188 -0.3340
   34CHL1   H17 2467   4.996   5.295   3.428 -0.6614 -1.9803  0.2420
   34CHL1   C13 2468   4.831   5.346   3.297 -0.1595 -0.5029  0.7792
   34CHL1   C18 2469   4.681   5.391   3.298  0.2433  0.0856  0.3366
   34CHL1  H18A 2470   4.627   5.316   3.361 -0.7496  0.8764  0.4337
   34CHL1  H18B 2471   4.673   5.485   3.356  0.4602 -0.3588  1.0950
   34CHL1  H18C 2472   4.629   5.401   3.200  2.4610  2.4892 -0.6392
   34CHL1   C12 2473   4.913   5.450   3.220 -0.1871 -0.8353  0.4263
   34CHL1  H12A 2474   4.903   5.555   3.257 -3.3272 -1.4651  1.5305
   34CHL1  H12B 2475   5.018   5.418   3.236  0.6624  2.7127  2.7521
   34CHL1   C11 2476   4.870   5.452   3.069  0.8776  0.7030 -0.3733
   34CHL1  H11A 2477   4.770   5.498   3.074  1.2879  1.8706 -2.5873
   34CHL1  H11B 2478   4.937   5.521   3.013 -1.3581  0.8388 -2.9290
   34CHL1    C9 2479   4.859   5.312   3.002  0.8381 -1.2251 -0.6602
   34CHL1    H9 2480   4.964   5.277   2.989  1.3382 -0.2871  0.7113
   34CHL1   C10 2481   4.799   5.312   2.855 -0.1481  0.8183 -0.1401
   34CHL1   C19 2482   4.668   5.386   2.857 -0.1283 -0.1664  0.4583
   34CHL1  H19A 2483   4.607   5.384   2.764  1.9512 -0.5596 -0.9296
   34CHL1  H19B 2484   4.602   5.338   2.933 -0.3453 -0.2254  0.2327
   34CHL1  H19C 2485   4.680   5.492   2.889  0.5520 -0.2671  0.5454
   34CHL1    C1 2486   4.897   5.394   2.763 -0.2939  0.0545 -0.4111
   34CHL1   H1A 2487   4.881   5.500   2.792 -2.9841 -0.2331 -0.6579
   34CHL1   H1B 2488   5.004   5.374   2.782 -1.1081 -3.1959  1.1484
   34CHL1    C2 2489   4.866   5.383   2.617 -0.6414  0.1915  0.4557
   34CHL1   H2A 2490   4.945   5.437   2.561  1.1873 -1.5753  1.2794
   34CHL1   H2B 2491   4.766   5.429   2.604 -1.8057 -2.7441 -1.4997
   34CHL1   C20 2492   4.879   5.404   3.560  0.9265 -0.1741 -0.2414
   34CHL1   H20 2493   4.912   5.506   3.530 -0.9476  1.3517  2.5304
   34CHL1   C21 2494   4.970   5.354   3.670 -0.5450 -0.7629 -0.5566
   34CHL1  H21A 2495   4.991   5.430   3.748 -0.3958  0.3870 -1.6919
   34CHL1  H21B 2496   5.070   5.327   3.629  1.1742  3.7495  0.4215
   34CHL1  H21C 2497   4.917   5.268   3.717 -3.0471  1.5149  0.9185
   34CHL1   C22 2498   4.741   5.439   3.619  0.1734  0.3731 -0.1108
   34CHL1  H22A 2499   4.664   5.470   3.545 -0.5823 -2.8734 -0.7635
   34CHL1  H22B 2500   4.692   5.354   3.670  0.6293  1.1493  1.6630
   34CHL1   C23 2501   4.747   5.547   3.728 -0.1955  0.2126 -0.2669
   34CHL1  H23A 2502   4.792   5.503   3.819  0.4342  1.0938 -0.1411
   34CHL1  H23B 2503   4.814   5.627   3.690 -1.9007  1.8044  0.0088
   34CHL1   C24 2504   4.603   5.599   3.747  0.5581 -0.0463 -0.0437
   34CHL1  H24A 2505   4.559   5.629   3.650  0.4522 -2.0833 -0.6446
   34CHL1  H24B 2506   4.538   5.522   3.793  1.0462 -1.2380 -1.2961
   34CHL1   C25 2507   4.604   5.727   3.832 -0.4827 -0.3820 -0.2681
   34CHL1   H25 2508   4.626   5.704   3.938 -4.7130  0.8159  0.9837
   34CHL1   C26 2509   4.705   5.839   3.782 -0.7131 -0.4816  0.5626
   34CHL1  H26A 2510   4.672   5.944   3.795  1.8433  0.3738  0.2391
   34CHL1  H26B 2511   4.801   5.833   3.836 -0.4113 -0.6621  0.0065
   34CHL1  H26C 2512   4.730   5.819   3.676  1.2976  0.5152  0.8349
   34CHL1   C27 2513   4.466   5.788   3.827 -0.8117 -0.1693 -0.1223
   34CHL1  H27A 2514   4.404   5.702   3.861  1.9204 -2.6772 -1.2799
   34CHL1  H27B 2515   4.459   5.868   3.905  1.4863  0.8020 -0.8716
   34CHL1  H27C 2516   4.438   5.815   3.723 -1.7366  1.5668  0.5590
   35CHL1    C3 2517   2.640   4.882   2.568 -0.1006 -0.0749  0.2455
   35CHL1    H3 2518   2.624   4.992   2.573 -1.1689 -0.0097 -3.2189
   35CHL1    O3 2519   2.673   4.852   2.431 -0.2808  0.5760  0.4093
   35CHL1   H3' 2520   2.680   4.756   2.427  0.5218  0.6428  0.0362
   35CHL1    C4 2521   2.746   4.831   2.667 -0.5207  1.2542 -0.1290
   35CHL1   H4A 2522   2.756   4.722   2.652 -3.7184  0.9705 -0.6590
   35CHL1   H4B 2523   2.847   4.868   2.642  0.3602 -0.4364  0.8338
   35CHL1    C5 2524   2.700   4.874   2.804 -0.0642  0.2644  0.9495
   35CHL1    C6 2525   2.770   4.955   2.880 -0.2982  0.1158  0.1709
   35CHL1    H6 2526   2.865   4.996   2.844  0.1607 -0.8201  0.2966
   35CHL1    C7 2527   2.740   4.978   3.026  0.7739  0.1330  0.5159
   35CHL1   H7A 2528   2.830   4.973   3.089  0.1285 -1.3637  1.3422
   35CHL1   H7B 2529   2.689   5.076   3.035  3.3808  1.3858  2.2181
   35CHL1    C8 2530   2.638   4.872   3.085 -0.1073  0.0850 -0.5481
   35CHL1    H8 2531   2.700   4.781   3.096  1.0049  0.7769 -0.9849
   35CHL1   C14 2532   2.592   4.916   3.226  0.4567 -0.4813  0.1340
   35CHL1   H14 2533   2.540   5.013   3.206 -0.9633 -1.7520 -2.5694
   35CHL1   C15 2534   2.694   4.955   3.328 -0.5725 -0.1295 -0.1021
   35CHL1  H15A 2535   2.776   4.881   3.323  1.3332  1.9695 -0.4453
   35CHL1  H15B 2536   2.742   5.047   3.289 -0.7172 -0.2604 -0.5936
   35CHL1   C16 2537   2.618   4.952   3.463 -0.0143  0.0555  0.4982
   35CHL1  H16A 2538   2.664   4.874   3.527  0.4720  0.7505  0.9965
   35CHL1  H16B 2539   2.617   5.049   3.516 -0.0286 -1.0657  2.6248
   35CHL1   C17 2540   2.467   4.900   3.430  0.7757  0.8798  1.1931
   35CHL1   H17 2541   2.413   4.995   3.408  0.0779  0.5007  1.2437
   35CHL1   C13 2542   2.484   4.830   3.289 -0.5209 -0.0852  0.0750
   35CHL1   C18 2543   2.539   4.685   3.326  0.3637 -0.1945 -0.7306
   35CHL1  H18A 2544   2.451   4.627   3.360  1.0045  0.4774  2.1869
   35CHL1  H18B 2545   2.582   4.644   3.232  0.7507  0.2023 -0.7292
   35CHL1  H18C 2546   2.617   4.696   3.403  0.9267 -0.0679 -1.3153
   35CHL1   C12 2547   2.360   4.840   3.188  0.1698  0.6524  0.2475
   35CHL1  H12A 2548   2.267   4.790   3.223 -0.0804  0.9294 -0.0240
   35CHL1  H12B 2549   2.334   4.947   3.178 -0.2509  0.8947  3.5847
   35CHL1   C11 2550   2.406   4.771   3.058  0.3930  1.4310  0.1350
   35CHL1  H11A 2551   2.436   4.669   3.087 -0.3876  0.4988 -2.2462
   35CHL1  H11B 2552   2.327   4.761   2.981  0.4207 -1.5153  0.4607
   35CHL1    C9 2553   2.521   4.853   2.984  0.5630 -0.2486  0.1385
   35CHL1    H9 2554   2.476   4.953   2.968 -0.3724 -0.3942  1.7898
   35CHL1   C10 2555   2.565   4.804   2.848 -0.8886 -0.8542 -0.0947
   35CHL1   C19 2556   2.590   4.650   2.850 -0.3393 -0.2017  0.1891
   35CHL1  H19A 2557   2.690   4.624   2.891 -0.2854 -0.2063  0.0535
   35CHL1  H19B 2558   2.514   4.597   2.912 -2.1109  0.0672 -1.7114
   35CHL1  H19C 2559   2.581   4.609   2.747  1.8086  2.1975 -0.9883
   35CHL1    C1 2560   2.454   4.837   2.738  0.2808  0.3421 -0.4250
   35CHL1   H1A 2561   2.372   4.769   2.769 -1.6115  2.4011 -0.8172
   35CHL1   H1B 2562   2.421   4.943   2.744  0.0310  0.2228  0.4491
   35CHL1    C2 2563   2.502   4.810   2.596  0.8752 -0.5663 -0.2273
   35CHL1   H2A 2564   2.428   4.845   2.520  2.1822 -0.2065 -1.3587
   35CHL1   H2B 2565   2.517   4.703   2.572  1.6115 -0.7982  1.2234
   35CHL1   C20 2566   2.399   4.833   3.544 -0.2645 -0.0910 -0.1429
   35CHL1   H20 2567   2.460   4.748   3.582  0.3651  0.7692  0.7750
   35CHL1   C21 2568   2.260   4.777   3.501  0.4190  0.1606  0.0554
   35CHL1  H21A 2569   2.267   4.692   3.429  1.7090 -0.3699  0.8014
   35CHL1  H21B 2570   2.197   4.848   3.442  0.6896  0.4809  0.1546
   35CHL1  H21C 2571   2.206   4.740   3.590  1.0347 -2.6945 -0.7275
   35CHL1   C22 2572   2.374   4.925   3.666  0.6990 -0.3683  0.5984
   35CHL1  H22A 2573   2.453   5.001   3.657 -0.7855  1.2388  0.8153
   35CHL1  H22B 2574   2.280   4.984   3.652  0.1365 -1.5256 -0.5768
   35CHL1   C23 2575   2.386   4.849   3.791 -1.0163  0.6368 -0.0464
   35CHL1  H23A 2576   2.317   4.762   3.789 -1.8259  1.2708  0.2203
   35CHL1  H23B 2577   2.494   4.821   3.788 -1.2708 -0.4445  0.4746
   35CHL1   C24 2578   2.366   4.923   3.926 -0.2606 -0.1865  0.7238
   35CHL1  H24A 2579   2.261   4.957   3.940 -0.1031 -0.2617  2.1588
   35CHL1  H24B 2580   2.400   4.854   4.006 -2.8153 -2.0190  0.2650
   35CHL1   C25 2581   2.462   5.051   3.936 -0.7230 -0.0124 -0.4173
   35CHL1   H25 2582   2.541   5.031   3.862  0.5366  0.8733  0.6784
   35CHL1   C26 2583   2.385   5.179   3.904 -0.1389  0.6715  0.0646
   35CHL1  H26A 2584   2.455   5.260   3.875  1.3722 -0.9407 -0.8698
   35CHL1  H26B 2585   2.335   5.144   3.811  1.7736 -1.8096 -0.0799
   35CHL1  H26C 2586   2.301   5.200   3.974 -2.0676 -2.2580 -1.2193
   35CHL1   C27 2587   2.540   5.054   4.075  0.4373  0.3677  0.4605
   35CHL1  H27A 2588   2.636   5.000   4.064 -1.6087 -3.0468 -1.4034
   35CHL1  H27B 2589   2.569   5.159   4.100  0.9082  0.3885 -0.1756
   35CHL1  H27C 2590   2.476   5.006   4.152  0.6726 -0.8982 -0.1314
   36CHL1    C3 2591   2.778   1.719   2.622  0.4755  0.2902  0.4897
   36CHL1    H3 2592   2.713   1.810   2.623 -0.9610 -0.6783 -1.3685
   36CHL1    O3 2593   2.762   1.646   2.502 -0.1394 -0.8459 -0.2249
   36CHL1   H3' 2594   2.851   1.634   2.468 -0.1872  1.0173 -1.0644
   36CHL1    C4 2595   2.928   1.760   2.635 -0.3000 -0.0696 -0.6212
   36CHL1   H4A 2596   2.993   1.673   2.614  1.8137  1.6839 -1.5197
   36CHL1   H4B 2597   2.934   1.831   2.549 -0.5049 -2.0285 -2.2972
   36CHL1    C5 2598   2.965   1.829   2.763  0.3880  0.3956  0.5316
   36CHL1    C6 2599   3.031   1.949   2.766  0.1839  0.2972 -0.3361
   36CHL1    H6 2600   3.070   1.998   2.676  0.3729 -1.2387 -1.1042
   36CHL1    C7 2601   3.074   2.027   2.887  0.6922 -0.2532 -1.1916
   36CHL1   H7A 2602   3.174   2.067   2.863  0.8119  0.3919  0.3642
   36CHL1   H7B 2603   2.999   2.108   2.897  0.8761 -0.2751  0.4703
   36CHL1    C8 2604   3.073   1.942   3.009 -0.0401 -0.0125  0.0954
   36CHL1    H8 2605   3.153   1.866   3.015 -1.8947 -1.9943  0.5993
   36CHL1   C14 2606   3.073   2.028   3.140 -0.1513 -0.0261  0.3596
   36CHL1   H14 2607   2.976   2.083   3.139  0.1900  0.6189  1.7120
   36CHL1   C15 2608   3.168   2.145   3.151 -0.3694  0.4822 -0.6387
   36CHL1  H15A 2609   3.269   2.125   3.110 -0.5339 -0.5048 -0.5808
   36CHL1  H15B 2610   3.135   2.233   3.092 -2.9377 -0.7565 -1.1462
   36CHL1   C16 2611   3.173   2.182   3.303 -1.0301 -0.8114 -0.0038
   36CHL1  H16A 2612   3.276   2.180   3.346 -0.6765 -0.5883 -0.8274
   36CHL1  H16B 2613   3.131   2.284   3.315 -1.2050 -0.5873 -2.3917
   36CHL1   C17 2614   3.079   2.082   3.372  0.3084  0.4109 -0.2345
   36CHL1   H17 2615   2.973   2.116   3.380 -0.8643 -2.5126 -2.2325
   36CHL1   C13 2616   3.078   1.955   3.275  0.0321 -0.0252  0.2897
   36CHL1   C18 2617   3.209   1.874   3.295 -0.0960 -0.2098 -0.9467
   36CHL1  H18A 2618   3.194   1.786   3.229  2.2527 -2.5301  1.5172
   36CHL1  H18B 2619   3.311   1.913   3.273  1.0176 -0.4972  3.3499
   36CHL1  H18C 2620   3.218   1.833   3.398  0.8592 -0.6002 -1.1821
   36CHL1   C12 2621   2.952   1.864   3.279 -0.3237  0.1797 -0.0973
   36CHL1  H12A 2622   2.942   1.797   3.366 -0.2586  0.6961  0.3086
   36CHL1  H12B 2623   2.868   1.936   3.276 -0.1012  0.4013 -1.9517
   36CHL1   C11 2624   2.943   1.770   3.149 -0.3730 -0.0995  0.0498
   36CHL1  H11A 2625   3.016   1.688   3.163 -0.6275 -0.4009 -0.3557
   36CHL1  H11B 2626   2.843   1.723   3.161  0.9070 -2.7600  0.5520
   36CHL1    C9 2627   2.942   1.848   3.012 -0.3161  0.1046  0.1458
   36CHL1    H9 2628   2.857   1.919   3.017  0.3991  0.9828 -0.1712
   36CHL1   C10 2629   2.923   1.755   2.893 -0.6220  0.3393 -0.7687
   36CHL1   C19 2630   3.000   1.623   2.916  0.1953  0.5019 -1.1895
   36CHL1  H19A 2631   2.974   1.570   3.011 -1.8171 -0.3211 -2.1603
   36CHL1  H19B 2632   3.003   1.541   2.841  0.2089  0.1781 -0.8356
   36CHL1  H19C 2633   3.108   1.646   2.925  0.3191  0.0169 -1.3822
   36CHL1    C1 2634   2.773   1.715   2.872  0.3065 -0.7974  0.2941
   36CHL1   H1A 2635   2.741   1.661   2.963 -1.4412 -2.5373 -1.2965
   36CHL1   H1B 2636   2.703   1.802   2.866  0.5695 -0.4202  2.4118
   36CHL1    C2 2637   2.745   1.638   2.743  0.1001  0.6027 -0.0309
   36CHL1   H2A 2638   2.639   1.605   2.734  0.6244 -0.7476 -1.3604
   36CHL1   H2B 2639   2.794   1.538   2.751  0.7561  0.6302 -3.0952
   36CHL1   C20 2640   3.116   2.047   3.516 -0.8027 -0.3619  0.5544
   36CHL1   H20 2641   3.213   1.997   3.532 -1.0039 -0.5716  1.1491
   36CHL1   C21 2642   3.010   1.967   3.596  0.6497  0.6083  0.1513
   36CHL1  H21A 2643   3.012   1.870   3.542  0.0261  0.0788  1.0690
   36CHL1  H21B 2644   2.908   2.010   3.598 -0.4436 -1.8578 -0.3974
   36CHL1  H21C 2645   3.045   1.957   3.701  1.0486  0.3416 -0.0071
   36CHL1   C22 2646   3.135   2.177   3.597  0.2523  0.4663  0.1251
   36CHL1  H22A 2647   3.192   2.253   3.539 -0.5552 -0.2438 -1.6354
   36CHL1  H22B 2648   3.032   2.212   3.620  0.3710  1.0107 -0.1682
   36CHL1   C23 2649   3.213   2.167   3.729 -0.6510 -0.2190 -0.1835
   36CHL1  H23A 2650   3.159   2.102   3.802  1.2246 -3.8619 -1.9532
   36CHL1  H23B 2651   3.309   2.117   3.705  1.3267  2.7988  1.0545
   36CHL1   C24 2652   3.229   2.311   3.785 -0.8912  0.8060 -0.3999
   36CHL1  H24A 2653   3.288   2.383   3.723  1.7599 -1.8677 -1.1132
   36CHL1  H24B 2654   3.126   2.347   3.806 -0.3716  1.1834  1.5616
   36CHL1   C25 2655   3.315   2.319   3.918 -0.3152 -0.9082 -0.1187
   36CHL1   H25 2656   3.417   2.285   3.890 -0.7392 -1.6510 -0.7944
   36CHL1   C26 2657   3.314   2.458   3.983 -0.3676 -0.1152 -0.3832
   36CHL1  H26A 2658   3.211   2.496   4.002  0.0870 -0.0765  2.1898
   36CHL1  H26B 2659   3.367   2.449   4.080  0.2440 -0.2944 -0.7348
   36CHL1  H26C 2660   3.354   2.545   3.927 -0.9975  1.0725  0.9753
   36CHL1   C27 2661   3.259   2.218   4.021  0.1964  0.0723  0.2083
   36CHL1  H27A 2662   3.271   2.113   3.987  1.1867  0.2200  0.0916
   36CHL1  H27B 2663   3.312   2.229   4.118  0.2649 -0.4326  0.2290
   36CHL1  H27C 2664   3.150   2.232   4.039 -0.1601 -1.8966 -0.2917
   37CHL1    C3 2665   5.671   4.565   2.649  0.2180  0.4907  0.0758
   37CHL1    H3 2666   5.677   4.675   2.663  1.8921  0.4726 -0.4531
   37CHL1    O3 2667   5.698   4.541   2.513  0.0640 -0.0322  0.1880
   37CHL1   H3' 2668   5.720   4.448   2.504  1.4177 -0.0162  2.6726
   37CHL1    C4 2669   5.773   4.494   2.731 -0.0993 -0.4672  0.4969
   37CHL1   H4A 2670   5.788   4.392   2.688  1.7217 -0.0862  0.1964
   37CHL1   H4B 2671   5.873   4.538   2.711  0.3045 -1.7453 -0.3530
   37CHL1    C5 2672   5.743   4.485   2.884 -0.3593 -1.0538 -0.1403
   37CHL1    C6 2673   5.840   4.521   2.971  0.2011  1.1000 -0.2862
   37CHL1    H6 2674   5.938   4.556   2.933 -0.7375  1.1052 -2.7662
   37CHL1    C7 2675   5.823   4.523   3.123 -0.8268  0.0027  0.6585
   37CHL1   H7A 2676   5.916   4.489   3.174 -0.9433 -0.0689  0.8217
   37CHL1   H7B 2677   5.825   4.629   3.157 -1.4599 -0.0026  0.7092
   37CHL1    C8 2678   5.697   4.454   3.170  0.6400  0.5277 -0.3975
   37CHL1    H8 2679   5.720   4.346   3.177  0.9166  0.6140  0.0398
   37CHL1   C14 2680   5.649   4.493   3.317 -0.2423 -0.6034 -0.1456
   37CHL1   H14 2681   5.615   4.596   3.291  3.2207  0.5671 -0.3517
   37CHL1   C15 2682   5.761   4.502   3.419 -0.0912 -0.6199  0.1732
   37CHL1  H15A 2683   5.825   4.412   3.430 -0.7518 -1.4932 -2.7808
   37CHL1  H15B 2684   5.827   4.590   3.403  0.8192 -1.5585 -1.3936
   37CHL1   C16 2685   5.689   4.502   3.554 -0.1119 -0.5451  0.5687
   37CHL1  H16A 2686   5.727   4.428   3.627  1.6069  0.2942  0.5427
   37CHL1  H16B 2687   5.687   4.597   3.613 -1.2724  0.6140 -1.2712
   37CHL1   C17 2688   5.534   4.488   3.519 -0.5742 -0.0060 -0.6919
   37CHL1   H17 2689   5.493   4.590   3.501  0.4961  0.2508 -1.7408
   37CHL1   C13 2690   5.538   4.415   3.387  0.4593 -0.6055 -0.8354
   37CHL1   C18 2691   5.577   4.268   3.398 -0.9729 -0.4924  0.5081
   37CHL1  H18A 2692   5.665   4.253   3.464 -1.4063 -1.4137  0.8975
   37CHL1  H18B 2693   5.495   4.221   3.457 -1.9627 -0.1246 -0.5617
   37CHL1  H18C 2694   5.586   4.222   3.298 -0.5526 -1.6586  1.0731
   37CHL1   C12 2695   5.418   4.440   3.290  0.7246 -0.0542 -0.1470
   37CHL1  H12A 2696   5.323   4.391   3.320  1.9526 -2.1820  0.3466
   37CHL1  H12B 2697   5.394   4.549   3.282  1.5628  0.2332  1.0780
   37CHL1   C11 2698   5.454   4.398   3.145 -0.0048  0.5095  0.2345
   37CHL1  H11A 2699   5.471   4.288   3.137  1.6677  0.6822  1.2155
   37CHL1  H11B 2700   5.363   4.422   3.086 -1.5333 -1.8795  1.5283
   37CHL1    C9 2701   5.579   4.467   3.077  0.7356  0.7650  0.4273
   37CHL1    H9 2702   5.556   4.575   3.067 -1.1754  0.2558 -1.0959
   37CHL1   C10 2703   5.602   4.435   2.919  0.0493 -0.4127  0.3996
   37CHL1   C19 2704   5.609   4.276   2.898 -0.0623  0.0881  0.1353
   37CHL1  H19A 2705   5.528   4.223   2.953 -1.5447  1.9045 -0.2278
   37CHL1  H19B 2706   5.603   4.252   2.789 -0.9044  1.1056 -0.0558
   37CHL1  H19C 2707   5.703   4.223   2.923 -0.4565 -1.9086 -2.4496
   37CHL1    C1 2708   5.494   4.497   2.826 -0.0598  0.2824 -0.1964
   37CHL1   H1A 2709   5.412   4.423   2.834  0.7522 -0.5349  0.7129
   37CHL1   H1B 2710   5.461   4.599   2.857  0.9004  0.5330  0.0249
   37CHL1    C2 2711   5.531   4.500   2.683 -0.2158 -0.4683 -0.5140
   37CHL1   H2A 2712   5.452   4.556   2.628 -0.5341  0.2672  0.6573
   37CHL1   H2B 2713   5.528   4.395   2.650 -1.1139 -0.9650  1.0716
   37CHL1   C20 2714   5.452   4.421   3.629 -0.7289 -0.4405  0.1994
   37CHL1   H20 2715   5.488   4.316   3.637 -0.6277 -0.3395  1.0270
   37CHL1   C21 2716   5.298   4.412   3.601  0.2583 -0.9026  0.1175
   37CHL1  H21A 2717   5.287   4.340   3.517 -2.9123 -0.4452  0.0570
   37CHL1  H21B 2718   5.263   4.514   3.570  1.6216 -0.2093  0.8316
   37CHL1  H21C 2719   5.246   4.369   3.689 -0.2489  0.6306  0.5937
   37CHL1   C22 2720   5.473   4.484   3.770  0.3195  0.5207 -0.5298
   37CHL1  H22A 2721   5.441   4.406   3.844  2.1184  0.5484  0.3040
   37CHL1  H22B 2722   5.582   4.502   3.783  0.3379  0.5458 -0.7209
   37CHL1   C23 2723   5.407   4.628   3.797 -0.1444  0.2243 -0.6653
   37CHL1  H23A 2724   5.443   4.696   3.717 -0.0146  2.1544  0.9824
   37CHL1  H23B 2725   5.298   4.608   3.796  0.1580 -1.4430 -1.0516
   37CHL1   C24 2726   5.457   4.697   3.921 -0.5582  0.3838 -0.0030
   37CHL1  H24A 2727   5.432   4.803   3.945  2.4004  0.4886  2.9594
   37CHL1  H24B 2728   5.409   4.633   3.998 -1.3452 -0.9275 -1.5500
   37CHL1   C25 2729   5.608   4.700   3.954  0.3105 -0.2932 -0.0077
   37CHL1   H25 2730   5.653   4.599   3.947  2.1841  0.5381 -0.0946
   37CHL1   C26 2731   5.689   4.793   3.870  0.8766 -0.5120 -0.1613
   37CHL1  H26A 2732   5.640   4.893   3.871  0.6953 -0.5923 -1.4524
   37CHL1  H26B 2733   5.795   4.802   3.905  0.0926  0.1631  2.1851
   37CHL1  H26C 2734   5.691   4.760   3.764 -0.7114 -2.8289  0.5013
   37CHL1   C27 2735   5.621   4.733   4.100  0.0826 -0.3380  0.4365
   37CHL1  H27A 2736   5.585   4.655   4.170 -0.1884  0.3069  1.0243
   37CHL1  H27B 2737   5.727   4.752   4.125 -0.0404  0.8145  0.1290
   37CHL1  H27C 2738   5.565   4.826   4.125  0.4238 -0.6134  2.3014
   38CHL1    C3 2739   2.857   5.400   2.605 -0.6493 -0.0687 -0.8091
   38CHL1    H3 2740   2.763   5.364   2.653 -0.1245 -0.9349 -0.4195
   38CHL1    O3 2741   2.841   5.442   2.473  0.3000 -0.2427  0.2528
   38CHL1   H3' 2742   2.923   5.482   2.444  0.4502 -1.6717 -1.3365
   38CHL1    C4 2743   2.931   5.513   2.677  0.2138  0.0940 -0.7962
   38CHL1   H4A 2744   3.024   5.549   2.629  0.2281  1.6171  0.3414
   38CHL1   H4B 2745   2.870   5.606   2.678 -0.6207 -0.4487 -0.5395
   38CHL1    C5 2746   2.962   5.479   2.819 -0.6912 -0.4077  0.8379
   38CHL1    C6 2747   2.930   5.568   2.924  0.1612  0.2914 -0.3516
   38CHL1    H6 2748   2.882   5.664   2.902 -2.2186 -0.7952 -0.0511
   38CHL1    C7 2749   2.956   5.529   3.071 -0.0999 -0.2303 -0.3883
   38CHL1   H7A 2750   2.988   5.624   3.120 -1.7732  0.8699 -1.3890
   38CHL1   H7B 2751   2.863   5.497   3.122  2.2473 -3.0207  2.3340
   38CHL1    C8 2752   3.051   5.409   3.099  0.1024 -0.5663 -0.0703
   38CHL1    H8 2753   3.158   5.437   3.085 -0.5555  2.3856  0.3432
   38CHL1   C14 2754   3.023   5.350   3.243  0.3674  0.2231  0.6017
   38CHL1   H14 2755   2.921   5.309   3.230  0.4113  0.6809 -1.3297
   38CHL1   C15 2756   3.027   5.442   3.364 -0.2373 -0.3605 -0.4051
   38CHL1  H15A 2757   3.105   5.520   3.353 -1.8150  1.4202  0.6705
   38CHL1  H15B 2758   2.926   5.486   3.379 -0.1172  0.3300 -1.6101
   38CHL1   C16 2759   3.053   5.343   3.479 -0.2293 -0.2514  0.0437
   38CHL1  H16A 2760   3.135   5.382   3.544 -0.3508  0.8339 -0.4458
   38CHL1  H16B 2761   2.953   5.335   3.526 -0.9746  1.2066 -1.2905
   38CHL1   C17 2762   3.077   5.200   3.419 -0.4152 -0.0059  0.2796
   38CHL1   H17 2763   2.975   5.156   3.413 -0.6111  0.4151  0.4875
   38CHL1   C13 2764   3.121   5.235   3.276  0.7061  0.2684  0.8618
   38CHL1   C18 2765   3.265   5.284   3.276 -0.1014 -0.0553 -0.5040
   38CHL1  H18A 2766   3.293   5.309   3.172  1.9857  1.0373  0.2919
   38CHL1  H18B 2767   3.287   5.374   3.337  2.0706 -0.8880 -0.0221
   38CHL1  H18C 2768   3.332   5.200   3.304 -0.3197 -0.4977 -1.2808
   38CHL1   C12 2769   3.103   5.123   3.176 -0.0202 -0.4310  0.1937
   38CHL1  H12A 2770   3.186   5.049   3.185  2.3965  1.9832 -1.3864
   38CHL1  H12B 2771   3.004   5.078   3.199  0.0704 -0.3468  0.7506
   38CHL1   C11 2772   3.108   5.168   3.029  0.3348  0.1253  0.3290
   38CHL1  H11A 2773   3.211   5.160   2.989 -0.1269 -0.9447 -0.6817
   38CHL1  H11B 2774   3.053   5.091   2.971  0.6207  0.9123 -1.0076
   38CHL1    C9 2775   3.028   5.297   2.993  0.5914  0.0321  0.3031
   38CHL1    H9 2776   2.919   5.279   3.003  0.3145  0.8610 -1.0201
   38CHL1   C10 2777   3.035   5.339   2.838  0.4496  0.2350 -0.3806
   38CHL1   C19 2778   3.181   5.356   2.791  0.6224 -0.6043 -0.5351
   38CHL1  H19A 2779   3.222   5.430   2.863  0.9103 -0.2659 -1.0429
   38CHL1  H19B 2780   3.239   5.262   2.803  2.5110  0.5495 -0.3320
   38CHL1  H19C 2781   3.191   5.397   2.688 -0.6469  2.8597  0.6648
   38CHL1    C1 2782   2.976   5.227   2.755  0.4282 -0.3328 -0.1131
   38CHL1   H1A 2783   3.043   5.138   2.755  0.4666 -0.3047 -0.6419
   38CHL1   H1B 2784   2.877   5.199   2.796  0.4283  0.6875  0.6055
   38CHL1    C2 2785   2.940   5.273   2.609 -0.4784 -0.1613 -0.1016
   38CHL1   H2A 2786   2.884   5.195   2.553  1.5207 -0.7449 -1.3083
   38CHL1   H2B 2787   3.036   5.285   2.555  2.6513 -3.2730  4.4906
   38CHL1   C20 2788   3.164   5.093   3.501  1.0749 -0.7306 -0.3917
   38CHL1   H20 2789   3.271   5.104   3.473  0.5371  1.9365 -1.6025
   38CHL1   C21 2790   3.115   4.949   3.463 -0.9173 -0.0444  0.6068
   38CHL1  H21A 2791   3.008   4.940   3.493 -0.6700  0.6534  1.7087
   38CHL1  H21B 2792   3.178   4.871   3.510  0.0835  0.0609 -0.5410
   38CHL1  H21C 2793   3.109   4.942   3.352 -0.8612  0.5678  0.5649
   38CHL1   C22 2794   3.158   5.120   3.658  0.0304  0.4025  0.3511
   38CHL1  H22A 2795   3.204   5.221   3.664 -0.3507  0.4435  2.9212
   38CHL1  H22B 2796   3.052   5.103   3.685  0.0944 -0.3409  0.1384
   38CHL1   C23 2797   3.238   5.026   3.750 -0.2554 -0.3184  0.3773
   38CHL1  H23A 2798   3.179   4.931   3.757 -2.3863  1.1057  2.6679
   38CHL1  H23B 2799   3.334   5.001   3.701 -0.6794 -0.7141 -0.2573
   38CHL1   C24 2800   3.258   5.068   3.896 -0.6354  0.1957  0.7302
   38CHL1  H24A 2801   3.305   5.168   3.894 -0.2406  0.0256  1.3260
   38CHL1  H24B 2802   3.165   5.059   3.956 -0.9640  3.1491  0.7457
   38CHL1   C25 2803   3.372   4.981   3.959  0.0756 -0.9606 -0.0083
   38CHL1   H25 2804   3.450   4.973   3.880 -1.1416 -0.4261 -1.2873
   38CHL1   C26 2805   3.432   5.044   4.081  0.3497  1.5865 -0.3301
   38CHL1  H26A 2806   3.504   4.974   4.129  0.8532  1.4225 -1.3127
   38CHL1  H26B 2807   3.481   5.140   4.055  2.5020  0.3542 -0.9671
   38CHL1  H26C 2808   3.346   5.075   4.144  0.2177  3.0183 -1.1769
   38CHL1   C27 2809   3.325   4.834   3.976  0.2317  0.2290 -0.2104
   38CHL1  H27A 2810   3.230   4.838   4.034  1.0128 -2.6090  1.3394
   38CHL1  H27B 2811   3.291   4.788   3.881 -0.5143 -1.3768  0.8216
   38CHL1  H27C 2812   3.405   4.784   4.034 -0.1948  2.1399  2.1269
   39CHL1    C3 2813   4.768   6.081   2.426  0.4504  1.2018  0.0922
   39CHL1    H3 2814   4.858   6.041   2.477 -0.3449 -2.6197 -1.2964
   39CHL1    O3 2815   4.789   6.109   2.293 -0.2169  0.9338  0.2841
   39CHL1   H3' 2816   4.753   6.034   2.245 -0.8731  0.3333  1.6657
   39CHL1    C4 2817   4.662   5.976   2.442 -0.0178  0.9381  0.3460
   39CHL1   H4A 2818   4.576   6.015   2.384  0.8626  1.4817 -0.6087
   39CHL1   H4B 2819   4.702   5.880   2.402  1.5637  1.2014  1.2395
   39CHL1    C5 2820   4.609   5.951   2.584 -0.1954  0.1327 -0.2176
   39CHL1    C6 2821   4.602   5.825   2.631  0.1012  0.4528 -0.0025
   39CHL1    H6 2822   4.622   5.734   2.573  0.0149  0.2213  0.3282
   39CHL1    C7 2823   4.553   5.792   2.773  0.5265  0.2883  0.5940
   39CHL1   H7A 2824   4.479   5.709   2.762  0.7454  0.1109  0.4658
   39CHL1   H7B 2825   4.641   5.751   2.826  0.0119 -2.2277 -0.4286
   39CHL1    C8 2826   4.480   5.915   2.844 -0.3026 -0.2748  0.7297
   39CHL1    H8 2827   4.379   5.929   2.799  0.3485 -0.6845 -0.8846
   39CHL1   C14 2828   4.467   5.901   2.999  1.0028  0.4708 -0.1771
   39CHL1   H14 2829   4.569   5.882   3.038  0.6062 -2.2183 -0.3620
   39CHL1   C15 2830   4.396   5.766   3.051  0.0820  0.2567 -0.5669
   39CHL1  H15A 2831   4.308   5.742   2.988  0.2831 -0.6214 -0.5100
   39CHL1  H15B 2832   4.458   5.675   3.045 -1.2508 -0.6243 -1.1861
   39CHL1   C16 2833   4.359   5.805   3.193  0.1884  0.0162  0.6381
   39CHL1  H16A 2834   4.248   5.796   3.199 -0.0054 -0.4786 -2.8213
   39CHL1  H16B 2835   4.406   5.731   3.260 -0.7740 -1.2352 -0.0546
   39CHL1   C17 2836   4.415   5.945   3.213 -0.1631 -0.2786  0.1302
   39CHL1   H17 2837   4.523   5.929   3.231  0.0791 -0.5828 -1.5228
   39CHL1   C13 2838   4.415   6.016   3.079 -0.6332 -0.7330 -0.2914
   39CHL1   C18 2839   4.272   6.066   3.044  0.7608  0.0817  0.5682
   39CHL1  H18A 2840   4.192   5.989   3.050  0.2053  0.3571 -2.4773
   39CHL1  H18B 2841   4.255   6.148   3.117  1.9724  0.4975  0.3878
   39CHL1  H18C 2842   4.266   6.123   2.948  0.9684  2.0461  1.6980
   39CHL1   C12 2843   4.516   6.130   3.061  0.2421  0.1946  0.6134
   39CHL1  H12A 2844   4.485   6.223   3.113 -2.5764  0.2838 -1.1149
   39CHL1  H12B 2845   4.618   6.101   3.093  0.2589 -0.1648  0.2461
   39CHL1   C11 2846   4.526   6.165   2.908  0.1433 -0.0817 -0.1598
   39CHL1  H11A 2847   4.435   6.218   2.874  0.6140  0.8343 -0.0158
   39CHL1  H11B 2848   4.609   6.240   2.910 -0.6445  0.8118 -0.6955
   39CHL1    C9 2849   4.563   6.044   2.817 -0.2158  0.5707  0.1179
   39CHL1    H9 2850   4.658   6.000   2.854 -0.8637 -1.3461 -0.4755
   39CHL1   C10 2851   4.585   6.080   2.665  0.1556 -0.7958 -0.6927
   39CHL1   C19 2852   4.460   6.150   2.620  0.6767  0.4942 -0.5620
   39CHL1  H19A 2853   4.443   6.138   2.511 -0.8316 -0.0771 -0.2781
   39CHL1  H19B 2854   4.370   6.107   2.668 -0.4095  3.5122  0.2166
   39CHL1  H19C 2855   4.465   6.257   2.649  0.5918  0.3489 -0.0133
   39CHL1    C1 2856   4.702   6.173   2.643 -0.2941 -0.0257  0.8340
   39CHL1   H1A 2857   4.685   6.265   2.703 -1.4831  0.5003 -0.2778
   39CHL1   H1B 2858   4.792   6.123   2.683  0.5100 -0.6957 -1.7603
   39CHL1    C2 2859   4.732   6.209   2.499 -0.7055  0.3575  0.3560
   39CHL1   H2A 2860   4.814   6.284   2.496 -0.3029 -0.0244  1.6234
   39CHL1   H2B 2861   4.651   6.259   2.442  1.4764  1.4011 -1.9298
   39CHL1   C20 2862   4.361   6.024   3.339  0.3480 -0.0596  0.0745
   39CHL1   H20 2863   4.384   6.132   3.323 -0.6137  0.1551  0.1200
   39CHL1   C21 2864   4.445   5.979   3.460  0.4391  0.0512 -0.1819
   39CHL1  H21A 2865   4.405   6.019   3.556  2.3525 -1.3286  1.2332
   39CHL1  H21B 2866   4.548   6.023   3.466  0.7868 -0.7738 -0.1060
   39CHL1  H21C 2867   4.458   5.869   3.465  1.1876  0.1457 -0.0145
   39CHL1   C22 2868   4.210   5.991   3.380  0.1792 -0.2173  1.0017
   39CHL1  H22A 2869   4.149   5.989   3.287  1.6790 -3.7572  0.0171
   39CHL1  H22B 2870   4.202   5.889   3.424 -0.1484 -0.8101 -0.3965
   39CHL1   C23 2871   4.149   6.101   3.475 -0.2497  0.8156  0.2205
   39CHL1  H23A 2872   4.216   6.083   3.561  0.7177  0.8934 -0.5046
   39CHL1  H23B 2873   4.154   6.202   3.430 -0.2155  0.5139 -0.4761
   39CHL1   C24 2874   4.003   6.080   3.501 -0.6845 -0.6089 -0.1749
   39CHL1  H24A 2875   3.947   6.069   3.406 -0.6736  1.5125 -0.4542
   39CHL1  H24B 2876   4.000   5.986   3.561 -5.0842 -0.1238  0.4665
   39CHL1   C25 2877   3.931   6.194   3.577 -0.1006 -0.0885 -0.4189
   39CHL1   H25 2878   3.950   6.289   3.522  0.2823 -0.1678 -0.4249
   39CHL1   C26 2879   3.782   6.176   3.573  0.2808  0.3473  0.1580
   39CHL1  H26A 2880   3.724   6.256   3.623 -1.7388 -1.8434  1.3563
   39CHL1  H26B 2881   3.746   6.182   3.468 -1.4280 -0.5359  0.6794
   39CHL1  H26C 2882   3.749   6.079   3.614 -1.9457  0.8529 -0.3605
   39CHL1   C27 2883   3.971   6.212   3.724  0.3995 -0.6107  0.1694
   39CHL1  H27A 2884   3.940   6.120   3.779  1.3037 -1.6224 -0.9620
   39CHL1  H27B 2885   4.078   6.239   3.726 -0.4850  3.0846  1.6076
   39CHL1  H27C 2886   3.917   6.304   3.756 -0.1636 -1.0691  0.5538
   40CHL1    C3 2887   5.846   3.017   2.611  0.6593 -0.2817  0.3908
   40CHL1    H3 2888   5.830   3.104   2.678  2.4338 -0.4651  1.0804
   40CHL1    O3 2889   5.848   3.045   2.473 -0.0107  0.0202  0.2960
   40CHL1   H3' 2890   5.845   2.969   2.414  2.7691 -2.2838  2.9172
   40CHL1    C4 2891   5.978   2.962   2.657 -0.2587  0.7124  0.4371
   40CHL1   H4A 2892   6.005   2.867   2.605  0.5001  0.1508  1.8259
   40CHL1   H4B 2893   6.046   3.048   2.641  0.3865 -0.1384 -1.5541
   40CHL1    C5 2894   5.974   2.922   2.809  0.5682 -0.2482  1.0998
   40CHL1    C6 2895   6.059   2.969   2.900 -0.7883 -0.3383 -0.2743
   40CHL1    H6 2896   6.131   3.040   2.856 -1.1154 -0.6414 -1.3137
   40CHL1    C7 2897   6.057   2.940   3.051 -0.0164 -0.9037 -0.3156
   40CHL1   H7A 2898   6.159   2.927   3.094 -1.1422  1.1916  3.0905
   40CHL1   H7B 2899   6.013   3.022   3.110  0.8415 -2.2253  2.2520
   40CHL1    C8 2900   5.958   2.821   3.083 -0.0614  0.3039 -0.3894
   40CHL1    H8 2901   6.017   2.730   3.059  0.4722  0.2120  1.1651
   40CHL1   C14 2902   5.933   2.821   3.229 -0.2016  0.5673  0.0179
   40CHL1   H14 2903   5.894   2.924   3.246  1.5498  1.1187  0.9002
   40CHL1   C15 2904   6.054   2.810   3.327  0.1621  0.1605  0.3702
   40CHL1  H15A 2905   6.126   2.729   3.300  0.1813 -1.2713  4.3752
   40CHL1  H15B 2906   6.104   2.908   3.339 -1.5326  1.4611 -2.5070
   40CHL1   C16 2907   5.986   2.761   3.459  0.1854 -0.2974  0.2511
   40CHL1  H16A 2908   6.026   2.661   3.486  0.6405 -0.1404  0.1515
   40CHL1  H16B 2909   6.002   2.844   3.531 -1.7763 -1.4003  2.0257
   40CHL1   C17 2910   5.834   2.745   3.428 -0.4237  0.0908 -0.3423
   40CHL1   H17 2911   5.788   2.846   3.438  0.2553  0.3903 -0.2303
   40CHL1   C13 2912   5.830   2.715   3.279 -0.0849  0.0744  0.0919
   40CHL1   C18 2913   5.876   2.576   3.255  0.6449 -0.1922  0.2566
   40CHL1  H18A 2914   5.975   2.562   3.303  1.7329  2.5216 -1.1536
   40CHL1  H18B 2915   5.806   2.502   3.299 -1.2418  0.7962 -1.0119
   40CHL1  H18C 2916   5.887   2.563   3.145  2.2255 -1.1055  0.5043
   40CHL1   C12 2917   5.694   2.740   3.207 -0.0696 -0.1474  0.2537
   40CHL1  H12A 2918   5.619   2.662   3.231 -2.0217  1.4419 -0.5290
   40CHL1  H12B 2919   5.658   2.840   3.241 -1.4989 -1.1266  1.6610
   40CHL1   C11 2920   5.714   2.738   3.057  0.1126  0.5032 -0.0292
   40CHL1  H11A 2921   5.744   2.634   3.030  2.8513  1.7583 -2.0623
   40CHL1  H11B 2922   5.615   2.755   3.011  0.8180  0.1704 -1.7219
   40CHL1    C9 2923   5.826   2.832   3.003 -0.2143 -0.1454  0.2194
   40CHL1    H9 2924   5.788   2.934   3.024  0.7608  0.1886  0.3945
   40CHL1   C10 2925   5.849   2.832   2.847 -0.6532  0.3247 -0.6447
   40CHL1   C19 2926   5.869   2.685   2.804 -0.5836 -0.3253 -0.5608
   40CHL1  H19A 2927   5.893   2.670   2.697  4.4345 -0.0228  0.4315
   40CHL1  H19B 2928   5.959   2.641   2.853  1.3516  2.5019 -1.4956
   40CHL1  H19C 2929   5.778   2.629   2.836 -0.1998  0.3166  1.7166
   40CHL1    C1 2930   5.721   2.892   2.780 -0.4621 -0.0216  0.0189
   40CHL1   H1A 2931   5.633   2.829   2.802  0.3914 -0.7269  1.4704
   40CHL1   H1B 2932   5.698   2.987   2.834  0.2139 -0.1478  0.5356
   40CHL1    C2 2933   5.739   2.913   2.627  0.0686 -0.2089  0.2571
   40CHL1   H2A 2934   5.645   2.956   2.587  0.4304  1.1708  0.8607
   40CHL1   H2B 2935   5.774   2.817   2.584  0.3388 -0.2561  0.5766
   40CHL1   C20 2936   5.774   2.645   3.534  0.4105 -0.6219  0.4663
   40CHL1   H20 2937   5.820   2.548   3.509  0.9730 -0.1818 -0.2279
   40CHL1   C21 2938   5.618   2.634   3.526  0.4056  0.3305  0.4056
   40CHL1  H21A 2939   5.568   2.725   3.565 -0.5934 -0.3029  0.6071
   40CHL1  H21B 2940   5.581   2.553   3.591  0.7040  0.5434  0.8479
   40CHL1  H21C 2941   5.590   2.618   3.420 -0.4559  2.6683  0.2539
   40CHL1   C22 2942   5.819   2.669   3.681  0.3928  0.3172  0.2812
   40CHL1  H22A 2943   5.930   2.667   3.688  0.5339 -3.5119 -1.6149
   40CHL1  H22B 2944   5.786   2.771   3.711  0.3761  0.3854  0.0334
   40CHL1   C23 2945   5.773   2.570   3.788  0.1174 -0.3631 -0.2533
   40CHL1  H23A 2946   5.794   2.609   3.890  0.5245 -0.9109 -0.1292
   40CHL1  H23B 2947   5.662   2.568   3.777  0.1242 -0.3154 -0.3329
   40CHL1   C24 2948   5.842   2.431   3.773  0.2138 -0.0046 -0.2308
   40CHL1  H24A 2949   5.810   2.399   3.671  1.4357 -2.6088  0.1573
   40CHL1  H24B 2950   5.952   2.447   3.770  0.0482  1.0613 -2.2121
   40CHL1   C25 2951   5.784   2.322   3.864  0.0178  0.9877  0.5461
   40CHL1   H25 2952   5.819   2.222   3.829  0.1496  1.0565  0.4812
   40CHL1   C26 2953   5.845   2.349   4.001 -0.0449 -0.2452 -0.0399
   40CHL1  H26A 2954   5.952   2.317   4.002 -0.0548 -0.3442 -1.0880
   40CHL1  H26B 2955   5.836   2.457   4.025 -1.3485 -0.2148 -0.6696
   40CHL1  H26C 2956   5.804   2.288   4.084  0.9025  0.0746  0.6815
   40CHL1   C27 2957   5.635   2.325   3.868  0.5062  0.0602 -0.0663
   40CHL1  H27A 2958   5.590   2.237   3.920  0.4997 -0.1520 -0.4320
   40CHL1  H27B 2959   5.603   2.418   3.919 -2.8845 -0.8642 -0.3557
   40CHL1  H27C 2960   5.588   2.334   3.768  0.3410 -0.2625 -0.0209
   41CHL1    C3 2961   5.093   5.854   2.437 -0.3979  0.7355  0.4149
   41CHL1    H3 2962   5.068   5.959   2.412 -1.0696  0.4656 -0.0336
   41CHL1    O3 2963   5.110   5.785   2.316 -0.3628  0.1447  0.5274
   41CHL1   H3' 2964   5.178   5.837   2.271 -0.4277  0.8796  1.2735
   41CHL1    C4 2965   5.226   5.840   2.505  0.2641  0.6414  0.6725
   41CHL1   H4A 2966   5.260   5.734   2.498 -0.1986  0.4453  1.3989
   41CHL1   H4B 2967   5.299   5.903   2.449 -1.6282  2.0806 -0.2452
   41CHL1    C5 2968   5.218   5.885   2.650  0.0672 -0.1636 -0.2923
   41CHL1    C6 2969   5.293   5.983   2.707  0.8970  0.3545  0.0932
   41CHL1    H6 2970   5.379   6.018   2.648 -0.4007  0.9440 -1.4749
   41CHL1    C7 2971   5.288   6.027   2.850  0.7685  0.1881 -0.2478
   41CHL1   H7A 2972   5.391   6.039   2.891  0.7468 -2.1182  0.5686
   41CHL1   H7B 2973   5.242   6.128   2.858  1.9564  0.7136  0.1212
   41CHL1    C8 2974   5.202   5.940   2.938  0.2616  0.7540  0.2066
   41CHL1    H8 2975   5.259   5.852   2.976  0.1048  1.1822  1.4399
   41CHL1   C14 2976   5.158   6.026   3.066 -0.0233 -0.4663  0.2353
   41CHL1   H14 2977   5.091   6.108   3.031  0.0861  1.3254  3.9579
   41CHL1   C15 2978   5.267   6.094   3.150 -0.5577 -0.5436  0.2540
   41CHL1  H15A 2979   5.339   6.014   3.178  3.0476  1.9984 -1.3292
   41CHL1  H15B 2980   5.328   6.170   3.095  0.8258 -1.5833  0.3299
   41CHL1   C16 2981   5.187   6.140   3.272  0.5028  0.0467 -0.4043
   41CHL1  H16A 2982   5.253   6.109   3.356  0.6366  0.3590 -0.3959
   41CHL1  H16B 2983   5.162   6.247   3.267 -0.1117 -0.1445 -1.4823
   41CHL1   C17 2984   5.052   6.066   3.268  0.2566 -0.8026  0.1755
   41CHL1   H17 2985   4.987   6.139   3.215  1.5419  0.0831 -0.2005
   41CHL1   C13 2986   5.058   5.954   3.164 -0.4254  0.3502  0.2205
   41CHL1   C18 2987   5.129   5.828   3.230  1.0606 -0.2960  1.6243
   41CHL1  H18A 2988   5.230   5.847   3.272  1.1690  2.2504  0.3581
   41CHL1  H18B 2989   5.065   5.783   3.308  0.1697 -2.2364 -0.1819
   41CHL1  H18C 2990   5.144   5.751   3.152  3.8826  2.2044 -0.4446
   41CHL1   C12 2991   4.932   5.919   3.077 -0.0712 -0.6602 -0.2947
   41CHL1  H12A 2992   4.849   5.870   3.132 -0.5082  2.8768  2.4476
   41CHL1  H12B 2993   4.888   6.018   3.052 -0.6786 -1.4911 -2.5616
   41CHL1   C11 2994   4.971   5.836   2.953 -0.5356  0.2375  0.1937
   41CHL1  H11A 2995   5.013   5.742   2.995 -1.7118 -1.6909 -2.7638
   41CHL1  H11B 2996   4.880   5.805   2.896  0.9073 -0.7731 -1.6131
   41CHL1    C9 2997   5.075   5.904   2.863 -0.5360  0.2331 -0.2319
   41CHL1    H9 2998   5.027   5.999   2.831  0.9652  0.7772 -0.9380
   41CHL1   C10 2999   5.104   5.828   2.733 -0.2621 -0.2202  0.4869
   41CHL1   C19 3000   5.151   5.682   2.773  0.5328  0.2823 -0.2072
   41CHL1  H19A 3001   5.245   5.692   2.831  1.4106  2.5039 -1.9247
   41CHL1  H19B 3002   5.069   5.629   2.826  1.1916 -0.1050  0.4224
   41CHL1  H19C 3003   5.169   5.629   2.677  2.8631 -3.2685  2.0918
   41CHL1    C1 3004   4.972   5.818   2.656  0.3166  0.4314  0.2711
   41CHL1   H1A 3005   4.909   5.741   2.707  3.1476 -1.1835  1.4186
   41CHL1   H1B 3006   4.931   5.922   2.656  1.7004  1.0071  2.1173
   41CHL1    C2 3007   4.984   5.780   2.509 -0.5955  0.8963  0.3870
   41CHL1   H2A 3008   4.888   5.802   2.459 -0.4364  1.4880  0.3440
   41CHL1   H2B 3009   5.000   5.670   2.501  0.5639  1.1452 -0.8254
   41CHL1   C20 3010   5.003   6.029   3.404 -0.2512  0.0035 -0.1577
   41CHL1   H20 3011   5.075   5.960   3.453  0.3940  1.6611  1.2884
   41CHL1   C21 3012   4.862   5.965   3.394  0.0751 -0.1074 -0.0542
   41CHL1  H21A 3013   4.790   6.024   3.333  0.3740  1.6839  1.2830
   41CHL1  H21B 3014   4.817   5.953   3.494 -1.2321  3.9893 -0.0352
   41CHL1  H21C 3015   4.873   5.859   3.362 -0.9992  0.1400 -1.2798
   41CHL1   C22 3016   4.993   6.147   3.504  1.0660  0.5091  1.1885
   41CHL1  H22A 3017   5.079   6.216   3.495  1.2464  0.2243  0.7023
   41CHL1  H22B 3018   4.903   6.208   3.479  0.5901 -1.3127 -1.7607
   41CHL1   C23 3019   4.977   6.106   3.651 -0.8660  0.5798  0.8390
   41CHL1  H23A 3020   4.887   6.043   3.669  0.5187 -2.0389 -0.9764
   41CHL1  H23B 3021   5.070   6.058   3.687 -0.5589  0.6217  0.1077
   41CHL1   C24 3022   4.960   6.231   3.744 -0.3661  0.5170 -1.5150
   41CHL1  H24A 3023   5.046   6.302   3.742 -0.7450  0.9756 -1.5998
   41CHL1  H24B 3024   4.875   6.295   3.713 -0.8343  0.2401 -0.8126
   41CHL1   C25 3025   4.909   6.186   3.888 -0.1132  0.0538  0.4205
   41CHL1   H25 3026   4.819   6.124   3.874  1.8316 -2.6032 -0.8491
   41CHL1   C26 3027   5.005   6.091   3.957 -0.3383  0.2647  0.1215
   41CHL1  H26A 3028   5.105   6.128   3.985  0.5426  0.1749 -2.7404
   41CHL1  H26B 3029   4.961   6.053   4.052  1.8738  0.9522  1.4588
   41CHL1  H26C 3030   5.007   6.002   3.890 -2.5556  0.0896  0.2189
   41CHL1   C27 3031   4.866   6.304   3.974 -0.0807 -0.1558 -0.7503
   41CHL1  H27A 3032   4.939   6.388   3.984 -2.1975  1.6332 -0.0141
   41CHL1  H27B 3033   4.771   6.352   3.942 -0.1002  0.2091 -0.1597
   41CHL1  H27C 3034   4.837   6.267   4.075  3.7372 -5.7295 -1.4797
   42CHL1    C3 3035   6.306   4.957   2.655  0.5259 -0.1048 -0.5587
   42CHL1    H3 3036   6.379   5.040   2.667  0.5494  0.0534 -1.7012
   42CHL1    O3 3037   6.301   4.938   2.512  0.2071  0.0920 -0.6688
   42CHL1   H3' 3038   6.389   4.908   2.488 -0.2069  0.5006 -2.7620
   42CHL1    C4 3039   6.361   4.832   2.727  0.1914 -0.2610 -0.4211
   42CHL1   H4A 3040   6.294   4.748   2.697 -0.0812 -0.8245  1.6754
   42CHL1   H4B 3041   6.463   4.796   2.703  0.7001  0.8343  0.0823
   42CHL1    C5 3042   6.360   4.843   2.883 -0.3603 -0.5596  0.1602
   42CHL1    C6 3043   6.467   4.823   2.958 -0.3868 -0.0834 -0.6167
   42CHL1    H6 3044   6.560   4.787   2.911  1.0340 -0.8788  2.7260
   42CHL1    C7 3045   6.470   4.835   3.105  0.1752 -0.0088 -0.3536
   42CHL1   H7A 3046   6.543   4.764   3.150 -1.5686 -2.5779 -1.4844
   42CHL1   H7B 3047   6.514   4.934   3.133  0.8140 -0.4557  0.2586
   42CHL1    C8 3048   6.326   4.822   3.160  0.0197 -0.1758 -0.1552
   42CHL1    H8 3049   6.296   4.715   3.157  0.6663 -0.5024  2.9471
   42CHL1   C14 3050   6.325   4.849   3.308  0.3923  0.3572 -0.2412
   42CHL1   H14 3051   6.362   4.953   3.319 -0.5771  0.6725  0.0878
   42CHL1   C15 3052   6.420   4.766   3.403  0.1334 -0.6231  0.0425
   42CHL1  H15A 3053   6.433   4.668   3.354 -0.6761 -1.5341  1.6174
   42CHL1  H15B 3054   6.519   4.816   3.395 -0.6728  0.9788 -0.2654
   42CHL1   C16 3055   6.357   4.781   3.542  0.1369 -0.3634  0.6017
   42CHL1  H16A 3056   6.355   4.677   3.581 -0.1995 -0.1597  1.1455
   42CHL1  H16B 3057   6.418   4.852   3.602 -0.2416  1.2459 -0.8797
   42CHL1   C17 3058   6.225   4.874   3.523  0.6622  0.6099  0.3246
   42CHL1   H17 3059   6.256   4.980   3.514  1.8169  0.2639  0.1451
   42CHL1   C13 3060   6.184   4.851   3.379  0.3517 -0.2803 -0.2749
   42CHL1   C18 3061   6.120   4.711   3.352  0.3818  0.2734  0.4415
   42CHL1  H18A 3062   6.098   4.694   3.245 -0.0246 -1.6289  0.8209
   42CHL1  H18B 3063   6.191   4.633   3.386  0.2220  0.6711  1.7245
   42CHL1  H18C 3064   6.025   4.702   3.409  0.7252 -1.4987  0.7471
   42CHL1   C12 3065   6.110   4.962   3.309  0.5227 -0.4082  0.2667
   42CHL1  H12A 3066   6.007   4.970   3.349  1.6904  1.7076  3.0350
   42CHL1  H12B 3067   6.165   5.056   3.330  0.5838 -0.0181 -1.5672
   42CHL1   C11 3068   6.093   4.952   3.154  0.9426  0.3592 -0.2426
   42CHL1  H11A 3069   6.010   4.880   3.143  2.3539 -1.7661  2.5138
   42CHL1  H11B 3070   6.052   5.048   3.115 -1.2050 -0.2717  0.4053
   42CHL1    C9 3071   6.230   4.923   3.089  0.0262 -0.2848 -0.5458
   42CHL1    H9 3072   6.272   5.026   3.095 -0.2389 -0.2021 -0.0482
   42CHL1   C10 3073   6.219   4.895   2.938  0.2117 -0.0079  0.1811
   42CHL1   C19 3074   6.124   4.771   2.926 -0.5188  0.0519  0.5115
   42CHL1  H19A 3075   6.119   4.726   2.824  1.3804  1.6876 -0.3308
   42CHL1  H19B 3076   6.152   4.699   3.006 -2.8721 -2.4854 -0.8394
   42CHL1  H19C 3077   6.018   4.797   2.946 -0.7549  0.0120 -0.6299
   42CHL1    C1 3078   6.177   5.028   2.864  0.0205  0.2541  0.0651
   42CHL1   H1A 3079   6.070   5.039   2.892 -0.7427 -2.0698 -1.7615
   42CHL1   H1B 3080   6.240   5.112   2.901 -1.0486  1.5100 -0.9011
   42CHL1    C2 3081   6.173   5.009   2.713  0.1890 -0.1561  0.7021
   42CHL1   H2A 3082   6.148   5.111   2.678 -2.7683 -0.4343  1.9030
   42CHL1   H2B 3083   6.106   4.930   2.672  1.4523 -1.8344  1.8075
   42CHL1   C20 3084   6.131   4.839   3.641  1.0341 -0.1191 -0.2262
   42CHL1   H20 3085   6.101   4.732   3.641 -0.0581  0.1558 -2.1411
   42CHL1   C21 3086   5.993   4.911   3.632  0.4327  0.8245  0.3133
   42CHL1  H21A 3087   6.002   5.019   3.655  0.2307  0.8004  0.5107
   42CHL1  H21B 3088   5.923   4.865   3.705  0.6734  1.4494  0.9403
   42CHL1  H21C 3089   5.949   4.899   3.530  1.8571  1.2104 -0.3638
   42CHL1   C22 3090   6.199   4.860   3.778 -0.3610 -0.1470  0.1860
   42CHL1  H22A 3091   6.284   4.788   3.782 -1.4055 -1.5331 -1.7282
   42CHL1  H22B 3092   6.232   4.965   3.795  1.3219 -0.0831 -3.1068
   42CHL1   C23 3093   6.112   4.835   3.904 -0.0623  0.4046 -0.4581
   42CHL1  H23A 3094   6.035   4.912   3.927  0.4357  0.0136  2.8767
   42CHL1  H23B 3095   6.055   4.739   3.895  3.0588 -1.4113 -1.5833
   42CHL1   C24 3096   6.205   4.829   4.026  0.2433 -0.3843  0.6534
   42CHL1  H24A 3097   6.257   4.731   4.025  0.7857 -0.0980 -0.6273
   42CHL1  H24B 3098   6.281   4.910   4.024  1.0173 -1.1094  0.2298
   42CHL1   C25 3099   6.127   4.845   4.164  0.0969  0.4347  0.0497
   42CHL1   H25 3100   6.081   4.946   4.168  1.4192  0.9669  2.1417
   42CHL1   C26 3101   6.019   4.738   4.172  0.1556  1.0507  0.3490
   42CHL1  H26A 3102   6.062   4.637   4.188  1.0590  1.1862 -1.1515
   42CHL1  H26B 3103   5.954   4.765   4.259  0.3402  1.4245  0.3688
   42CHL1  H26C 3104   5.961   4.731   4.078 -0.5628 -1.0472  0.9178
   42CHL1   C27 3105   6.226   4.847   4.276 -0.0565  0.0114  0.1346
   42CHL1  H27A 3106   6.182   4.854   4.378 -0.2275 -0.8570  0.1241
   42CHL1  H27B 3107   6.286   4.755   4.264  0.3531  0.3709 -0.6312
   42CHL1  H27C 3108   6.303   4.927   4.269  1.0693 -1.1286 -0.6529
   43CHL1    C3 3109   2.685   5.891   2.588  0.1118  0.2504 -0.2704
   43CHL1    H3 3110   2.680   5.780   2.596 -2.0591  0.5490  3.3209
   43CHL1    O3 3111   2.668   5.922   2.448  0.0134  0.3254  0.2443
   43CHL1   H3' 3112   2.615   5.850   2.413  0.4516  0.5289 -0.8348
   43CHL1    C4 3113   2.574   5.961   2.671  0.0860 -0.3094 -0.7015
   43CHL1   H4A 3114   2.572   6.067   2.637 -0.0145 -0.0851 -0.0009
   43CHL1   H4B 3115   2.479   5.908   2.644 -0.7659 -0.6773  2.7377
   43CHL1    C5 3116   2.587   5.971   2.818  0.3280  0.6365 -0.0387
   43CHL1    C6 3117   2.481   5.938   2.894 -0.8258 -0.7628  0.4786
   43CHL1    H6 3118   2.390   5.900   2.847  0.6614 -0.2664 -2.9027
   43CHL1    C7 3119   2.478   5.922   3.040 -0.3022 -0.6585  0.5891
   43CHL1   H7A 3120   2.390   5.970   3.088 -1.2180 -0.5807 -1.1429
   43CHL1   H7B 3121   2.464   5.812   3.053 -0.4986 -0.5779  1.0939
   43CHL1    C8 3122   2.599   5.969   3.105  0.1199  0.0953 -0.0178
   43CHL1    H8 3123   2.586   6.079   3.103  1.4034  0.2523 -0.1356
   43CHL1   C14 3124   2.606   5.919   3.245  0.8187 -0.2025  0.3935
   43CHL1   H14 3125   2.623   5.811   3.226  1.9069  0.0620 -0.1739
   43CHL1   C15 3126   2.486   5.930   3.337 -0.4081 -0.2188 -0.5608
   43CHL1  H15A 3127   2.424   6.022   3.332  0.1378  0.2488  0.8153
   43CHL1  H15B 3128   2.413   5.854   3.302 -0.2066 -2.1611  3.0465
   43CHL1   C16 3129   2.548   5.890   3.468  0.5056  0.0325  0.4380
   43CHL1  H16A 3130   2.511   5.964   3.542 -1.3580  1.9750 -2.3229
   43CHL1  H16B 3131   2.520   5.788   3.501  0.3408 -0.4221 -1.0741
   43CHL1   C17 3132   2.702   5.897   3.450 -0.1450 -0.0584 -0.3201
   43CHL1   H17 3133   2.738   5.795   3.425 -0.1016 -0.9303  3.0016
   43CHL1   C13 3134   2.732   5.978   3.315  0.1463  0.6128 -0.7972
   43CHL1   C18 3135   2.713   6.132   3.345  0.6140 -0.1416 -0.0834
   43CHL1  H18A 3136   2.813   6.170   3.374  1.0703 -0.4772 -1.1972
   43CHL1  H18B 3137   2.679   6.202   3.266 -4.0156 -3.6892 -1.5082
   43CHL1  H18C 3138   2.655   6.140   3.440 -0.6437 -0.5515 -0.8047
   43CHL1   C12 3139   2.867   5.929   3.246 -0.5981 -0.5247 -0.1403
   43CHL1  H12A 3140   2.960   5.963   3.296 -0.5953 -3.3017  1.8608
   43CHL1  H12B 3141   2.867   5.819   3.232  0.6364 -0.7699  1.5789
   43CHL1   C11 3142   2.865   5.989   3.104 -0.4007  0.0350  0.0638
   43CHL1  H11A 3143   2.864   6.100   3.111  1.1262  0.1087 -0.7278
   43CHL1  H11B 3144   2.953   5.948   3.049  0.4290 -0.4298  1.7013
   43CHL1    C9 3145   2.731   5.947   3.027  0.1411  0.4087  0.6620
   43CHL1    H9 3146   2.750   5.838   3.023 -1.0000  0.1553  1.7852
   43CHL1   C10 3147   2.727   5.998   2.884 -0.2834 -0.3285  0.5445
   43CHL1   C19 3148   2.754   6.153   2.882  0.4652  0.6683  0.1177
   43CHL1  H19A 3149   2.861   6.163   2.909  0.6627  3.0171 -1.3924
   43CHL1  H19B 3150   2.718   6.193   2.785 -0.7575 -1.4433 -0.3337
   43CHL1  H19C 3151   2.686   6.202   2.955  0.7947  0.0165  0.8669
   43CHL1    C1 3152   2.838   5.938   2.794 -0.0129  0.9964  0.2128
   43CHL1   H1A 3153   2.927   5.998   2.821 -0.1250  0.8696  0.8791
   43CHL1   H1B 3154   2.867   5.833   2.817  0.0749  0.9633 -0.0469
   43CHL1    C2 3155   2.818   5.948   2.638  0.5349 -0.0509 -1.0586
   43CHL1   H2A 3156   2.900   5.891   2.590  1.7269 -0.9069  1.8991
   43CHL1   H2B 3157   2.826   6.057   2.617 -1.4320  0.0448 -1.3902
   43CHL1   C20 3158   2.775   5.950   3.580 -0.2215 -0.1867  0.1095
   43CHL1   H20 3159   2.727   6.044   3.617  3.0248  1.4734  0.2466
   43CHL1   C21 3160   2.929   5.973   3.560  0.7011 -0.7686  0.3643
   43CHL1  H21A 3161   2.989   6.006   3.648  0.8261 -0.1075  0.0402
   43CHL1  H21B 3162   2.946   6.053   3.484  0.7219 -1.4029 -0.3019
   43CHL1  H21C 3163   2.979   5.885   3.515  0.3114 -1.0010  0.3903
   43CHL1   C22 3164   2.754   5.857   3.700 -0.3502  0.1601 -0.0506
   43CHL1  H22A 3165   2.649   5.820   3.704 -0.4896  0.7178  2.0399
   43CHL1  H22B 3166   2.816   5.765   3.703 -0.2397  0.2268 -0.2961
   43CHL1   C23 3167   2.754   5.916   3.844  1.1731  0.3222 -0.3496
   43CHL1  H23A 3168   2.861   5.941   3.860  1.3776 -1.2666  0.8862
   43CHL1  H23B 3169   2.685   6.003   3.839 -0.4715 -0.9246  0.2602
   43CHL1   C24 3170   2.704   5.822   3.948 -0.5890 -0.2994 -0.6740
   43CHL1  H24A 3171   2.593   5.819   3.943 -0.7028  2.3326 -0.5191
   43CHL1  H24B 3172   2.738   5.718   3.932 -1.9835 -0.8890  0.1588
   43CHL1   C25 3173   2.754   5.857   4.090  0.4140  0.0859  0.3323
   43CHL1   H25 3174   2.864   5.842   4.084  0.4552  0.4677  0.1314
   43CHL1   C26 3175   2.716   6.001   4.129  0.0289 -0.0475 -0.2845
   43CHL1  H26A 3176   2.767   6.073   4.061 -0.3805  1.3838  0.9102
   43CHL1  H26B 3177   2.606   6.012   4.123 -0.3512 -1.9695  2.4690
   43CHL1  H26C 3178   2.753   6.017   4.232 -0.8980 -0.1201  0.0672
   43CHL1   C27 3179   2.698   5.767   4.202  0.0916 -0.4243  0.2286
   43CHL1  H27A 3180   2.765   5.774   4.291 -0.5303 -2.9436  0.9189
   43CHL1  H27B 3181   2.595   5.797   4.231 -0.2439  0.2802 -1.6049
   43CHL1  H27C 3182   2.700   5.663   4.166  1.3698 -0.1257 -0.6031
   44CHL1    C3 3183   5.975   5.583   2.634  0.0816  0.5556  0.3793
   44CHL1    H3 3184   5.934   5.686   2.641 -0.8028  0.2294  0.0239
   44CHL1    O3 3185   5.999   5.552   2.496 -0.0976  0.2850 -0.2439
   44CHL1   H3' 3186   6.054   5.473   2.498 -0.8415 -0.2165  0.9442
   44CHL1    C4 3187   6.115   5.584   2.710 -0.0036 -0.6398 -0.1520
   44CHL1   H4A 3188   6.157   5.482   2.694  1.2661  0.1976 -2.3552
   44CHL1   H4B 3189   6.182   5.661   2.666  0.0471 -1.5694 -1.7092
   44CHL1    C5 3190   6.085   5.610   2.856 -0.6069 -0.2614 -0.3535
   44CHL1    C6 3191   6.146   5.707   2.920 -0.3701 -0.3679 -0.1705
   44CHL1    H6 3192   6.220   5.773   2.870 -0.3395 -0.4324 -0.2103
   44CHL1    C7 3193   6.121   5.733   3.070 -1.0796  0.0087 -0.9641
   44CHL1   H7A 3194   6.220   5.773   3.101 -1.5133 -0.3912  0.9922
   44CHL1   H7B 3195   6.043   5.812   3.080 -0.4079  0.4222  1.2397
   44CHL1    C8 3196   6.063   5.617   3.146  0.3138  0.2417 -0.5711
   44CHL1    H8 3197   6.135   5.534   3.162  0.3832  0.5353  0.6696
   44CHL1   C14 3198   6.018   5.668   3.277  0.4014 -0.1489 -0.9245
   44CHL1   H14 3199   5.934   5.739   3.259  1.1221  1.0784  0.4581
   44CHL1   C15 3200   6.115   5.742   3.374 -0.0715  0.4861  0.4164
   44CHL1  H15A 3201   6.210   5.686   3.369  0.0312  0.3262  3.6000
   44CHL1  H15B 3202   6.127   5.841   3.324 -0.7926 -0.3403 -1.4399
   44CHL1   C16 3203   6.043   5.738   3.507 -0.0061  0.3320 -0.3192
   44CHL1  H16A 3204   6.113   5.688   3.577  0.5298 -0.2004 -1.2263
   44CHL1  H16B 3205   6.004   5.837   3.540 -2.7140 -0.2543 -1.5724
   44CHL1   C17 3206   5.914   5.643   3.490  0.1825  0.7494 -0.7881
   44CHL1   H17 3207   5.832   5.712   3.461 -1.5057 -1.0654 -0.5004
   44CHL1   C13 3208   5.958   5.564   3.367 -0.0715  0.2370  0.2857
   44CHL1   C18 3209   6.048   5.448   3.412 -0.7427 -0.0709  0.5812
   44CHL1  H18A 3210   6.105   5.401   3.329 -1.3128  1.7849 -0.8926
   44CHL1  H18B 3211   6.132   5.484   3.474  2.6988 -2.4100 -2.5226
   44CHL1  H18C 3212   5.999   5.365   3.467 -1.8728 -0.8403 -1.4880
   44CHL1   C12 3213   5.837   5.501   3.292 -0.3688 -0.0107 -0.1855
   44CHL1  H12A 3214   5.787   5.421   3.351  0.3920  0.9522  1.8108
   44CHL1  H12B 3215   5.758   5.579   3.288 -0.1724  0.1954 -0.0469
   44CHL1   C11 3216   5.870   5.443   3.154  0.4187 -0.1064 -0.0348
   44CHL1  H11A 3217   5.932   5.353   3.171 -0.5653 -0.8201 -0.1811
   44CHL1  H11B 3218   5.784   5.407   3.093  0.8056 -0.8402 -0.1514
   44CHL1    C9 3219   5.943   5.552   3.069  0.1888  0.6082  0.5601
   44CHL1    H9 3220   5.872   5.637   3.063 -0.1210  0.2507 -1.0053
   44CHL1   C10 3221   5.987   5.506   2.924  0.5859 -0.1266  0.2243
   44CHL1   C19 3222   6.056   5.364   2.933  0.0343  1.1148 -0.4172
   44CHL1  H19A 3223   6.125   5.358   3.020  1.1954 -0.1139 -1.4021
   44CHL1  H19B 3224   5.979   5.285   2.941 -0.5565  1.6797 -0.4986
   44CHL1  H19C 3225   6.126   5.342   2.850  0.3005  1.7806 -0.3762
   44CHL1    C1 3226   5.856   5.489   2.837 -0.1313 -0.9517 -0.1368
   44CHL1   H1A 3227   5.787   5.409   2.873 -2.1005  1.6256  2.0249
   44CHL1   H1B 3228   5.796   5.582   2.849  1.3976  0.0959 -0.4577
   44CHL1    C2 3229   5.881   5.472   2.690 -0.0603 -0.2261 -0.0043
   44CHL1   H2A 3230   5.792   5.452   2.627  0.4055  5.3978 -2.7259
   44CHL1   H2B 3231   5.945   5.381   2.684  0.5699  0.0871  1.7058
   44CHL1   C20 3232   5.873   5.569   3.622 -0.0851  0.0687  0.5647
   44CHL1   H20 3233   5.961   5.521   3.670 -0.4024 -0.1125  0.9736
   44CHL1   C21 3234   5.758   5.466   3.598  0.4325 -0.1820  0.4401
   44CHL1  H21A 3235   5.679   5.513   3.536 -0.7577 -2.9262 -0.1995
   44CHL1  H21B 3236   5.714   5.436   3.695 -0.5628 -0.2156 -0.0230
   44CHL1  H21C 3237   5.786   5.369   3.552  2.2612  0.2690  0.5331
   44CHL1   C22 3238   5.835   5.670   3.732  0.0348  0.7019 -0.4675
   44CHL1  H22A 3239   5.901   5.759   3.728 -0.4105  1.1067  0.9963
   44CHL1  H22B 3240   5.736   5.703   3.693  0.5662  0.8755 -1.6777
   44CHL1   C23 3241   5.827   5.609   3.870  0.0461 -0.1796 -0.6552
   44CHL1  H23A 3242   5.767   5.515   3.866 -0.3560  0.1332 -1.9655
   44CHL1  H23B 3243   5.929   5.578   3.900  0.1363  3.3700  3.1391
   44CHL1   C24 3244   5.778   5.705   3.985 -0.1246  0.1251 -0.1797
   44CHL1  H24A 3245   5.834   5.800   3.972 -1.2461  1.0634  1.6841
   44CHL1  H24B 3246   5.670   5.722   3.968 -0.1594 -0.3522 -0.4575
   44CHL1   C25 3247   5.804   5.652   4.129 -0.3463  0.3251  0.4081
   44CHL1   H25 3248   5.908   5.614   4.125 -0.8391 -1.3164  2.2936
   44CHL1   C26 3249   5.780   5.765   4.229  0.0109 -0.0719  0.8494
   44CHL1  H26A 3250   5.840   5.857   4.209  1.6311 -1.0854  0.8951
   44CHL1  H26B 3251   5.675   5.797   4.242 -0.0544  0.2163 -0.3054
   44CHL1  H26C 3252   5.826   5.734   4.326  2.3972  1.0456  0.1204
   44CHL1   C27 3253   5.717   5.529   4.169 -0.0487 -0.3260 -0.3386
   44CHL1  H27A 3254   5.691   5.477   4.075  0.8560  2.1416 -2.0085
   44CHL1  H27B 3255   5.766   5.455   4.236 -2.3715 -2.0183 -0.4480
   44CHL1  H27C 3256   5.626   5.565   4.221 -0.6089 -1.1859 -0.7099
   45CHL1    C3 3257   1.241   4.913   2.468  0.1686  0.1828  0.8015
   45CHL1    H3 3258   1.252   4.827   2.537 -1.3794 -1.3267 -0.7838
   45CHL1    O3 3259   1.237   4.863   2.342  0.0430  0.9684  0.5310
   45CHL1   H3' 3260   1.244   4.933   2.276  0.6706 -0.6983 -1.2164
   45CHL1    C4 3261   1.102   4.974   2.492 -0.4571 -0.8288  0.3702
   45CHL1   H4A 3262   1.057   5.039   2.415 -1.7811 -0.4896  1.4263
   45CHL1   H4B 3263   1.040   4.883   2.477  0.9530 -1.6462 -0.6644
   45CHL1    C5 3264   1.107   5.037   2.634  0.0621 -0.0061 -0.3268
   45CHL1    C6 3265   1.043   4.988   2.733 -0.5262  0.1828  0.4034
   45CHL1    H6 3266   0.965   4.915   2.710 -0.0116 -0.5741  1.0524
   45CHL1    C7 3267   1.031   5.058   2.873  0.3149  0.1236 -0.4163
   45CHL1   H7A 3268   0.925   5.058   2.907  0.6474 -0.1477  0.6233
   45CHL1   H7B 3269   1.096   5.006   2.947 -2.9903  0.2279  2.7281
   45CHL1    C8 3270   1.082   5.206   2.863 -1.0289 -0.2486 -0.4886
   45CHL1    H8 3271   0.998   5.262   2.815 -1.3167  1.0837  1.4824
   45CHL1   C14 3272   1.107   5.259   3.007  0.1588  0.6643  0.3337
   45CHL1   H14 3273   1.199   5.208   3.043 -1.0745 -1.5015  0.4876
   45CHL1   C15 3274   1.003   5.227   3.128 -0.2556  0.2101 -0.3607
   45CHL1  H15A 3275   0.903   5.217   3.082  0.2431  3.1136 -2.2187
   45CHL1  H15B 3276   1.023   5.127   3.172 -0.9441  0.2648  0.0787
   45CHL1   C16 3277   1.012   5.344   3.223  0.5690  0.2015 -0.7321
   45CHL1  H16A 3278   0.926   5.410   3.201  0.7338  1.2019  1.4766
   45CHL1  H16B 3279   1.026   5.315   3.330  2.0775  0.3388 -0.8745
   45CHL1   C17 3280   1.143   5.413   3.171  0.6793  0.3876 -0.2684
   45CHL1   H17 3281   1.220   5.345   3.214  0.1337 -0.9977 -1.4258
   45CHL1   C13 3282   1.141   5.403   3.014  0.1924 -0.2368 -0.4361
   45CHL1   C18 3283   1.036   5.489   2.953 -0.0838 -0.0602 -0.6337
   45CHL1  H18A 3284   1.047   5.595   2.984 -1.3877 -0.1492  0.1806
   45CHL1  H18B 3285   1.029   5.479   2.843 -1.0582  0.3625 -0.6227
   45CHL1  H18C 3286   0.935   5.460   2.990  0.3042 -2.2026 -1.1831
   45CHL1   C12 3287   1.276   5.416   2.938  0.2653  0.1817  0.0329
   45CHL1  H12A 3288   1.308   5.522   2.928  1.1375 -0.1258 -0.4903
   45CHL1  H12B 3289   1.353   5.376   3.006  0.8565  1.4364  0.1264
   45CHL1   C11 3290   1.280   5.356   2.800  0.2000 -0.3609 -0.4810
   45CHL1  H11A 3291   1.212   5.414   2.733  1.6016  0.5335 -1.1442
   45CHL1  H11B 3292   1.383   5.359   2.760 -0.9180  2.0072 -3.3897
   45CHL1    C9 3293   1.213   5.212   2.789  0.1728 -0.1593 -0.1053
   45CHL1    H9 3294   1.291   5.150   2.838  2.3413  2.0682 -0.6770
   45CHL1   C10 3295   1.207   5.153   2.648 -0.5023  0.4127  0.6964
   45CHL1   C19 3296   1.163   5.265   2.554  0.5758 -0.2192  0.2300
   45CHL1  H19A 3297   1.240   5.345   2.542  2.0262 -1.5879  0.2460
   45CHL1  H19B 3298   1.154   5.236   2.447  0.5783  1.7655 -0.3330
   45CHL1  H19C 3299   1.067   5.314   2.580  0.9896  0.9470 -0.3986
   45CHL1    C1 3300   1.343   5.096   2.608 -0.6277 -0.5015 -0.1723
   45CHL1   H1A 3301   1.417   5.178   2.598  0.3654 -1.2308  0.9530
   45CHL1   H1B 3302   1.379   5.023   2.684 -0.7378  1.0947  1.4587
   45CHL1    C2 3303   1.346   5.018   2.476 -0.3905  0.0738  0.2958
   45CHL1   H2A 3304   1.446   4.975   2.456 -1.1643 -1.5736 -0.1275
   45CHL1   H2B 3305   1.327   5.085   2.390  2.3132  0.9264  0.3367
   45CHL1   C20 3306   1.158   5.550   3.231 -0.5413 -0.4661 -0.1905
   45CHL1   H20 3307   1.107   5.632   3.176 -1.0262  0.2175  1.2531
   45CHL1   C21 3308   1.310   5.575   3.251  0.2965  0.3269 -0.0853
   45CHL1  H21A 3309   1.339   5.505   3.332 -0.9425  0.6751  0.6734
   45CHL1  H21B 3310   1.318   5.679   3.287  1.9684  0.0973  0.2409
   45CHL1  H21C 3311   1.375   5.560   3.162  0.4152  0.5192 -0.0312
   45CHL1   C22 3312   1.102   5.554   3.376 -0.4078 -0.1197  0.6568
   45CHL1  H22A 3313   0.997   5.518   3.385 -0.2981 -1.3262 -2.2099
   45CHL1  H22B 3314   1.171   5.483   3.425  0.0863 -1.1370 -1.4676
   45CHL1   C23 3315   1.103   5.690   3.444 -0.5745 -0.8268 -0.2858
   45CHL1  H23A 3316   1.209   5.712   3.469 -1.1351  1.1626  0.4132
   45CHL1  H23B 3317   1.070   5.773   3.377  0.0532 -0.7119 -0.4590
   45CHL1   C24 3318   1.005   5.694   3.566  0.1219  0.3912 -0.3112
   45CHL1  H24A 3319   0.900   5.711   3.533 -0.2711  1.5655  1.5175
   45CHL1  H24B 3320   1.015   5.591   3.606  3.0858  0.3132 -1.1501
   45CHL1   C25 3321   1.032   5.805   3.670  0.5010  0.7712  0.0587
   45CHL1   H25 3322   1.141   5.806   3.693  0.6210  0.4589 -0.4781
   45CHL1   C26 3323   1.000   5.946   3.610  0.1793  0.1898 -0.1968
   45CHL1  H26A 3324   0.902   5.941   3.558  0.1562  1.6535 -0.3189
   45CHL1  H26B 3325   1.004   6.013   3.698  1.2796 -1.1641  0.7906
   45CHL1  H26C 3326   1.074   5.976   3.533  2.8617  1.4236  2.7481
   45CHL1   C27 3327   0.954   5.787   3.805  0.9917  0.0812 -0.1882
   45CHL1  H27A 3328   0.991   5.868   3.871  0.6946  1.2018 -1.3863
   45CHL1  H27B 3329   0.844   5.801   3.797  0.9336 -0.9192 -1.4021
   45CHL1  H27C 3330   0.990   5.691   3.850  1.1642  0.3285  0.2034
   46CHL1    C3 3331   5.075   6.496   2.463 -0.2726 -0.3206  0.0301
   46CHL1    H3 3332   4.967   6.519   2.449  0.4129  1.9133 -2.1082
   46CHL1    O3 3333   5.128   6.493   2.328 -0.1878  0.2154  0.2163
   46CHL1   H3' 3334   5.079   6.424   2.283  1.3821  0.5203 -2.0021
   46CHL1    C4 3335   5.140   6.606   2.552  0.1823 -0.1644  0.5708
   46CHL1   H4A 3336   5.244   6.571   2.571 -0.5561 -2.1788  0.9853
   46CHL1   H4B 3337   5.157   6.706   2.505  0.9675 -0.4699  0.1984
   46CHL1    C5 3338   5.079   6.619   2.685 -0.4179 -0.1110  0.0713
   46CHL1    C6 3339   5.029   6.734   2.732 -0.0232  0.5789 -0.1454
   46CHL1    H6 3340   5.042   6.824   2.671 -1.8145  1.8404  1.2959
   46CHL1    C7 3341   4.969   6.751   2.870  0.3264 -0.0937  0.4288
   46CHL1   H7A 3342   5.015   6.844   2.909  1.3297 -2.1669  4.4366
   46CHL1   H7B 3343   4.863   6.770   2.843  0.6381  1.8997  0.5342
   46CHL1    C8 3344   4.978   6.628   2.965  0.3700  0.3078  0.1222
   46CHL1    H8 3345   5.074   6.628   3.020  0.2974  0.4502  0.2485
   46CHL1   C14 3346   4.870   6.629   3.079  1.0152  0.5133  0.0238
   46CHL1   H14 3347   4.776   6.622   3.018  1.3941 -1.7397 -0.3667
   46CHL1   C15 3348   4.858   6.760   3.160 -0.0996  0.2204  0.4510
   46CHL1  H15A 3349   4.957   6.791   3.199  1.2477  0.1060 -2.7410
   46CHL1  H15B 3350   4.816   6.844   3.102  0.1148 -1.4958 -2.2826
   46CHL1   C16 3351   4.764   6.714   3.280  0.0251 -0.3116 -0.4206
   46CHL1  H16A 3352   4.818   6.726   3.376 -1.5138 -0.1941  0.4472
   46CHL1  H16B 3353   4.663   6.759   3.286  0.4955  0.6815  0.2019
   46CHL1   C17 3354   4.747   6.559   3.259  0.4512 -0.4688  0.0056
   46CHL1   H17 3355   4.659   6.531   3.197 -0.1183  0.7385  0.2544
   46CHL1   C13 3356   4.863   6.511   3.167  0.7266 -0.1325 -0.6687
   46CHL1   C18 3357   4.987   6.505   3.260  0.3141  0.5614  0.2817
   46CHL1  H18A 3358   5.076   6.481   3.199  1.0312  1.4238  0.9729
   46CHL1  H18B 3359   5.009   6.606   3.303 -0.5468  2.1837 -2.9434
   46CHL1  H18C 3360   5.002   6.435   3.345 -0.8275  1.3342  1.1467
   46CHL1   C12 3361   4.849   6.388   3.085  0.2862 -0.3988  0.4876
   46CHL1  H12A 3362   4.840   6.300   3.151 -1.4399  0.9476  2.1009
   46CHL1  H12B 3363   4.751   6.400   3.034 -0.0365  0.4966  1.3005
   46CHL1   C11 3364   4.959   6.369   2.973  0.8755 -0.2947 -0.1145
   46CHL1  H11A 3365   5.053   6.351   3.030 -0.4322 -1.3571  1.7848
   46CHL1  H11B 3366   4.939   6.280   2.910 -0.5606 -0.1448  0.1079
   46CHL1    C9 3367   4.967   6.493   2.878 -0.5117 -0.0078 -0.4631
   46CHL1    H9 3368   4.868   6.500   2.828 -1.4850 -1.0860  1.2291
   46CHL1   C10 3369   5.068   6.483   2.763 -0.0466  0.0425 -0.5421
   46CHL1   C19 3370   5.209   6.452   2.828  0.3153  0.2294  0.0552
   46CHL1  H19A 3371   5.284   6.435   2.747  0.2501 -1.0398  0.2465
   46CHL1  H19B 3372   5.239   6.529   2.902 -0.9292  1.6113 -0.8744
   46CHL1  H19C 3373   5.211   6.349   2.871 -0.0226 -0.4672 -1.5831
   46CHL1    C1 3374   5.028   6.360   2.671 -0.3899 -0.1848 -0.0126
   46CHL1   H1A 3375   5.051   6.262   2.717  0.1780  0.2719  0.6858
   46CHL1   H1B 3376   4.918   6.360   2.660 -0.8031  1.5178  3.3864
   46CHL1    C2 3377   5.100   6.361   2.531  0.1288 -0.0031  0.1255
   46CHL1   H2A 3378   5.066   6.282   2.460 -2.5731  1.6607 -0.4910
   46CHL1   H2B 3379   5.210   6.355   2.540  0.3382  1.1859 -1.5866
   46CHL1   C20 3380   4.727   6.488   3.397  0.1132 -0.7500  0.0851
   46CHL1   H20 3381   4.824   6.489   3.452 -0.5231 -2.5541  1.2650
   46CHL1   C21 3382   4.685   6.344   3.372  0.3757  0.1787 -0.0696
   46CHL1  H21A 3383   4.618   6.323   3.286  1.6088  0.2669 -1.0732
   46CHL1  H21B 3384   4.659   6.291   3.466  3.0967 -1.2329 -0.0471
   46CHL1  H21C 3385   4.780   6.292   3.349  0.7835 -0.3550  2.6739
   46CHL1   C22 3386   4.622   6.561   3.483 -0.6911  1.2696  0.1799
   46CHL1  H22A 3387   4.618   6.495   3.573 -1.5515  2.4827  1.0448
   46CHL1  H22B 3388   4.668   6.658   3.512  0.8630 -0.3107  3.2642
   46CHL1   C23 3389   4.484   6.570   3.421 -0.3124  0.2975  0.5346
   46CHL1  H23A 3390   4.475   6.650   3.344 -0.8964  1.1388  1.4571
   46CHL1  H23B 3391   4.458   6.471   3.377 -2.0604  0.1914  1.7390
   46CHL1   C24 3392   4.380   6.602   3.535 -0.2336 -0.1169 -0.9778
   46CHL1  H24A 3393   4.409   6.544   3.625  2.9768  2.2330 -0.4215
   46CHL1  H24B 3394   4.397   6.706   3.569 -0.8475 -0.7190  1.2640
   46CHL1   C25 3395   4.227   6.578   3.506 -0.1595 -0.7239 -0.3130
   46CHL1   H25 3396   4.212   6.470   3.484  0.1932 -0.4670 -1.8921
   46CHL1   C26 3397   4.135   6.575   3.636 -0.2693  0.4494 -0.3840
   46CHL1  H26A 3398   4.150   6.493   3.709 -1.4074  2.5837  2.3276
   46CHL1  H26B 3399   4.170   6.669   3.683 -2.8235  0.9423  0.6201
   46CHL1  H26C 3400   4.027   6.576   3.608 -1.0351 -3.1051  2.0254
   46CHL1   C27 3401   4.160   6.667   3.387 -0.1224 -0.5419 -0.0993
   46CHL1  H27A 3402   4.134   6.772   3.410  1.0905  0.2250 -2.1195
   46CHL1  H27B 3403   4.240   6.669   3.310  1.1560  0.4786  1.2422
   46CHL1  H27C 3404   4.072   6.622   3.335 -0.7838  1.0716 -0.4090
   47CHL1    C3 3405   1.442   1.151   2.605 -0.2414  0.0959 -0.4091
   47CHL1    H3 3406   1.362   1.073   2.605  1.6078 -1.8379 -0.4367
   47CHL1    O3 3407   1.518   1.140   2.488 -0.4409  0.2452  0.0574
   47CHL1   H3' 3408   1.606   1.124   2.522 -1.4867  0.2518  2.8817
   47CHL1    C4 3409   1.386   1.292   2.616  0.2586  0.0933  0.8280
   47CHL1   H4A 3410   1.473   1.356   2.593  0.1753  0.6877  2.1593
   47CHL1   H4B 3411   1.311   1.305   2.535  0.6586  0.9312  0.5925
   47CHL1    C5 3412   1.333   1.331   2.748 -0.0092 -0.2450  0.1601
   47CHL1    C6 3413   1.211   1.386   2.756 -0.5917 -0.5829 -0.0022
   47CHL1    H6 3414   1.167   1.403   2.657  0.3519 -0.7198 -0.4436
   47CHL1    C7 3415   1.148   1.452   2.882  0.1853 -0.2959  0.3591
   47CHL1   H7A 3416   1.120   1.556   2.855 -2.8724 -1.2449 -0.4297
   47CHL1   H7B 3417   1.052   1.402   2.910  0.2612  0.5213  2.1057
   47CHL1    C8 3418   1.246   1.444   3.001  0.2157  0.5017  0.2608
   47CHL1    H8 3419   1.319   1.526   2.983  2.7612 -1.2902  2.0056
   47CHL1   C14 3420   1.177   1.474   3.128 -0.4406  0.5233  0.3351
   47CHL1   H14 3421   1.113   1.385   3.145  0.1351 -0.0501 -0.4734
   47CHL1   C15 3422   1.092   1.600   3.137 -0.8822 -0.2712  0.1334
   47CHL1  H15A 3423   1.152   1.687   3.105  0.3472 -0.2584  2.4114
   47CHL1  H15B 3424   0.998   1.585   3.080 -2.3468 -2.7475  3.0427
   47CHL1   C16 3425   1.076   1.624   3.285  0.3364 -0.1944 -0.1425
   47CHL1  H16A 3426   1.079   1.733   3.305  1.9308  0.2887 -2.8512
   47CHL1  H16B 3427   0.972   1.603   3.320  0.4564  1.1334  1.0621
   47CHL1   C17 3428   1.177   1.526   3.362 -0.5220 -0.4618  0.0281
   47CHL1   H17 3429   1.116   1.441   3.399  2.5174 -2.7324  0.0564
   47CHL1   C13 3430   1.271   1.480   3.247 -0.4450 -0.2153  0.6526
   47CHL1   C18 3431   1.382   1.586   3.227 -0.1136 -1.4483  0.0223
   47CHL1  H18A 3432   1.470   1.568   3.293  0.4253  0.0903 -0.2374
   47CHL1  H18B 3433   1.425   1.589   3.125 -0.3584  2.0080 -0.0475
   47CHL1  H18C 3434   1.340   1.689   3.233 -0.0318 -1.4800  1.4528
   47CHL1   C12 3435   1.326   1.327   3.262 -0.5849  0.1966 -0.0306
   47CHL1  H12A 3436   1.382   1.312   3.356 -0.6488  1.8890  0.2940
   47CHL1  H12B 3437   1.241   1.256   3.266  0.0063 -0.4360  2.0812
   47CHL1   C11 3438   1.404   1.280   3.139  0.1053 -0.1815 -0.1804
   47CHL1  H11A 3439   1.496   1.342   3.144 -1.2279  1.8083  0.2727
   47CHL1  H11B 3440   1.434   1.173   3.148  1.0677  0.1844  1.0089
   47CHL1    C9 3441   1.327   1.309   3.002  0.1637  1.0314 -1.2212
   47CHL1    H9 3442   1.252   1.227   3.007  1.7914 -0.4769 -1.5370
   47CHL1   C10 3443   1.411   1.297   2.877  0.9424  0.4153 -0.3791
   47CHL1   C19 3444   1.531   1.396   2.886 -0.6573 -0.1226 -0.3935
   47CHL1  H19A 3445   1.591   1.357   2.971 -0.1622  2.2784  0.3789
   47CHL1  H19B 3446   1.599   1.401   2.798 -1.9865  1.0998 -1.3531
   47CHL1  H19C 3447   1.513   1.500   2.919 -0.6976 -0.5531  0.9667
   47CHL1    C1 3448   1.453   1.151   2.859 -0.1632  0.0774 -0.2475
   47CHL1   H1A 3449   1.519   1.126   2.945 -0.1810 -2.1208 -0.8607
   47CHL1   H1B 3450   1.366   1.084   2.872  0.4419 -0.5782  0.4483
   47CHL1    C2 3451   1.533   1.120   2.726  0.3367 -0.1799  0.3825
   47CHL1   H2A 3452   1.569   1.014   2.729 -1.0035 -0.8021 -3.3399
   47CHL1   H2B 3453   1.619   1.189   2.715 -0.6576  1.0903  0.5554
   47CHL1   C20 3454   1.241   1.599   3.485  0.0566  0.5251  0.0716
   47CHL1   H20 3455   1.310   1.684   3.463  0.1907 -0.0861 -1.9893
   47CHL1   C21 3456   1.332   1.502   3.563  0.2460  0.5332  0.1752
   47CHL1  H21A 3457   1.269   1.413   3.584  0.5725 -0.1446 -1.6316
   47CHL1  H21B 3458   1.375   1.543   3.657  0.5797 -1.3009  0.8249
   47CHL1  H21C 3459   1.419   1.474   3.499  0.0120 -1.3302  0.6666
   47CHL1   C22 3460   1.138   1.657   3.587 -0.0353  0.0276  0.8616
   47CHL1  H22A 3461   1.064   1.715   3.528 -1.5337 -2.7112 -0.0368
   47CHL1  H22B 3462   1.071   1.582   3.634 -1.5079  0.0773 -1.0789
   47CHL1   C23 3463   1.184   1.750   3.703  0.3909  0.1926  0.3827
   47CHL1  H23A 3464   1.239   1.689   3.778 -2.5557 -0.1981  2.3054
   47CHL1  H23B 3465   1.253   1.833   3.678  0.3288  0.7144  1.9023
   47CHL1   C24 3466   1.069   1.822   3.781  0.3691  0.3304  0.6340
   47CHL1  H24A 3467   1.013   1.889   3.711  0.1606  1.4097  1.8116
   47CHL1  H24B 3468   0.996   1.754   3.829  1.8828 -0.1165  2.3268
   47CHL1   C25 3469   1.117   1.908   3.902  0.3022 -0.5013 -0.8778
   47CHL1   H25 3470   1.212   1.964   3.885  0.5303 -0.6639 -0.1897
   47CHL1   C26 3471   1.011   2.016   3.937  0.7573 -0.3945 -0.0306
   47CHL1  H26A 3472   0.907   1.977   3.949  0.1627  0.8525 -1.0144
   47CHL1  H26B 3473   1.045   2.076   4.023  0.3868 -1.6703  1.0226
   47CHL1  H26C 3474   1.006   2.084   3.849 -0.4614 -2.6510 -1.7723
   47CHL1   C27 3475   1.151   1.816   4.024 -0.4943  0.2347  0.0623
   47CHL1  H27A 3476   1.218   1.733   3.992  1.0258  1.3604  0.2809
   47CHL1  H27B 3477   1.205   1.881   4.096 -0.7894  1.4821 -0.8253
   47CHL1  H27C 3478   1.059   1.772   4.068  0.0327 -0.4662  0.4816
   48CHL1    C3 3479   6.712   2.507   2.739  0.0629 -0.1323 -0.5470
   48CHL1    H3 3480   6.741   2.606   2.780 -0.0202  0.0430 -0.9024
   48CHL1    O3 3481   6.719   2.500   2.597  0.2428 -0.6251  0.4338
   48CHL1   H3' 3482   6.676   2.583   2.577  0.4193 -0.7162 -0.3453
   48CHL1    C4 3483   6.818   2.401   2.794 -0.0086 -0.2075 -0.1317
   48CHL1   H4A 3484   6.818   2.306   2.736 -0.1610 -0.1959 -0.1493
   48CHL1   H4B 3485   6.918   2.445   2.773  1.0854 -1.3616  2.4311
   48CHL1    C5 3486   6.808   2.366   2.946 -0.3199  0.5018 -0.4522
   48CHL1    C6 3487   6.914   2.371   3.025 -0.0450 -0.7981 -0.3724
   48CHL1    H6 3488   7.015   2.379   2.983 -0.0630 -2.7782 -0.8720
   48CHL1    C7 3489   6.916   2.325   3.169  0.1520 -0.0958 -0.2847
   48CHL1   H7A 3490   7.000   2.255   3.191 -0.2411 -1.0131 -1.6001
   48CHL1   H7B 3491   6.913   2.412   3.238  2.1534 -0.2958  0.0781
   48CHL1    C8 3492   6.784   2.246   3.209  0.1985  0.6447 -0.1153
   48CHL1    H8 3493   6.784   2.147   3.158 -2.1192  0.5526  0.0079
   48CHL1   C14 3494   6.778   2.233   3.356 -0.4675 -0.5443  0.0468
   48CHL1   H14 3495   6.772   2.337   3.394 -2.3227 -0.8052  0.5255
   48CHL1   C15 3496   6.903   2.186   3.435  0.2765  0.6984 -0.5274
   48CHL1  H15A 3497   6.949   2.094   3.392  0.5540  0.5436  0.0878
   48CHL1  H15B 3498   6.977   2.268   3.434 -0.2716  1.2022 -3.3943
   48CHL1   C16 3499   6.846   2.145   3.570 -0.0454 -0.2288  0.0021
   48CHL1  H16A 3500   6.877   2.042   3.600 -1.0408 -0.6616 -0.3981
   48CHL1  H16B 3501   6.890   2.209   3.648  2.8899  1.9398 -3.3002
   48CHL1   C17 3502   6.691   2.156   3.562  0.2533  0.4710  0.0979
   48CHL1   H17 3503   6.665   2.257   3.602  1.9963  1.9206 -2.2865
   48CHL1   C13 3504   6.654   2.166   3.416  0.0085 -0.0253 -0.6076
   48CHL1   C18 3505   6.658   2.023   3.359  0.2479 -0.0462 -0.1856
   48CHL1  H18A 3506   6.751   1.970   3.387 -1.5010 -1.9157  2.2860
   48CHL1  H18B 3507   6.579   1.958   3.403  0.5292  0.5621  1.2525
   48CHL1  H18C 3508   6.645   2.033   3.249 -2.4764  2.1397  0.2786
   48CHL1   C12 3509   6.532   2.252   3.372  0.5756  0.3659  0.3931
   48CHL1  H12A 3510   6.433   2.216   3.407 -0.6089  3.3654  0.3039
   48CHL1  H12B 3511   6.541   2.353   3.417  0.7055 -0.5472  2.4703
   48CHL1   C11 3512   6.530   2.258   3.218  0.2348  0.1487 -0.1199
   48CHL1  H11A 3513   6.505   2.158   3.178  1.0297  0.0002 -0.2426
   48CHL1  H11B 3514   6.445   2.324   3.189  0.1501  0.4612  0.7938
   48CHL1    C9 3515   6.661   2.319   3.156 -0.6577 -0.1623 -0.6011
   48CHL1    H9 3516   6.657   2.423   3.195 -2.1882 -0.8720  1.2396
   48CHL1   C10 3517   6.665   2.335   2.997  0.1121 -0.9120  0.7836
   48CHL1   C19 3518   6.626   2.195   2.928 -0.3860  0.1437  0.3256
   48CHL1  H19A 3519   6.634   2.196   2.817 -2.0073 -2.6435  0.1279
   48CHL1  H19B 3520   6.697   2.119   2.966  0.0982  0.2097 -0.4223
   48CHL1  H19C 3521   6.519   2.174   2.949  0.1628 -2.6126  0.5838
   48CHL1    C1 3522   6.566   2.445   2.940  0.5755  0.3656 -0.2319
   48CHL1   H1A 3523   6.464   2.418   2.972  0.7959 -0.6342 -0.3643
   48CHL1   H1B 3524   6.580   2.536   3.002 -2.3962 -0.1649  1.2882
   48CHL1    C2 3525   6.569   2.466   2.785 -0.2663 -0.1478 -0.2927
   48CHL1   H2A 3526   6.495   2.547   2.768  0.2896  0.1856 -1.1276
   48CHL1   H2B 3527   6.532   2.371   2.740  0.1426  0.8531 -2.8254
   48CHL1   C20 3528   6.629   2.049   3.649  0.9964  0.7482  0.0463
   48CHL1   H20 3529   6.662   1.950   3.609  1.1908  0.9409 -0.2698
   48CHL1   C21 3530   6.475   2.058   3.658  0.3291 -0.4622  0.2359
   48CHL1  H21A 3531   6.435   2.046   3.555  0.7199 -1.2641  0.1794
   48CHL1  H21B 3532   6.443   2.158   3.697  1.0070 -0.0991 -0.1310
   48CHL1  H21C 3533   6.429   1.982   3.725  0.2644 -0.8090 -0.1985
   48CHL1   C22 3534   6.677   2.048   3.801 -0.5399 -0.8693  0.6401
   48CHL1  H22A 3535   6.615   1.978   3.861 -2.2439 -0.4300 -0.5530
   48CHL1  H22B 3536   6.779   2.004   3.807 -0.7341 -1.1149  2.0996
   48CHL1   C23 3537   6.679   2.180   3.876  0.0628  0.0141  0.2284
   48CHL1  H23A 3538   6.728   2.256   3.810  0.6333  0.2603  0.9310
   48CHL1  H23B 3539   6.584   2.229   3.906  0.9793  1.3213  1.0453
   48CHL1   C24 3540   6.774   2.186   3.998  0.0551 -0.4654  0.9249
   48CHL1  H24A 3541   6.727   2.140   4.088  0.5573  1.9420  2.4563
   48CHL1  H24B 3542   6.868   2.128   3.983  1.0946  1.2938  0.5458
   48CHL1   C25 3543   6.813   2.329   4.037 -0.6848 -0.5778  0.1631
   48CHL1   H25 3544   6.854   2.375   3.945 -0.9618 -1.4047 -0.3726
   48CHL1   C26 3545   6.693   2.418   4.078 -0.8029 -0.4096 -0.0926
   48CHL1  H26A 3546   6.619   2.374   4.149 -0.1314  0.9611  1.4599
   48CHL1  H26B 3547   6.732   2.517   4.110 -1.9600  0.6422 -1.8760
   48CHL1  H26C 3548   6.628   2.422   3.988 -1.1122 -3.6165 -0.1006
   48CHL1   C27 3549   6.924   2.324   4.143  0.6850 -0.2739  0.5315
   48CHL1  H27A 3550   6.945   2.428   4.175 -2.5354  0.9631 -1.1186
   48CHL1  H27B 3551   6.879   2.269   4.228 -3.6509  1.3792 -0.5501
   48CHL1  H27C 3552   7.016   2.275   4.106  1.3251  1.4299 -0.2192
   49CHL1    C3 3553   0.856   6.535   2.482  0.0978 -0.2799  0.9358
   49CHL1    H3 3554   0.963   6.559   2.503  0.5194 -1.0196 -0.2615
   49CHL1    O3 3555   0.829   6.550   2.345  0.2972  0.1485 -0.5748
   49CHL1   H3' 3556   0.734   6.536   2.342  0.4598 -1.7260  1.4995
   49CHL1    C4 3557   0.835   6.388   2.520 -0.3579  0.2251  0.0485
   49CHL1   H4A 3558   0.730   6.360   2.497 -0.6874  1.0971  0.4415
   49CHL1   H4B 3559   0.898   6.325   2.454  0.8775  0.8432  0.6276
   49CHL1    C5 3560   0.843   6.355   2.665 -0.4752  0.2677 -0.2590
   49CHL1    C6 3561   0.921   6.257   2.716 -0.8663  0.1231  0.5283
   49CHL1    H6 3562   0.977   6.194   2.646 -2.1977 -0.8034  0.2807
   49CHL1    C7 3563   0.944   6.225   2.863  1.1365  0.1817  0.5616
   49CHL1   H7A 3564   0.957   6.118   2.890  2.4669  0.3950  0.7560
   49CHL1   H7B 3565   1.032   6.281   2.900  0.5016  0.8034  1.1508
   49CHL1    C8 3566   0.826   6.281   2.951 -0.1701 -0.1550  0.6553
   49CHL1    H8 3567   0.733   6.220   2.953 -0.2787 -0.0173 -0.1495
   49CHL1   C14 3568   0.882   6.280   3.095  0.3718 -0.4581  0.7052
   49CHL1   H14 3569   0.977   6.338   3.092 -0.4698  0.8394 -1.8846
   49CHL1   C15 3570   0.929   6.150   3.151  0.0668 -0.4450  0.1655
   49CHL1  H15A 3571   0.856   6.068   3.137  1.7897 -1.6871 -1.9319
   49CHL1  H15B 3572   1.024   6.107   3.111  0.8258  1.2709  0.0655
   49CHL1   C16 3573   0.947   6.181   3.299  0.3690 -0.4948 -0.3390
   49CHL1  H16A 3574   0.911   6.099   3.365 -0.7673  1.5641  1.6569
   49CHL1  H16B 3575   1.056   6.199   3.307  0.1670 -0.0225  1.5138
   49CHL1   C17 3576   0.880   6.320   3.326  0.5049  0.1632  0.6658
   49CHL1   H17 3577   0.971   6.384   3.328  0.2487  0.5290  0.5824
   49CHL1   C13 3578   0.794   6.348   3.207 -0.6870 -0.4157 -0.1775
   49CHL1   C18 3579   0.659   6.272   3.224  0.3462 -0.2340  0.2165
   49CHL1  H18A 3580   0.611   6.267   3.124  2.2398  0.4752 -0.7695
   49CHL1  H18B 3581   0.669   6.165   3.254  0.8049 -0.8270 -1.9942
   49CHL1  H18C 3582   0.597   6.332   3.294  1.9516  0.9668  0.6529
   49CHL1   C12 3583   0.774   6.495   3.166  0.2150  0.6101 -0.1587
   49CHL1  H12A 3584   0.700   6.538   3.236  0.2811  2.8370 -1.4147
   49CHL1  H12B 3585   0.873   6.543   3.181  0.7923  0.5677 -3.4003
   49CHL1   C11 3586   0.720   6.508   3.020 -0.5215  0.7206 -0.2489
   49CHL1  H11A 3587   0.612   6.481   3.018  0.4457 -3.7144  1.0758
   49CHL1  H11B 3588   0.726   6.617   3.000  2.5746  0.4238 -1.3091
   49CHL1    C9 3589   0.794   6.422   2.911 -0.2527 -0.2893  0.6336
   49CHL1    H9 3590   0.894   6.472   2.912 -0.6057  0.4562  3.5225
   49CHL1   C10 3591   0.760   6.448   2.757 -0.4273  0.6758  0.3082
   49CHL1   C19 3592   0.611   6.408   2.737  0.0556  0.7588 -0.1232
   49CHL1  H19A 3593   0.545   6.477   2.796 -2.3003 -0.7683 -0.9106
   49CHL1  H19B 3594   0.571   6.411   2.634 -1.0899 -1.5068  0.2328
   49CHL1  H19C 3595   0.597   6.301   2.763  0.7222 -0.1487 -3.3720
   49CHL1    C1 3596   0.784   6.600   2.721  0.0084  0.2069 -0.1712
   49CHL1   H1A 3597   0.696   6.650   2.768 -1.0337  0.9054 -2.7566
   49CHL1   H1B 3598   0.878   6.645   2.759  0.0856  0.6836 -0.9351
   49CHL1    C2 3599   0.764   6.625   2.571 -0.7105 -0.8738 -0.0465
   49CHL1   H2A 3600   0.798   6.729   2.552  1.7033 -1.6497 -0.0960
   49CHL1   H2B 3601   0.658   6.602   2.544 -1.1170  0.0012  0.7486
   49CHL1   C20 3602   0.806   6.344   3.458  0.3619 -0.1512 -0.9078
   49CHL1   H20 3603   0.707   6.292   3.463  1.2095 -1.7567 -0.2661
   49CHL1   C21 3604   0.771   6.486   3.486  0.6267  0.1694 -0.1075
   49CHL1  H21A 3605   0.846   6.566   3.467  0.9775 -0.4905 -1.4967
   49CHL1  H21B 3606   0.744   6.490   3.594  0.2092  1.7088 -0.2468
   49CHL1  H21C 3607   0.682   6.521   3.430  1.7584 -0.3975 -2.3116
   49CHL1   C22 3608   0.885   6.295   3.581 -0.5039 -0.3973 -0.6808
   49CHL1  H22A 3609   0.930   6.197   3.554 -0.2170 -1.1042  2.2476
   49CHL1  H22B 3610   0.975   6.359   3.592 -1.5429  1.5998 -3.2000
   49CHL1   C23 3611   0.796   6.282   3.713  0.6199 -0.4545  0.2973
   49CHL1  H23A 3612   0.752   6.380   3.743  2.7924  1.0926 -1.4288
   49CHL1  H23B 3613   0.716   6.208   3.692 -0.5561  1.2184 -1.2557
   49CHL1   C24 3614   0.883   6.250   3.836 -0.1958  0.5781 -0.8416
   49CHL1  H24A 3615   0.935   6.155   3.812 -0.7772  0.2720 -0.8799
   49CHL1  H24B 3616   0.959   6.329   3.859  0.5149 -0.8195  1.8584
   49CHL1   C25 3617   0.814   6.218   3.976 -0.0167  0.4012  0.0434
   49CHL1   H25 3618   0.776   6.115   3.964  0.9171 -0.0177  0.6154
   49CHL1   C26 3619   0.906   6.224   4.105  0.1819 -0.4603  0.3093
   49CHL1  H26A 3620   0.843   6.190   4.189 -1.0874 -2.5939 -1.4516
   49CHL1  H26B 3621   0.995   6.159   4.091 -0.6780 -1.1570 -2.2091
   49CHL1  H26C 3622   0.948   6.326   4.123 -0.1746 -0.1461 -0.5906
   49CHL1   C27 3623   0.693   6.309   3.996  0.3174 -0.0099 -0.3164
   49CHL1  H27A 3624   0.707   6.418   4.012  0.0626 -0.2074  1.3127
   49CHL1  H27B 3625   0.620   6.289   3.914 -1.7672  0.8155  1.3034
   49CHL1  H27C 3626   0.634   6.284   4.086 -0.4540  2.4031 -0.1042
   50CHL1    C3 3627   5.574   6.980   2.469  0.5366  0.4799 -0.0258
   50CHL1    H3 3628   5.569   7.091   2.457  2.2524  0.5019 -0.8074
   50CHL1    O3 3629   5.603   6.921   2.349  0.5184 -0.1882  0.2943
   50CHL1   H3' 3630   5.597   6.825   2.357 -0.2114 -0.2576 -1.0070
   50CHL1    C4 3631   5.671   6.946   2.576 -0.1206  0.2384 -0.9792
   50CHL1   H4A 3632   5.683   6.836   2.568  0.2871  0.2157 -0.0776
   50CHL1   H4B 3633   5.769   6.982   2.538  0.4608  0.3630  0.6063
   50CHL1    C5 3634   5.634   6.994   2.715 -0.1672  0.1183  0.1046
   50CHL1    C6 3635   5.705   7.082   2.785 -0.5519  0.5315  0.7965
   50CHL1    H6 3636   5.804   7.107   2.745 -0.5336 -0.6096  0.0930
   50CHL1    C7 3637   5.668   7.136   2.918  0.6625  0.7579 -0.1709
   50CHL1   H7A 3638   5.759   7.135   2.981  0.8186  3.1603 -0.3098
   50CHL1   H7B 3639   5.648   7.245   2.907 -0.1715  0.6383  0.1248
   50CHL1    C8 3640   5.559   7.050   2.985  0.6483  0.4730  0.3475
   50CHL1    H8 3641   5.605   6.951   3.004 -1.6239 -0.5762  0.5595
   50CHL1   C14 3642   5.507   7.117   3.115  0.2249 -0.2283 -0.4252
   50CHL1   H14 3643   5.455   7.210   3.084 -1.2435 -0.5229  1.1042
   50CHL1   C15 3644   5.612   7.160   3.228  0.1143  0.2433  0.7328
   50CHL1  H15A 3645   5.683   7.075   3.227 -0.8562 -0.5913  0.8020
   50CHL1  H15B 3646   5.655   7.259   3.202 -1.6134  0.4386 -1.5974
   50CHL1   C16 3647   5.522   7.161   3.352 -0.1002  0.5689  0.3267
   50CHL1  H16A 3648   5.565   7.077   3.410 -1.6081 -1.0202 -0.7967
   50CHL1  H16B 3649   5.542   7.259   3.400  2.2506  0.4756 -0.3898
   50CHL1   C17 3650   5.378   7.122   3.310 -0.0137 -0.5615 -0.0779
   50CHL1   H17 3651   5.328   7.216   3.280 -0.0941 -0.9554 -1.1759
   50CHL1   C13 3652   5.392   7.035   3.185 -0.7825 -0.6533  0.6277
   50CHL1   C18 3653   5.439   6.892   3.215 -0.1832 -0.7097  0.0240
   50CHL1  H18A 3654   5.521   6.878   3.289  0.3701  0.7826 -0.2976
   50CHL1  H18B 3655   5.356   6.827   3.252 -0.6782  0.7848  1.6478
   50CHL1  H18C 3656   5.482   6.843   3.125 -2.5054 -3.6934  0.4300
   50CHL1   C12 3657   5.271   7.046   3.089 -0.0222 -0.1884  0.9374
   50CHL1  H12A 3658   5.181   6.993   3.126 -0.1258 -0.9033 -0.2978
   50CHL1  H12B 3659   5.246   7.153   3.078  1.0802 -0.0326 -0.0940
   50CHL1   C11 3660   5.309   6.979   2.952  0.3825 -0.3915  0.7594
   50CHL1  H11A 3661   5.320   6.872   2.982 -1.3525 -0.0858  2.5907
   50CHL1  H11B 3662   5.227   6.983   2.878  0.4058  1.7387  0.8113
   50CHL1    C9 3663   5.442   7.030   2.893  0.1516  0.2759 -0.1793
   50CHL1    H9 3664   5.416   7.133   2.859  3.5858  1.5895  0.9169
   50CHL1   C10 3665   5.493   6.951   2.768 -0.0454 -0.0330  0.1843
   50CHL1   C19 3666   5.499   6.799   2.801  0.6779 -0.7924  0.5984
   50CHL1  H19A 3667   5.391   6.778   2.788  0.2857  1.1057  0.7086
   50CHL1  H19B 3668   5.551   6.742   2.721 -0.5167  0.2437 -0.9608
   50CHL1  H19C 3669   5.533   6.774   2.903 -0.8385 -2.9272  0.6034
   50CHL1    C1 3670   5.396   6.985   2.653  0.2286 -0.0774 -0.0057
   50CHL1   H1A 3671   5.288   6.962   2.666 -0.3639  1.9280 -1.0730
   50CHL1   H1B 3672   5.393   7.096   2.645 -2.1013 -0.0820  0.4222
   50CHL1    C2 3673   5.438   6.931   2.512 -1.0112 -0.1995 -0.1866
   50CHL1   H2A 3674   5.365   6.975   2.441  0.0538  0.0988 -1.1270
   50CHL1   H2B 3675   5.422   6.821   2.509  1.3436 -0.5879  0.4987
   50CHL1   C20 3676   5.302   7.055   3.426 -0.2045  0.2391  0.2443
   50CHL1   H20 3677   5.331   6.948   3.421  0.1713  0.3344  0.3071
   50CHL1   C21 3678   5.154   7.081   3.411 -0.7815  0.0844  0.6985
   50CHL1  H21A 3679   5.113   7.051   3.312  0.7132 -2.1829  0.7248
   50CHL1  H21B 3680   5.136   7.186   3.442 -2.7996 -0.4401  1.3619
   50CHL1  H21C 3681   5.095   7.013   3.477 -1.1931  1.4860  1.7786
   50CHL1   C22 3682   5.344   7.109   3.568  0.4483  0.5746 -0.1012
   50CHL1  H22A 3683   5.453   7.087   3.572  0.2777 -0.8172 -2.2615
   50CHL1  H22B 3684   5.323   7.215   3.594  0.1903 -0.0474  2.3096
   50CHL1   C23 3685   5.279   7.024   3.673 -0.0749 -0.8509 -0.3421
   50CHL1  H23A 3686   5.172   7.051   3.690  0.6727  1.1022  1.4657
   50CHL1  H23B 3687   5.276   6.918   3.640 -0.5147 -1.2831  1.0373
   50CHL1   C24 3688   5.350   7.040   3.810  0.1360  0.2093  0.2343
   50CHL1  H24A 3689   5.456   7.007   3.803  0.0839 -0.0318  0.6102
   50CHL1  H24B 3690   5.345   7.150   3.826  0.4807  0.4457 -1.1772
   50CHL1   C25 3691   5.301   6.955   3.929  0.2477 -0.2858  0.4424
   50CHL1   H25 3692   5.313   6.848   3.901 -0.5953  0.0824 -1.3568
   50CHL1   C26 3693   5.386   6.957   4.062  0.4640 -0.0594  0.4111
   50CHL1  H26A 3694   5.339   6.879   4.126 -2.6959 -0.4875 -2.3138
   50CHL1  H26B 3695   5.495   6.939   4.052  0.2590 -1.2087  0.2195
   50CHL1  H26C 3696   5.382   7.056   4.114 -2.0387 -0.7485  1.6348
   50CHL1   C27 3697   5.152   6.986   3.967  0.1333 -0.5810 -0.0420
   50CHL1  H27A 3698   5.151   7.082   4.023 -1.3714 -0.5285 -0.1388
   50CHL1  H27B 3699   5.090   6.999   3.876 -1.1584 -0.3316  0.8721
   50CHL1  H27C 3700   5.098   6.906   4.023  0.2264 -1.3236 -0.9940
   51CHL1    C3 3701   1.148   7.166   2.417  0.7439 -0.2820 -0.6567
   51CHL1    H3 3702   1.241   7.226   2.403 -1.5078  3.2023 -1.2358
   51CHL1    O3 3703   1.100   7.141   2.288  0.6970 -0.3431  0.7116
   51CHL1   H3' 3704   1.092   7.226   2.245 -1.6194  0.1232  1.9474
   51CHL1    C4 3705   1.187   7.027   2.475 -0.1889 -0.0305  0.9730
   51CHL1   H4A 3706   1.103   6.961   2.446 -0.9989  1.5078 -0.2803
   51CHL1   H4B 3707   1.277   6.992   2.419  0.1963 -0.7599  2.0274
   51CHL1    C5 3708   1.219   7.025   2.615 -0.5505 -0.2049 -0.2732
   51CHL1    C6 3709   1.329   6.966   2.661 -0.0265 -0.0465  0.1554
   51CHL1    H6 3710   1.402   6.922   2.592  1.0536 -0.5443  1.5826
   51CHL1    C7 3711   1.367   6.960   2.806 -0.7899  0.1471  0.2955
   51CHL1   H7A 3712   1.390   6.852   2.824 -1.8145 -0.1188  0.0300
   51CHL1   H7B 3713   1.453   7.026   2.829 -0.0834 -0.5936 -0.1720
   51CHL1    C8 3714   1.258   6.997   2.904  0.2033  0.1413 -0.2291
   51CHL1    H8 3715   1.195   6.906   2.909 -0.7619  0.8827  1.7475
   51CHL1   C14 3716   1.305   7.018   3.052 -0.0077 -0.3620  0.3185
   51CHL1   H14 3717   1.355   7.117   3.052 -2.5606  0.9528  0.6632
   51CHL1   C15 3718   1.397   6.915   3.112 -1.3120  0.6476  0.1204
   51CHL1  H15A 3719   1.365   6.811   3.091 -0.4664  0.8951 -2.6343
   51CHL1  H15B 3720   1.501   6.929   3.074 -1.0777  1.4553  1.0350
   51CHL1   C16 3721   1.384   6.943   3.259  0.4438 -0.2627  0.0469
   51CHL1  H16A 3722   1.365   6.849   3.315  0.2485 -1.2595 -1.6866
   51CHL1  H16B 3723   1.480   6.992   3.289  0.6842 -1.0679  0.5975
   51CHL1   C17 3724   1.263   7.045   3.277  0.4367 -0.0564 -0.2190
   51CHL1   H17 3725   1.320   7.141   3.277  2.0328 -0.9237  2.7806
   51CHL1   C13 3726   1.183   7.031   3.143  0.3514  0.2990  0.0405
   51CHL1   C18 3727   1.089   6.911   3.158 -0.3864 -0.1414  0.2330
   51CHL1  H18A 3728   1.145   6.821   3.192 -0.6912 -0.1036  0.8400
   51CHL1  H18B 3729   1.002   6.938   3.222 -1.2144 -2.0525 -0.0327
   51CHL1  H18C 3730   1.053   6.884   3.056 -0.8401 -1.1341  0.6438
   51CHL1   C12 3731   1.102   7.163   3.108 -0.7114 -0.0433 -0.0767
   51CHL1  H12A 3732   1.016   7.165   3.179  0.8650 -1.7152  1.9717
   51CHL1  H12B 3733   1.172   7.249   3.113 -0.7621  0.2241 -3.2320
   51CHL1   C11 3734   1.056   7.146   2.960 -0.0543  0.6225 -0.1044
   51CHL1  H11A 3735   0.999   7.051   2.951 -0.5451  0.9723 -0.7042
   51CHL1  H11B 3736   0.986   7.229   2.935  0.7481  1.0753 -0.8842
   51CHL1    C9 3737   1.165   7.113   2.859 -0.8349  0.4792 -0.3036
   51CHL1    H9 3738   1.234   7.199   2.854 -0.2357  0.1391  1.6132
   51CHL1   C10 3739   1.117   7.090   2.708 -0.3463 -0.1498 -0.8626
   51CHL1   C19 3740   0.992   7.000   2.711  0.6459  0.4667 -0.0215
   51CHL1  H19A 3741   0.974   6.956   2.611  1.7476  0.6434 -0.3061
   51CHL1  H19B 3742   1.006   6.914   2.779 -0.8601  1.5274  1.7058
   51CHL1  H19C 3743   0.905   7.065   2.737  0.3719  1.0255 -2.2465
   51CHL1    C1 3744   1.092   7.226   2.648  0.0878  0.1445 -0.2452
   51CHL1   H1A 3745   1.012   7.281   2.703 -1.9993 -1.7396 -1.3042
   51CHL1   H1B 3746   1.190   7.278   2.655  1.5163 -2.2721 -1.6439
   51CHL1    C2 3747   1.045   7.231   2.507 -0.7759 -0.4645 -1.2508
   51CHL1   H2A 3748   1.019   7.333   2.472  1.4239  0.6753  0.3166
   51CHL1   H2B 3749   0.951   7.175   2.489 -1.1045  0.3008 -1.9163
   51CHL1   C20 3750   1.195   7.044   3.418 -0.1334 -0.4906  0.4826
   51CHL1   H20 3751   1.160   6.939   3.421 -1.8923  0.1055  1.8419
   51CHL1   C21 3752   1.066   7.129   3.427  0.9046 -0.5684 -0.5124
   51CHL1  H21A 3753   0.988   7.094   3.356 -0.3082 -0.4671  0.7559
   51CHL1  H21B 3754   1.097   7.234   3.407 -0.2062 -0.4285 -1.5893
   51CHL1  H21C 3755   1.031   7.117   3.531  2.1335  3.0660  0.3882
   51CHL1   C22 3756   1.302   7.069   3.520 -0.3974  0.6326 -0.3524
   51CHL1  H22A 3757   1.387   7.001   3.504 -2.0869 -1.8170  0.7529
   51CHL1  H22B 3758   1.339   7.173   3.510  2.3949 -0.4404 -1.5970
   51CHL1   C23 3759   1.259   7.075   3.668  0.2918  1.0507 -0.4124
   51CHL1  H23A 3760   1.207   7.173   3.674 -0.3098  0.7490 -0.6293
   51CHL1  H23B 3761   1.190   6.991   3.689 -0.1575  2.0269  2.2043
   51CHL1   C24 3762   1.378   7.086   3.767  0.0619  0.3012 -0.8337
   51CHL1  H24A 3763   1.441   6.996   3.754 -0.4953 -0.5795  2.1485
   51CHL1  H24B 3764   1.431   7.179   3.738  1.9629  0.0413  1.6868
   51CHL1   C25 3765   1.324   7.095   3.913  0.3177  0.7867 -0.4482
   51CHL1   H25 3766   1.239   7.165   3.926 -0.2471  0.1266 -0.5391
   51CHL1   C26 3767   1.261   6.962   3.953 -0.2302 -0.4080 -0.6275
   51CHL1  H26A 3768   1.189   6.911   3.886  0.8459 -2.2016 -0.4861
   51CHL1  H26B 3769   1.348   6.892   3.952  0.0585 -0.0417 -2.3618
   51CHL1  H26C 3770   1.224   6.966   4.058  0.8453 -0.5906 -0.2266
   51CHL1   C27 3771   1.447   7.138   3.996  0.2299 -0.2060 -0.3831
   51CHL1  H27A 3772   1.420   7.138   4.104 -0.6510  1.1361 -0.5930
   51CHL1  H27B 3773   1.531   7.070   3.970  0.1785 -0.8534  1.1025
   51CHL1  H27C 3774   1.477   7.243   3.975  0.3541 -0.0265  0.6573
   52CHL1    C3 3775   6.856   0.667   2.420  0.1630 -0.7118 -0.1607
   52CHL1    H3 3776   6.797   0.575   2.398 -2.2144  0.7529 -0.0936
   52CHL1    O3 3777   6.909   0.717   2.298  0.2785 -0.1946  0.3730
   52CHL1   H3' 3778   6.834   0.706   2.239 -0.3772  2.7577  0.5786
   52CHL1    C4 3779   6.750   0.765   2.481  0.6406  0.8090  0.2524
   52CHL1   H4A 3780   6.796   0.863   2.506  0.1042  0.4229  2.9158
   52CHL1   H4B 3781   6.667   0.770   2.408 -0.4742  2.0872  1.5718
   52CHL1    C5 3782   6.684   0.717   2.612 -0.0936 -0.0966  0.4082
   52CHL1    C6 3783   6.548   0.709   2.637  0.1303  0.1583 -0.0547
   52CHL1    H6 3784   6.471   0.728   2.560 -1.9950 -4.1729  0.8552
   52CHL1    C7 3785   6.488   0.678   2.769 -0.2622  0.2515 -0.0365
   52CHL1   H7A 3786   6.408   0.750   2.796 -0.6146 -0.7935  1.8182
   52CHL1   H7B 3787   6.431   0.583   2.762  0.4279 -0.2881  1.4476
   52CHL1    C8 3788   6.591   0.663   2.885 -0.5788 -0.7749  0.2256
   52CHL1    H8 3789   6.613   0.763   2.929 -2.4077  1.0123 -2.7335
   52CHL1   C14 3790   6.537   0.578   2.996  0.4948  0.8131 -0.3660
   52CHL1   H14 3791   6.510   0.482   2.949 -0.8970  1.7499 -1.4827
   52CHL1   C15 3792   6.402   0.633   3.059  0.3347 -0.2278  0.1032
   52CHL1  H15A 3793   6.421   0.740   3.086  1.0359 -0.3200 -0.0168
   52CHL1  H15B 3794   6.312   0.618   2.996  1.2083 -0.9210 -1.0182
   52CHL1   C16 3795   6.394   0.549   3.191  0.3240  0.8480  0.9801
   52CHL1  H16A 3796   6.372   0.614   3.278  2.0890  2.7912  0.0264
   52CHL1  H16B 3797   6.313   0.473   3.194  0.1648  0.8972 -1.0503
   52CHL1   C17 3798   6.536   0.488   3.209 -0.8916 -0.5510  0.3468
   52CHL1   H17 3799   6.529   0.390   3.157 -0.0727 -0.8956  0.8764
   52CHL1   C13 3800   6.636   0.558   3.112  0.5649 -0.3155 -0.5804
   52CHL1   C18 3801   6.684   0.695   3.178 -0.3463 -0.3002 -0.4025
   52CHL1  H18A 3802   6.716   0.770   3.103  2.1550 -0.5861  0.3419
   52CHL1  H18B 3803   6.597   0.744   3.227  0.7023  0.8521  0.3098
   52CHL1  H18C 3804   6.770   0.683   3.247 -0.6278  1.7151  0.3295
   52CHL1   C12 3805   6.748   0.473   3.056 -0.1816  0.7222 -0.6187
   52CHL1  H12A 3806   6.815   0.430   3.134  0.0880 -0.9316 -1.7116
   52CHL1  H12B 3807   6.715   0.388   2.992 -0.2901  0.5383 -0.3197
   52CHL1   C11 3808   6.816   0.554   2.947  0.3493 -0.5721  0.1680
   52CHL1  H11A 3809   6.875   0.635   2.995 -1.2070  0.5014  0.2870
   52CHL1  H11B 3810   6.891   0.490   2.895  1.5246  0.3910  0.6452
   52CHL1    C9 3811   6.720   0.594   2.827  1.0405 -0.0370 -0.2670
   52CHL1    H9 3812   6.682   0.504   2.774  0.6285  0.3974 -0.7112
   52CHL1   C10 3813   6.792   0.676   2.716  0.0024 -0.3769  0.0977
   52CHL1   C19 3814   6.858   0.798   2.772  0.2991 -0.2171  0.8230
   52CHL1  H19A 3815   6.940   0.775   2.844  1.1636 -1.0135 -0.3942
   52CHL1  H19B 3816   6.911   0.849   2.688  0.7225 -2.2236 -0.1737
   52CHL1  H19C 3817   6.793   0.875   2.818  1.3337  0.3585  1.3329
   52CHL1    C1 3818   6.891   0.579   2.646  0.0748  0.1927 -0.0782
   52CHL1   H1A 3819   6.970   0.558   2.722 -0.5779 -0.7351  0.3571
   52CHL1   H1B 3820   6.843   0.483   2.614  1.7663 -0.4719 -0.6642
   52CHL1    C2 3821   6.959   0.631   2.520 -0.1685 -0.5269  0.1843
   52CHL1   H2A 3822   7.028   0.558   2.472 -3.0126 -1.2435 -3.0373
   52CHL1   H2B 3823   7.023   0.719   2.541 -1.4677  0.6126 -0.4670
   52CHL1   C20 3824   6.576   0.461   3.356 -0.0245  0.2756  0.8868
   52CHL1   H20 3825   6.686   0.443   3.353 -0.2297 -0.8209 -0.7054
   52CHL1   C21 3826   6.517   0.320   3.389  0.7696 -1.3027 -0.7000
   52CHL1  H21A 3827   6.410   0.297   3.370 -0.6806  1.2912  3.4477
   52CHL1  H21B 3828   6.529   0.299   3.498 -1.1463 -1.1682 -0.4497
   52CHL1  H21C 3829   6.576   0.243   3.335 -3.2337 -3.7840 -1.7908
   52CHL1   C22 3830   6.543   0.577   3.464 -0.1832  0.1225 -1.1183
   52CHL1  H22A 3831   6.542   0.671   3.405  0.1591 -0.1839 -1.6170
   52CHL1  H22B 3832   6.438   0.564   3.496 -1.1726 -0.4206 -4.3635
   52CHL1   C23 3833   6.641   0.595   3.584  0.3560  0.0158  0.0308
   52CHL1  H23A 3834   6.653   0.496   3.632  2.0873  1.2952  2.2942
   52CHL1  H23B 3835   6.739   0.630   3.545  0.0075  1.0162  0.0297
   52CHL1   C24 3836   6.595   0.700   3.689  0.4073  0.7305 -0.4591
   52CHL1  H24A 3837   6.584   0.794   3.630 -0.8752 -0.1753 -1.6769
   52CHL1  H24B 3838   6.496   0.660   3.718  1.2511 -0.4197  0.8969
   52CHL1   C25 3839   6.683   0.717   3.812  0.0256 -0.1680  0.0465
   52CHL1   H25 3840   6.700   0.616   3.854  1.5426  0.2658  0.5374
   52CHL1   C26 3841   6.821   0.765   3.764  0.4751 -0.1771  0.1947
   52CHL1  H26A 3842   6.893   0.783   3.846 -0.0126  1.8152  0.2205
   52CHL1  H26B 3843   6.851   0.710   3.672  1.5566  0.2023  0.3073
   52CHL1  H26C 3844   6.807   0.872   3.734 -1.9843 -0.0402  1.7459
   52CHL1   C27 3845   6.625   0.820   3.906  0.0811  0.3549 -0.4159
   52CHL1  H27A 3846   6.647   0.913   3.849  0.8879  0.3011 -0.1922
   52CHL1  H27B 3847   6.517   0.809   3.929 -0.1125 -0.3026 -1.6265
   52CHL1  H27C 3848   6.672   0.823   4.007 -1.4700 -1.4100  0.3795
   53CHL1    C3 3849   1.796   7.247   2.543  0.4123  1.0185 -0.7211
   53CHL1    H3 3850   1.707   7.313   2.542 -0.4762 -0.1586 -0.2047
   53CHL1    O3 3851   1.827   7.229   2.405  0.1984  0.0622 -0.2543
   53CHL1   H3' 3852   1.894   7.161   2.397  2.1038  1.5771  2.4201
   53CHL1    C4 3853   1.908   7.334   2.604  0.0133  0.7357  0.8393
   53CHL1   H4A 3854   2.006   7.295   2.569 -1.1567 -2.1471  0.6254
   53CHL1   H4B 3855   1.893   7.435   2.561  0.7334  0.3187 -0.4228
   53CHL1    C5 3856   1.915   7.349   2.756  0.2027  0.3796 -0.4158
   53CHL1    C6 3857   1.924   7.469   2.824  0.2454 -0.6752  0.9407
   53CHL1    H6 3858   1.918   7.560   2.762  1.3459 -0.1872  1.5405
   53CHL1    C7 3859   1.923   7.489   2.972  0.4994 -0.1238 -0.1719
   53CHL1   H7A 3860   2.016   7.537   3.008  1.9411  0.0092 -3.8336
   53CHL1   H7B 3861   1.834   7.548   3.000  0.8253 -0.4900  1.6947
   53CHL1    C8 3862   1.924   7.355   3.044 -0.1127  0.1827 -0.4913
   53CHL1    H8 3863   2.030   7.323   3.051 -0.6279 -1.3633  0.4556
   53CHL1   C14 3864   1.866   7.374   3.180 -0.0255 -0.0215 -0.4697
   53CHL1   H14 3865   1.765   7.415   3.160 -0.1723 -0.9153 -1.6312
   53CHL1   C15 3866   1.939   7.480   3.257 -0.1358 -0.2951  0.3377
   53CHL1  H15A 3867   2.047   7.455   3.250  0.1785  1.4053 -1.1712
   53CHL1  H15B 3868   1.912   7.580   3.217  0.6936 -0.0156  0.4724
   53CHL1   C16 3869   1.894   7.456   3.408 -0.3082  0.4618  0.4227
   53CHL1  H16A 3870   1.977   7.438   3.479  2.1422 -0.2237 -2.5346
   53CHL1  H16B 3871   1.861   7.554   3.449  1.6349  0.1126  2.9913
   53CHL1   C17 3872   1.795   7.335   3.402 -0.2754 -0.4234 -0.4652
   53CHL1   H17 3873   1.690   7.366   3.382 -0.1806 -0.8763 -1.6756
   53CHL1   C13 3874   1.847   7.261   3.280  0.3035 -0.4343 -0.5480
   53CHL1   C18 3875   1.987   7.197   3.314 -0.8006  0.1461 -0.1134
   53CHL1  H18A 3876   2.061   7.259   3.370  0.9318 -3.1501  1.3622
   53CHL1  H18B 3877   1.969   7.104   3.372 -2.0380 -0.0517 -0.8109
   53CHL1  H18C 3878   2.043   7.178   3.219 -1.1256  0.2545 -0.3283
   53CHL1   C12 3879   1.762   7.154   3.205  0.1312 -0.3017  0.3107
   53CHL1  H12A 3880   1.749   7.061   3.265 -0.9460  1.2500  2.5209
   53CHL1  H12B 3881   1.662   7.200   3.200  0.5357  0.6868  1.2608
   53CHL1   C11 3882   1.815   7.127   3.064 -0.1069  0.5325  0.4244
   53CHL1  H11A 3883   1.904   7.064   3.084 -1.1917 -1.0701  0.2837
   53CHL1  H11B 3884   1.725   7.075   3.023 -0.8388 -0.1723  2.8697
   53CHL1    C9 3885   1.838   7.248   2.973 -0.4245 -0.8271  0.1495
   53CHL1    H9 3886   1.736   7.293   2.972 -0.9156 -1.9225  0.4890
   53CHL1   C10 3887   1.880   7.215   2.829  0.0334 -0.2330  1.1106
   53CHL1   C19 3888   2.009   7.135   2.832 -0.3857 -0.1763  0.4825
   53CHL1  H19A 3889   2.099   7.195   2.856 -2.4388  2.7464  1.1483
   53CHL1  H19B 3890   2.007   7.044   2.896  1.8884  1.0061  2.3003
   53CHL1  H19C 3891   2.029   7.095   2.730  0.1063 -0.1772  0.5819
   53CHL1    C1 3892   1.763   7.129   2.765 -0.4323 -0.2173 -0.6140
   53CHL1   H1A 3893   1.772   7.026   2.804  1.3062  0.3181  0.4551
   53CHL1   H1B 3894   1.667   7.175   2.797  1.4011  1.2334  3.0342
   53CHL1    C2 3895   1.768   7.111   2.612 -0.3318 -0.1248  0.1790
   53CHL1   H2A 3896   1.679   7.053   2.581  0.5304 -1.9756  1.1247
   53CHL1   H2B 3897   1.854   7.047   2.582 -0.1939 -0.8340  2.0604
   53CHL1   C20 3898   1.787   7.258   3.535  0.1407 -0.0050 -0.5680
   53CHL1   H20 3899   1.885   7.222   3.572 -1.0242 -1.6848  0.9593
   53CHL1   C21 3900   1.706   7.125   3.516  0.7775 -1.0432 -0.6065
   53CHL1  H21A 3901   1.709   7.071   3.613  1.2058 -2.9232 -1.6391
   53CHL1  H21B 3902   1.765   7.062   3.447  0.4452  0.6551 -2.5017
   53CHL1  H21C 3903   1.601   7.147   3.488  0.2774 -1.9224  0.5669
   53CHL1   C22 3904   1.715   7.350   3.644 -0.1549 -0.4709 -0.1235
   53CHL1  H22A 3905   1.737   7.456   3.621 -0.2415 -0.5376 -0.5296
   53CHL1  H22B 3906   1.607   7.324   3.654 -0.0559 -0.0220  2.3846
   53CHL1   C23 3907   1.778   7.323   3.790  0.6410  0.5186 -0.5706
   53CHL1  H23A 3908   1.759   7.220   3.827  0.7968  0.7081  0.0370
   53CHL1  H23B 3909   1.889   7.328   3.786  0.5733  0.7011 -2.8990
   53CHL1   C24 3910   1.737   7.436   3.883 -0.4762  0.9634 -0.4526
   53CHL1  H24A 3911   1.770   7.529   3.832  3.9396 -0.5775 -0.5865
   53CHL1  H24B 3912   1.628   7.443   3.906 -0.6416  0.0003 -0.9170
   53CHL1   C25 3913   1.804   7.431   4.026  1.1757  0.3766  0.2718
   53CHL1   H25 3914   1.794   7.332   4.076 -0.5489  1.0773  1.3545
   53CHL1   C26 3915   1.950   7.473   4.018  0.7186  0.2147 -0.3021
   53CHL1  H26A 3916   2.003   7.494   4.114 -0.2635  0.7626  0.1279
   53CHL1  H26B 3917   2.010   7.397   3.963  2.0783  0.9268  0.1759
   53CHL1  H26C 3918   1.955   7.572   3.968  0.3818  0.8853  0.9629
   53CHL1   C27 3919   1.742   7.536   4.113 -0.1506  0.2665 -0.1396
   53CHL1  H27A 3920   1.634   7.523   4.135 -0.2521  0.5800 -0.4318
   53CHL1  H27B 3921   1.797   7.547   4.209  0.6814  0.0000 -0.5797
   53CHL1  H27C 3922   1.749   7.634   4.060  0.5268  0.5361  0.4461
   54CHL1    C3 3923   0.447   7.040   2.658 -0.0063 -0.4932 -0.2918
   54CHL1    H3 3924   0.480   7.144   2.679 -0.0626  0.0614 -2.8067
   54CHL1    O3 3925   0.443   7.029   2.521 -0.0990  0.6227 -0.4110
   54CHL1   H3' 3926   0.396   7.107   2.492  0.0636  1.1865  0.7915
   54CHL1    C4 3927   0.557   6.946   2.715  0.2586 -0.0372  0.0238
   54CHL1   H4A 3928   0.536   6.842   2.680  2.5736 -0.5621  0.1390
   54CHL1   H4B 3929   0.651   6.973   2.663  0.7013  2.1680  1.9200
   54CHL1    C5 3930   0.564   6.948   2.860  0.9031 -0.0377  0.0558
   54CHL1    C6 3931   0.679   6.980   2.929  0.4686  0.0635  0.5339
   54CHL1    H6 3932   0.774   6.997   2.876  0.0414 -0.2387 -0.3498
   54CHL1    C7 3933   0.695   6.977   3.074  0.1061 -0.4964  0.0198
   54CHL1   H7A 3934   0.790   6.923   3.095 -0.8213 -1.3854  2.0229
   54CHL1   H7B 3935   0.716   7.080   3.108  2.9230 -0.5958 -1.2602
   54CHL1    C8 3936   0.578   6.910   3.149  0.4688  0.5880 -0.1552
   54CHL1    H8 3937   0.584   6.802   3.122 -0.4553  1.4156 -3.9635
   54CHL1   C14 3938   0.578   6.922   3.301 -0.3592 -0.1837 -0.3445
   54CHL1   H14 3939   0.579   7.031   3.318 -0.8497 -0.4790  1.7534
   54CHL1   C15 3940   0.700   6.875   3.378 -0.2635 -0.3671  0.0837
   54CHL1  H15A 3941   0.744   6.779   3.344  0.0753  0.2737 -1.3387
   54CHL1  H15B 3942   0.777   6.953   3.364 -0.1562 -0.8237 -2.0797
   54CHL1   C16 3943   0.652   6.867   3.524 -0.3165 -0.0674  0.5411
   54CHL1  H16A 3944   0.679   6.763   3.552  0.7898  0.1043  0.1279
   54CHL1  H16B 3945   0.704   6.938   3.591 -0.1053  2.6912 -2.3973
   54CHL1   C17 3946   0.494   6.900   3.513 -0.2516 -0.1158 -0.1071
   54CHL1   H17 3947   0.479   7.010   3.510  1.6647  0.1449 -0.8907
   54CHL1   C13 3948   0.454   6.871   3.377  0.9201 -0.3223 -0.0190
   54CHL1   C18 3949   0.440   6.717   3.367 -0.0684  0.1073 -0.3875
   54CHL1  H18A 3950   0.440   6.688   3.259 -0.2494  0.2524 -0.4277
   54CHL1  H18B 3951   0.521   6.666   3.423  0.5417  0.3330 -1.0532
   54CHL1  H18C 3952   0.339   6.698   3.409  0.4914 -0.5783  0.6623
   54CHL1   C12 3953   0.327   6.938   3.316  0.2777  0.6358  0.0299
   54CHL1  H12A 3954   0.230   6.906   3.359  0.9996  0.4741  1.5454
   54CHL1  H12B 3955   0.324   7.048   3.333 -2.0992  0.6814 -0.5015
   54CHL1   C11 3956   0.315   6.909   3.172 -0.1053  0.1870  0.5697
   54CHL1  H11A 3957   0.297   6.800   3.159  1.0958  0.1037 -0.5376
   54CHL1  H11B 3958   0.231   6.965   3.126 -1.5334 -2.8610 -0.6926
   54CHL1    C9 3959   0.442   6.953   3.091 -0.2674 -0.1000 -0.3304
   54CHL1    H9 3960   0.439   7.064   3.095 -1.1350 -0.1163 -0.3297
   54CHL1   C10 3961   0.434   6.918   2.938 -0.3650  0.4218  0.5380
   54CHL1   C19 3962   0.397   6.765   2.911 -0.6640 -0.1248 -0.0163
   54CHL1  H19A 3963   0.465   6.691   2.960 -1.6500 -1.5833 -0.8059
   54CHL1  H19B 3964   0.293   6.754   2.948  0.0867  2.4399  3.1278
   54CHL1  H19C 3965   0.405   6.752   2.801 -1.4852  0.7199 -0.1791
   54CHL1    C1 3966   0.325   7.006   2.872 -0.1294 -0.3489 -0.4171
   54CHL1   H1A 3967   0.223   6.991   2.915  0.2202 -1.8025 -0.0906
   54CHL1   H1B 3968   0.354   7.110   2.896 -0.6743 -0.3202  0.1557
   54CHL1    C2 3969   0.313   7.009   2.713 -0.5498  0.8115 -0.6123
   54CHL1   H2A 3970   0.246   7.093   2.684 -0.4265  1.5032  1.0479
   54CHL1   H2B 3971   0.281   6.912   2.671 -1.0073  1.0845 -0.9017
   54CHL1   C20 3972   0.409   6.863   3.632 -0.4941  0.2145  0.4004
   54CHL1   H20 3973   0.306   6.850   3.590 -0.0853 -0.7416 -0.3305
   54CHL1   C21 3974   0.407   6.974   3.734 -0.1401 -0.3612 -0.0523
   54CHL1  H21A 3975   0.515   6.990   3.756  0.1530 -0.6198 -1.2530
   54CHL1  H21B 3976   0.345   6.950   3.822  0.6488 -0.0634  0.5969
   54CHL1  H21C 3977   0.378   7.075   3.697  2.1271 -0.4108 -2.0923
   54CHL1   C22 3978   0.443   6.729   3.705 -0.1436  0.2376 -0.7359
   54CHL1  H22A 3979   0.462   6.656   3.624  0.8721 -0.2531 -0.0541
   54CHL1  H22B 3980   0.546   6.736   3.744  0.7241 -2.1487 -2.4787
   54CHL1   C23 3981   0.347   6.669   3.790  0.3839  0.2533  0.0378
   54CHL1  H23A 3982   0.332   6.724   3.885  1.4873 -1.2042  1.1013
   54CHL1  H23B 3983   0.245   6.656   3.750  0.5886  0.3839 -0.5340
   54CHL1   C24 3984   0.403   6.524   3.828  0.1342 -0.3147 -0.0180
   54CHL1  H24A 3985   0.397   6.461   3.738  1.5963  0.8434 -0.9448
   54CHL1  H24B 3986   0.504   6.521   3.874 -0.0755 -1.0410  0.4121
   54CHL1   C25 3987   0.312   6.451   3.931 -0.4069 -0.1418  0.4384
   54CHL1   H25 3988   0.207   6.447   3.893 -0.6509 -2.1256  1.2652
   54CHL1   C26 3989   0.353   6.306   3.951 -0.2958 -0.1431  0.3133
   54CHL1  H26A 3990   0.377   6.261   3.852 -2.2103  1.0298 -0.7103
   54CHL1  H26B 3991   0.442   6.296   4.017 -0.7302 -0.8032  0.7991
   54CHL1  H26C 3992   0.270   6.254   4.002 -0.9077  0.8711  0.3519
   54CHL1   C27 3993   0.309   6.518   4.069 -0.6850 -0.6556  0.7880
   54CHL1  H27A 3994   0.233   6.460   4.127 -0.6736 -1.2653  0.1950
   54CHL1  H27B 3995   0.408   6.492   4.113 -0.7620 -2.5521 -0.1062
   54CHL1  H27C 3996   0.285   6.626   4.064  0.1405 -0.5394 -1.1153
   55CHL1    C3 3997   6.960   6.595   2.561  0.0801  0.3590  0.4844
   55CHL1    H3 3998   6.855   6.631   2.555  0.4632  1.5153  0.5335
   55CHL1    O3 3999   7.010   6.590   2.427 -0.7971 -0.5531 -0.0387
   55CHL1   H3' 4000   7.075   6.660   2.416  1.9184 -2.8155  1.0649
   55CHL1    C4 4001   7.028   6.708   2.639  1.1756  0.9042 -0.0497
   55CHL1   H4A 4002   7.136   6.684   2.648  0.6888 -0.5448  2.2998
   55CHL1   H4B 4003   7.016   6.800   2.576 -2.1415  0.6989  0.2103
   55CHL1    C5 4004   6.977   6.727   2.772 -0.3289  0.3659 -0.2515
   55CHL1    C6 4005   6.928   6.844   2.823  0.2697 -0.6314 -0.7675
   55CHL1    H6 4006   6.930   6.935   2.761 -1.6634 -0.5169 -0.7101
   55CHL1    C7 4007   6.875   6.868   2.962  0.1607 -0.8084  0.1431
   55CHL1   H7A 4008   6.928   6.959   2.996 -0.1366 -0.5447 -0.1056
   55CHL1   H7B 4009   6.768   6.895   2.968  0.6560  1.6147 -1.2022
   55CHL1    C8 4010   6.900   6.744   3.055 -0.6330 -0.4953 -0.0959
   55CHL1    H8 4011   7.007   6.757   3.080 -1.2300  0.1711  2.2158
   55CHL1   C14 4012   6.809   6.748   3.183 -0.0771 -0.3319 -0.4495
   55CHL1   H14 4013   6.709   6.736   3.138 -0.1991 -0.2242 -0.2057
   55CHL1   C15 4014   6.791   6.884   3.257  0.7200  0.1627  0.1792
   55CHL1  H15A 4015   6.890   6.935   3.265 -0.1883  2.6409 -3.0566
   55CHL1  H15B 4016   6.739   6.958   3.192  0.7790 -0.4039 -0.5143
   55CHL1   C16 4017   6.736   6.839   3.393  0.0503  0.0617  0.1601
   55CHL1  H16A 4018   6.805   6.879   3.471 -1.4735 -0.2073  1.6739
   55CHL1  H16B 4019   6.636   6.882   3.414  0.1536 -0.2914  1.4710
   55CHL1   C17 4020   6.731   6.683   3.394 -0.0687  0.1088 -0.2724
   55CHL1   H17 4021   6.625   6.651   3.377  0.1350  0.6586 -2.6562
   55CHL1   C13 4022   6.821   6.640   3.285 -0.3042  0.0486  0.3926
   55CHL1   C18 4023   6.970   6.635   3.338  0.2903 -0.2069  0.6336
   55CHL1  H18A 4024   7.040   6.622   3.252 -0.2116 -2.4130  0.5342
   55CHL1  H18B 4025   7.005   6.726   3.392  0.0946 -0.3482  1.0030
   55CHL1  H18C 4026   6.986   6.558   3.416  0.2270  2.0269  2.9521
   55CHL1   C12 4027   6.780   6.506   3.208 -0.2107  0.4331 -0.2645
   55CHL1  H12A 4028   6.789   6.419   3.276  0.1470  0.8106  0.1743
   55CHL1  H12B 4029   6.672   6.516   3.182 -0.2176  2.9001  0.5880
   55CHL1   C11 4030   6.861   6.485   3.077  0.3749  0.5252 -0.8298
   55CHL1  H11A 4031   6.962   6.455   3.110  0.1883  1.6809  0.8812
   55CHL1  H11B 4032   6.808   6.402   3.026 -1.7215  0.2272  1.7334
   55CHL1    C9 4033   6.869   6.609   2.985 -0.2288  0.0482 -0.3660
   55CHL1    H9 4034   6.764   6.606   2.949 -1.1429  0.6294  2.1114
   55CHL1   C10 4035   6.964   6.593   2.856 -0.1859 -0.0840 -0.0684
   55CHL1   C19 4036   7.113   6.560   2.899  0.0360  0.4528 -0.3479
   55CHL1  H19A 4037   7.146   6.646   2.961  1.3340  0.9743 -1.7254
   55CHL1  H19B 4038   7.131   6.466   2.956 -2.9542  0.4388  0.6867
   55CHL1  H19C 4039   7.175   6.560   2.807 -0.5210  1.6913 -0.7308
   55CHL1    C1 4040   6.914   6.477   2.773 -0.1262 -0.3653 -0.3496
   55CHL1   H1A 4041   6.928   6.379   2.825 -1.1292 -0.1257  0.3835
   55CHL1   H1B 4042   6.806   6.495   2.754 -0.7480 -3.5219 -0.2233
   55CHL1    C2 4043   6.969   6.465   2.632 -0.1242  0.3603  0.1242
   55CHL1   H2A 4044   6.913   6.386   2.577 -1.3689  1.2993  0.0128
   55CHL1   H2B 4045   7.075   6.434   2.635  0.8175  3.3540 -0.8627
   55CHL1   C20 4046   6.760   6.637   3.539 -0.5493  0.5190  0.0822
   55CHL1   H20 4047   6.865   6.667   3.556 -0.3891  0.5962 -1.0020
   55CHL1   C21 4048   6.742   6.486   3.533  0.0323  0.4972 -0.3677
   55CHL1  H21A 4049   6.831   6.445   3.482  1.5365  1.1358  1.6360
   55CHL1  H21B 4050   6.639   6.460   3.503 -1.1652  1.3144  2.8120
   55CHL1  H21C 4051   6.760   6.448   3.636 -0.6815 -1.7275 -1.0367
   55CHL1   C22 4052   6.674   6.697   3.653  0.0926 -0.3720  0.2721
   55CHL1  H22A 4053   6.709   6.645   3.744 -1.3872 -2.3991 -0.2885
   55CHL1  H22B 4054   6.698   6.804   3.673 -0.3292 -0.1067 -0.6008
   55CHL1   C23 4055   6.526   6.685   3.628  0.1682 -0.1061  0.6781
   55CHL1  H23A 4056   6.489   6.743   3.540 -0.3135 -2.2333 -0.5400
   55CHL1  H23B 4057   6.509   6.577   3.613  0.6900  0.0544 -1.1693
   55CHL1   C24 4058   6.437   6.719   3.750  0.1592  0.0399  0.4209
   55CHL1  H24A 4059   6.473   6.658   3.835 -0.0105  0.2525  0.6442
   55CHL1  H24B 4060   6.457   6.824   3.780  2.7151 -0.3488  0.1659
   55CHL1   C25 4061   6.289   6.696   3.740 -0.2398 -0.1240 -0.4351
   55CHL1   H25 4062   6.274   6.586   3.730 -1.5746 -0.0185  0.3023
   55CHL1   C26 4063   6.220   6.741   3.870  0.6443 -0.4010 -0.0999
   55CHL1  H26A 4064   6.235   6.848   3.898  0.5089 -1.2574  3.4696
   55CHL1  H26B 4065   6.112   6.718   3.859 -0.0496  1.7539  1.6385
   55CHL1  H26C 4066   6.238   6.674   3.956 -2.3839  0.5415  1.3605
   55CHL1   C27 4067   6.224   6.756   3.611 -0.1285  0.3513  0.5310
   55CHL1  H27A 4068   6.234   6.867   3.612 -0.3254  0.3706  1.7071
   55CHL1  H27B 4069   6.262   6.709   3.518  0.2887 -0.9526  1.3440
   55CHL1  H27C 4070   6.116   6.734   3.619  0.1121 -0.3270  2.1828
   56CHL1    C3 4071   0.182   0.552   2.542  0.0992 -0.4814  0.2246
   56CHL1    H3 4072   0.244   0.459   2.532 -0.2806 -0.6435 -0.6784
   56CHL1    O3 4073   0.199   0.627   2.422 -0.1809  0.5142  0.5508
   56CHL1   H3' 4074   0.295   0.631   2.418  0.1634  1.0507  5.5069
   56CHL1    C4 4075   0.033   0.516   2.552  0.0130 -0.1980  0.4582
   56CHL1   H4A 4076  -0.027   0.606   2.523 -1.6390 -1.5273 -0.3451
   56CHL1   H4B 4077   0.010   0.450   2.466  0.3565  0.5277 -0.1918
   56CHL1    C5 4078  -0.017   0.466   2.685 -0.0441  0.4550 -1.0907
   56CHL1    C6 4079  -0.097   0.360   2.699 -0.1928  0.4340  0.1876
   56CHL1    H6 4080  -0.112   0.305   2.605 -0.3036  3.6529 -1.7480
   56CHL1    C7 4081  -0.151   0.306   2.832 -0.0004 -0.5134  0.6441
   56CHL1   H7A 4082  -0.259   0.281   2.828 -0.2585  0.5462  0.8010
   56CHL1   H7B 4083  -0.103   0.206   2.845  1.5551  0.1804  0.3983
   56CHL1    C8 4084  -0.122   0.397   2.954  0.6408  0.1943  0.3388
   56CHL1    H8 4085  -0.198   0.477   2.955 -0.5576 -0.9105 -0.3905
   56CHL1   C14 4086  -0.130   0.318   3.085 -0.0996 -0.6366  0.9279
   56CHL1   H14 4087  -0.039   0.253   3.088  2.6849  3.1001  0.8083
   56CHL1   C15 4088  -0.262   0.242   3.108  0.2010  0.0779 -0.3955
   56CHL1  H15A 4089  -0.356   0.295   3.080 -0.1473  0.1846  0.9626
   56CHL1  H15B 4090  -0.271   0.142   3.061  1.2278 -0.3359  0.2688
   56CHL1   C16 4091  -0.262   0.212   3.262  0.4452 -0.1754  0.1664
   56CHL1  H16A 4092  -0.354   0.260   3.301 -0.3211  0.2155 -2.0697
   56CHL1  H16B 4093  -0.260   0.107   3.298  1.4169  0.4698  2.0809
   56CHL1   C17 4094  -0.135   0.290   3.315 -0.4810 -0.1719  0.1437
   56CHL1   H17 4095  -0.052   0.219   3.298  1.8288  3.0494 -3.0427
   56CHL1   C13 4096  -0.109   0.401   3.203  0.5372 -0.7354 -0.5033
   56CHL1   C18 4097  -0.210   0.518   3.227 -0.2109 -0.2072 -0.0456
   56CHL1  H18A 4098  -0.218   0.577   3.133  0.1482  1.2350  0.8214
   56CHL1  H18B 4099  -0.312   0.490   3.262 -0.7140  2.8166  1.0723
   56CHL1  H18C 4100  -0.170   0.591   3.300 -1.6011  0.8231 -0.2856
   56CHL1   C12 4101   0.037   0.452   3.202 -0.5583 -0.2912 -0.0922
   56CHL1  H12A 4102   0.055   0.523   3.286 -0.2980  0.1181 -0.4867
   56CHL1  H12B 4103   0.114   0.373   3.197 -1.0485 -0.8302  0.7385
   56CHL1   C11 4104   0.055   0.542   3.073  0.9019  0.1144 -0.5540
   56CHL1  H11A 4105  -0.004   0.636   3.086 -2.5340 -2.1909  1.4798
   56CHL1  H11B 4106   0.163   0.568   3.078  0.4295  1.8227  1.9653
   56CHL1    C9 4107   0.009   0.467   2.940 -0.7716 -0.1103  0.0089
   56CHL1    H9 4108   0.080   0.383   2.926 -1.6095 -0.5793 -1.5052
   56CHL1   C10 4109   0.031   0.552   2.811 -0.6506 -0.7433  0.1798
   56CHL1   C19 4110  -0.052   0.685   2.825 -0.3820 -0.6923  0.3744
   56CHL1  H19A 4111  -0.155   0.669   2.862 -0.0830 -2.5697  0.4298
   56CHL1  H19B 4112  -0.006   0.767   2.885  0.1540 -0.0266 -0.9151
   56CHL1  H19C 4113  -0.061   0.726   2.722  1.6470 -0.2010  0.3641
   56CHL1    C1 4114   0.189   0.578   2.792  1.2590 -0.1032 -0.2109
   56CHL1   H1A 4115   0.230   0.630   2.881  2.7522 -0.6974 -0.5393
   56CHL1   H1B 4116   0.239   0.479   2.800  0.8815 -0.0866  2.8566
   56CHL1    C2 4117   0.229   0.640   2.656  0.0985  0.1534  0.0216
   56CHL1   H2A 4118   0.337   0.661   2.645  0.1585 -0.4299 -0.6031
   56CHL1   H2B 4119   0.180   0.739   2.643 -0.7547  0.0444  2.1956
   56CHL1   C20 4120  -0.132   0.330   3.465  0.2914  0.1035 -0.8649
   56CHL1   H20 4121  -0.162   0.437   3.463 -0.8509 -0.1108  1.8350
   56CHL1   C21 4122   0.012   0.324   3.522 -0.2483  1.2138  0.4413
   56CHL1  H21A 4123   0.021   0.369   3.623  0.9794 -0.5748  1.1515
   56CHL1  H21B 4124   0.088   0.371   3.455  0.0729 -2.1203 -1.6812
   56CHL1  H21C 4125   0.039   0.216   3.527 -2.5314  0.6352  0.8082
   56CHL1   C22 4126  -0.243   0.258   3.552  0.0318 -0.1484  0.2627
   56CHL1  H22A 4127  -0.340   0.286   3.507  0.4271  0.2813 -0.3376
   56CHL1  H22B 4128  -0.237   0.147   3.542  0.9298  0.1435 -2.8964
   56CHL1   C23 4129  -0.259   0.309   3.700 -0.1833  0.0502  0.3130
   56CHL1  H23A 4130  -0.174   0.256   3.747 -1.3031 -1.6886  0.4007
   56CHL1  H23B 4131  -0.243   0.419   3.709  4.0251 -0.0985 -3.3177
   56CHL1   C24 4132  -0.391   0.263   3.772  0.7750  0.1500  0.0525
   56CHL1  H24A 4133  -0.477   0.300   3.713 -0.9626 -1.3990  1.5613
   56CHL1  H24B 4134  -0.391   0.154   3.750  2.9083 -0.2028  1.5732
   56CHL1   C25 4135  -0.408   0.291   3.919 -0.0407 -0.3471  0.6738
   56CHL1   H25 4136  -0.405   0.402   3.922 -0.7419 -0.3435  1.4277
   56CHL1   C26 4137  -0.540   0.225   3.961 -0.6725 -0.4610 -0.0359
   56CHL1  H26A 4138  -0.549   0.249   4.069 -1.3123  0.7519 -0.3465
   56CHL1  H26B 4139  -0.628   0.267   3.907  0.3879 -2.0450 -3.1175
   56CHL1  H26C 4140  -0.546   0.115   3.951  1.1132 -0.4533 -1.3719
   56CHL1   C27 4141  -0.288   0.233   3.989 -0.0660  0.2134 -0.4399
   56CHL1  H27A 4142  -0.190   0.272   3.955 -0.1461 -0.0754 -1.0205
   56CHL1  H27B 4143  -0.296   0.257   4.097  3.8338  0.7152 -0.1968
   56CHL1  H27C 4144  -0.288   0.125   3.962  0.5782  0.0908  0.0388
   57SAPC     N 4145   4.317   3.181   6.482  0.0645  0.4725 -0.1761
   57SAPC   C12 4146   4.388   3.257   6.365  0.3205 -0.7360 -0.3778
   57SAPC  H12A 4147   4.343   3.355   6.354 -0.5924 -1.2272 -1.0951
   57SAPC  H12B 4148   4.354   3.206   6.276  4.7698 -0.5109 -2.3562
   57SAPC   C13 4149   4.365   3.222   6.619  0.2954 -0.4430 -0.0765
   57SAPC  H13A 4150   4.472   3.233   6.624  0.1280  1.1016  0.4267
   57SAPC  H13B 4151   4.336   3.323   6.645 -1.4046 -1.2569  1.2446
   57SAPC  H13C 4152   4.331   3.160   6.700  1.0708 -1.3564 -0.4428
   57SAPC   C14 4153   4.170   3.199   6.476 -0.2058 -0.1107  0.0760
   57SAPC  H14A 4154   4.147   3.301   6.501 -1.3430 -0.4784  0.5788
   57SAPC  H14B 4155   4.117   3.177   6.384 -1.5600 -2.0296  1.2750
   57SAPC  H14C 4156   4.117   3.142   6.551 -0.5520 -0.3011 -0.3097
   57SAPC   C15 4157   4.354   3.035   6.475  0.3888 -0.0511  0.3390
   57SAPC  H15A 4158   4.317   2.987   6.385 -0.2999 -3.7703  2.4877
   57SAPC  H15B 4159   4.460   3.015   6.474  0.5626  0.7404  1.5107
   57SAPC  H15C 4160   4.311   2.983   6.560 -0.2043  2.2787  1.5070
   57SAPC   C11 4161   4.542   3.268   6.355  0.3597 -0.8586 -0.5133
   57SAPC  H11A 4162   4.576   3.338   6.434  1.7798 -0.3041 -1.5978
   57SAPC  H11B 4163   4.565   3.311   6.255 -0.8523 -0.9104 -0.8176
   57SAPC     P 4164   4.651   3.031   6.270  0.0919  0.2510  0.1514
   57SAPC   O13 4165   4.739   2.928   6.335  0.0237  0.2041 -0.3936
   57SAPC   O14 4166   4.521   2.988   6.212  0.1178  0.4695 -0.3509
   57SAPC   O12 4167   4.610   3.144   6.375  0.0743 -0.0300 -0.0426
   57SAPC   O11 4168   4.735   3.106   6.164 -0.3199 -0.5784 -0.6599
   57SAPC    C1 4169   4.859   3.173   6.201  0.2418 -0.8505 -0.3609
   57SAPC    HA 4170   4.846   3.254   6.276  0.0200 -1.4507  0.2570
   57SAPC    HB 4171   4.936   3.102   6.237  0.6014 -0.2311  0.1078
   57SAPC    C2 4172   4.913   3.243   6.074 -0.1538  0.1329  0.4964
   57SAPC    HS 4173   4.998   3.297   6.121  0.2771 -1.0998  1.1591
   57SAPC   O21 4174   4.822   3.328   5.997 -0.3198  0.3797 -0.7464
   57SAPC   C21 4175   4.769   3.435   6.060  0.4475  0.4511  0.2909
   57SAPC   O22 4176   4.797   3.467   6.177 -0.2075  0.1040  0.5078
   57SAPC   C22 4177   4.673   3.512   5.968  0.7460 -0.8283 -0.3815
   57SAPC   H2R 4178   4.598   3.437   5.935 -0.1019 -0.1074 -0.1146
   57SAPC   H2S 4179   4.637   3.591   6.037 -0.2830  0.8003 -2.7217
   57SAPC    C3 4180   4.968   3.141   5.970  0.0831 -0.0202 -0.2613
   57SAPC    HX 4181   5.016   3.064   6.035 -2.4797 -1.2395  0.2910
   57SAPC    HY 4182   5.052   3.187   5.915 -1.4560  1.0301 -1.7780
   57SAPC   O31 4183   4.874   3.071   5.885  0.2841 -0.1325  0.1773
   57SAPC   C31 4184   4.880   3.096   5.749  0.2909  0.0528  0.3027
   57SAPC   O32 4185   4.967   3.156   5.689  0.7030 -0.0771  0.2571
   57SAPC   C32 4186   4.765   3.017   5.687 -0.8674  0.1774 -0.0335
   57SAPC   H2X 4187   4.687   3.004   5.764 -1.4118 -0.8795 -0.7589
   57SAPC   H2Y 4188   4.810   2.919   5.661 -0.4485  0.4070 -0.1864
   57SAPC   C23 4189   4.742   3.575   5.843  0.2996  0.1379 -0.1835
   57SAPC   H3R 4190   4.783   3.493   5.781  0.6095 -0.8016  1.2212
   57SAPC   H3S 4191   4.829   3.633   5.879 -1.0559  1.9573  0.2278
   57SAPC   C24 4192   4.642   3.654   5.751 -0.4523 -0.1913  0.1529
   57SAPC   H4R 4193   4.593   3.720   5.825  1.0088  1.6997 -0.5374
   57SAPC   H4S 4194   4.561   3.584   5.721  0.1278 -1.3466  1.2218
   57SAPC   C25 4195   4.712   3.724   5.638  0.5617 -0.3958  0.7303
   57SAPC   H5R 4196   4.751   3.822   5.669 -1.0221  0.5679 -0.2291
   57SAPC   C26 4197   4.723   3.672   5.518 -0.3014  0.5205  1.0741
   57SAPC   H6R 4198   4.781   3.732   5.446 -1.6111  0.5473  0.0191
   57SAPC   C27 4199   4.679   3.537   5.464 -0.8805 -0.7558 -0.4232
   57SAPC   H7R 4200   4.590   3.563   5.403  0.5629  0.9224 -1.8906
   57SAPC   H7S 4201   4.641   3.473   5.546 -0.2643 -1.4296 -0.6461
   57SAPC   C28 4202   4.788   3.466   5.384 -0.0594  0.0160 -0.1785
   57SAPC   H8R 4203   4.868   3.422   5.446  0.8136 -1.4304 -2.2808
   57SAPC   C29 4204   4.787   3.442   5.249  0.9535 -0.3991 -0.2619
   57SAPC   H9R 4205   4.875   3.401   5.198  1.3399  1.2920 -0.9862
   57SAPC  C210 4206   4.682   3.478   5.151 -0.5851  0.0857  0.3905
   57SAPC  H10R 4207   4.584   3.471   5.203 -0.4926  2.2141  0.9044
   57SAPC  H10S 4208   4.678   3.401   5.071 -0.7681  0.3468  0.1498
   57SAPC  C211 4209   4.702   3.613   5.090 -0.5536 -0.5742  0.1963
   57SAPC  H11R 4210   4.694   3.701   5.156 -1.2266 -0.2154 -0.3535
   57SAPC  C212 4211   4.723   3.648   4.957  0.0770 -0.3613 -0.3169
   57SAPC  H12R 4212   4.731   3.756   4.937 -1.2123 -0.5367 -1.8841
   57SAPC  C213 4213   4.741   3.559   4.843  0.4251  0.1501  0.1198
   57SAPC  H13R 4214   4.789   3.464   4.875  0.9821 -0.3724 -2.1896
   57SAPC  H13S 4215   4.825   3.591   4.777  0.9274 -1.8278 -0.2256
   57SAPC  C214 4216   4.612   3.539   4.752  0.6502 -0.8424 -0.6538
   57SAPC  H14R 4217   4.523   3.497   4.802  0.0200  1.0279 -0.1801
   57SAPC  C215 4218   4.617   3.545   4.614  0.5752 -0.4925  0.0089
   57SAPC  H15R 4219   4.534   3.511   4.551 -0.2043  0.0446  0.7430
   57SAPC  C216 4220   4.741   3.577   4.534  0.1555 -0.1287  0.5658
   57SAPC  H16R 4221   4.836   3.537   4.575  0.7173  0.8719  0.2395
   57SAPC  H16S 4222   4.752   3.686   4.518 -0.3048 -0.1203  0.2793
   57SAPC  C217 4223   4.727   3.519   4.390  1.3769  0.0791 -0.0037
   57SAPC  H17R 4224   4.645   3.579   4.346  1.6929 -0.8358 -1.8936
   57SAPC  H17S 4225   4.691   3.415   4.405 -1.6338  1.4987  3.1356
   57SAPC  C218 4226   4.854   3.535   4.293  0.5038  0.2628  0.5979
   57SAPC  H18R 4227   4.849   3.446   4.227  0.0385  0.6799  0.0672
   57SAPC  H18S 4228   4.952   3.518   4.343  1.9481  1.4473 -1.7512
   57SAPC  C219 4229   4.844   3.672   4.218  0.2626  0.2840  1.2171
   57SAPC  H19R 4230   4.851   3.746   4.300  2.8636  1.6492 -0.1574
   57SAPC  H19S 4231   4.741   3.668   4.176  1.2436  0.1877 -1.2542
   57SAPC  C220 4232   4.937   3.705   4.103 -0.9875 -0.3452 -0.1172
   57SAPC  H20R 4233   4.916   3.640   4.016  1.7853 -2.3568  0.6524
   57SAPC  H20S 4234   5.044   3.690   4.130 -0.4836 -0.7014 -2.2266
   57SAPC  H20T 4235   4.924   3.812   4.076  3.1201 -0.2323 -1.9649
   57SAPC   C33 4236   4.708   3.072   5.555  0.0800 -0.7160 -0.1519
   57SAPC   H3X 4237   4.631   2.998   5.524 -0.8583  0.4439 -0.6451
   57SAPC   H3Y 4238   4.790   3.086   5.481  0.7691  0.0487  0.7438
   57SAPC   C34 4239   4.621   3.200   5.575 -0.0648  0.0001 -0.4440
   57SAPC   H4X 4240   4.688   3.289   5.580  0.4859 -0.4687  0.6708
   57SAPC   H4Y 4241   4.558   3.179   5.664  0.3403  0.1283 -0.1219
   57SAPC   C35 4242   4.516   3.205   5.465  0.6845  0.0409  0.4659
   57SAPC   H5X 4243   4.481   3.102   5.443  2.8210 -0.4857 -0.6153
   57SAPC   H5Y 4244   4.576   3.241   5.379 -0.0178 -1.0875 -0.5153
   57SAPC   C36 4245   4.406   3.302   5.509 -0.1041  0.3041  0.4077
   57SAPC   H6X 4246   4.450   3.402   5.533  0.2621  0.3605 -0.4750
   57SAPC   H6Y 4247   4.370   3.265   5.607  1.0380  0.6401  0.9675
   57SAPC   C37 4248   4.293   3.312   5.415 -0.4413  0.1762  0.0967
   57SAPC   H7X 4249   4.213   3.371   5.465 -0.0969  1.0230 -0.3376
   57SAPC   H7Y 4250   4.257   3.208   5.401 -1.2417  0.2035  1.8052
   57SAPC   C38 4251   4.334   3.379   5.284  0.3242 -0.2760  0.0168
   57SAPC   H8X 4252   4.419   3.325   5.237  1.0217  1.2262 -0.4640
   57SAPC   H8Y 4253   4.360   3.483   5.311 -0.4096 -0.4000  1.2410
   57SAPC   C39 4254   4.224   3.370   5.179 -0.2310 -0.9974  0.2342
   57SAPC   H9X 4255   4.127   3.409   5.217 -0.0771 -0.5289  0.1515
   57SAPC   H9Y 4256   4.206   3.264   5.152 -0.9208 -1.1725  1.3824
   57SAPC  C310 4257   4.267   3.445   5.061  0.6648 -0.9061  0.3476
   57SAPC  H10X 4258   4.364   3.403   5.026  0.3639 -1.7812  0.5460
   57SAPC  H10Y 4259   4.287   3.552   5.084  1.2107 -0.6018 -1.3936
   57SAPC  C311 4260   4.170   3.428   4.945 -0.1072 -0.2969  0.6742
   57SAPC  H11X 4261   4.084   3.496   4.963 -0.4144  0.2700 -2.6459
   57SAPC  H11Y 4262   4.136   3.324   4.926  1.2276 -0.8214  1.1202
   57SAPC  C312 4263   4.226   3.498   4.814  0.1601  0.1596  0.3886
   57SAPC  H12X 4264   4.312   3.436   4.783  1.1406  0.4997  2.3950
   57SAPC  H12Y 4265   4.276   3.594   4.840  0.8290 -0.1988  0.4235
   57SAPC  C313 4266   4.125   3.515   4.706 -0.4320 -0.1500  0.5340
   57SAPC  H13X 4267   4.035   3.566   4.746 -2.0265 -2.9060  0.6232
   57SAPC  H13Y 4268   4.095   3.409   4.689 -0.8245 -0.0471  0.5727
   57SAPC  C314 4269   4.189   3.561   4.572  0.5372  0.1813  0.0210
   57SAPC  H14X 4270   4.108   3.550   4.496  0.8163  2.1477 -0.5633
   57SAPC  H14Y 4271   4.259   3.479   4.547 -1.3407 -1.1698 -0.9857
   57SAPC  C315 4272   4.247   3.701   4.568  0.1164 -0.4599 -0.4486
   57SAPC  H15X 4273   4.308   3.719   4.477  0.4468 -0.4218 -0.2211
   57SAPC  H15Y 4274   4.306   3.725   4.659  0.3797  1.6956 -1.1657
   57SAPC  C316 4275   4.141   3.812   4.563  0.2920  0.2412 -0.0581
   57SAPC  H16X 4276   4.077   3.803   4.653  1.3017 -0.8091  0.5646
   57SAPC  H16Y 4277   4.077   3.792   4.475 -1.3466  2.8677  0.4660
   57SAPC  C317 4278   4.197   3.954   4.550  1.1614 -0.1352  0.1167
   57SAPC  H17X 4279   4.118   4.032   4.541  1.9804  0.7070  0.2517
   57SAPC  H17Y 4280   4.250   3.959   4.452 -0.0402 -0.2484 -0.5566
   57SAPC  C318 4281   4.281   3.994   4.670  0.2174  0.4328  0.1262
   57SAPC  H18X 4282   4.374   3.933   4.676  0.3646  0.7420  1.1108
   57SAPC  H18Y 4283   4.214   4.009   4.758 -3.4597  0.6717 -2.6032
   57SAPC  H18Z 4284   4.318   4.098   4.658 -0.9695  0.8756  0.2394
   58SAPC     N 4285   3.694   2.392   6.215 -0.2291  0.2631 -0.2147
   58SAPC   C12 4286   3.655   2.275   6.300  0.9294  0.0016 -0.2837
   58SAPC  H12A 4287   3.734   2.201   6.306 -0.4584 -1.5613 -1.0167
   58SAPC  H12B 4288   3.572   2.223   6.255  1.4514 -1.2573  0.1738
   58SAPC   C13 4289   3.830   2.441   6.262 -1.0325  0.1749  0.0223
   58SAPC  H13A 4290   3.876   2.520   6.205  2.2340 -3.0829 -2.0983
   58SAPC  H13B 4291   3.828   2.480   6.363 -2.0858  2.2392 -0.7677
   58SAPC  H13C 4292   3.894   2.353   6.262 -0.7405  0.3482  2.3746
   58SAPC   C14 4293   3.710   2.361   6.067  0.1644  0.6007  0.4672
   58SAPC  H14A 4294   3.770   2.276   6.040 -3.2768 -1.2934 -1.5948
   58SAPC  H14B 4295   3.610   2.342   6.029  0.8369 -0.4446 -0.8347
   58SAPC  H14C 4296   3.750   2.449   6.018 -1.0014  1.5809  1.2542
   58SAPC   C15 4297   3.596   2.502   6.222 -0.5050 -0.2511 -0.7082
   58SAPC  H15A 4298   3.580   2.534   6.324  2.0801  2.6822 -1.1720
   58SAPC  H15B 4299   3.638   2.588   6.174 -2.0769  1.7745  1.4031
   58SAPC  H15C 4300   3.501   2.472   6.179  0.0153  0.3201 -2.2676
   58SAPC   C11 4301   3.608   2.300   6.448  0.1931  0.2115  0.4814
   58SAPC  H11A 4302   3.697   2.339   6.503  0.7621  0.2049 -0.4180
   58SAPC  H11B 4303   3.598   2.198   6.492  0.3963 -0.0264 -0.0240
   58SAPC     P 4304   3.352   2.334   6.428  0.1903  0.1366  0.4501
   58SAPC   O13 4305   3.284   2.296   6.554  0.3521  0.4699  0.0509
   58SAPC   O14 4306   3.295   2.445   6.349  0.7297 -0.0229  0.3374
   58SAPC   O12 4307   3.496   2.382   6.460  0.3761 -0.4890  0.3251
   58SAPC   O11 4308   3.373   2.208   6.327 -0.1659 -0.2746 -0.0986
   58SAPC    C1 4309   3.298   2.087   6.328  0.1893  0.1349 -0.1508
   58SAPC    HA 4310   3.255   2.069   6.429 -1.6763 -1.6795 -1.2229
   58SAPC    HB 4311   3.212   2.099   6.259  0.5923  1.1563 -0.4877
   58SAPC    C2 4312   3.384   1.967   6.283 -0.0148  0.6284  0.3135
   58SAPC    HS 4313   3.464   1.954   6.359  1.3401  1.1659 -0.9833
   58SAPC   O21 4314   3.452   2.000   6.163 -0.4247 -0.0679 -0.1515
   58SAPC   C21 4315   3.569   1.944   6.144  0.3684  0.2271  0.6633
   58SAPC   O22 4316   3.637   1.881   6.223 -0.5022  0.3195 -0.9992
   58SAPC   C22 4317   3.622   1.980   6.001  0.2689 -0.5277 -0.1999
   58SAPC   H2R 4318   3.538   2.024   5.942 -0.4293  0.2877  1.3649
   58SAPC   H2S 4319   3.701   2.056   6.017 -0.8311  0.1426  2.3137
   58SAPC    C3 4320   3.291   1.847   6.264  0.7026 -0.2153  0.1522
   58SAPC    HX 4321   3.218   1.848   6.349  0.8690  0.1674  0.2917
   58SAPC    HY 4322   3.347   1.752   6.273 -0.6995 -1.0297  0.4666
   58SAPC   O31 4323   3.211   1.859   6.144  0.4849 -0.2237  0.5451
   58SAPC   C31 4324   3.268   1.811   6.036  0.5935 -0.1439  0.0716
   58SAPC   O32 4325   3.373   1.745   6.034  0.5069 -0.3235  0.1011
   58SAPC   C32 4326   3.178   1.834   5.908 -0.8219  0.3353 -0.0535
   58SAPC   H2X 4327   3.099   1.908   5.930 -0.3814  1.0045 -0.6668
   58SAPC   H2Y 4328   3.140   1.735   5.876 -1.5585  0.2628  1.0566
   58SAPC   C23 4329   3.666   1.854   5.929 -0.3822 -0.6157 -0.4401
   58SAPC   H3R 4330   3.578   1.790   5.905 -0.4414 -0.6441 -0.1437
   58SAPC   H3S 4331   3.726   1.789   5.996 -1.1609 -1.1872 -0.2882
   58SAPC   C24 4332   3.768   1.891   5.809  0.0304  0.2102 -0.2753
   58SAPC   H4R 4333   3.860   1.934   5.855  0.6907 -0.5863 -0.8341
   58SAPC   H4S 4334   3.711   1.974   5.762  2.0710  0.5888 -2.2233
   58SAPC   C25 4335   3.784   1.764   5.722 -0.1697  0.3502 -0.3587
   58SAPC   H5R 4336   3.866   1.696   5.749 -1.3700 -0.9749 -0.0385
   58SAPC   C26 4337   3.716   1.739   5.604  0.1203 -0.0681  0.0439
   58SAPC   H6R 4338   3.727   1.644   5.549 -2.4483  0.7635 -2.0111
   58SAPC   C27 4339   3.614   1.835   5.546  0.1399 -0.5251 -0.9708
   58SAPC   H7R 4340   3.654   1.938   5.554 -1.7952  0.3182 -1.9642
   58SAPC   H7S 4341   3.523   1.841   5.610 -0.0593  0.1480 -1.3158
   58SAPC   C28 4342   3.578   1.796   5.405  0.2219 -0.2044 -0.5128
   58SAPC   H8R 4343   3.664   1.782   5.338  0.2807  0.1165 -0.5016
   58SAPC   C29 4344   3.457   1.761   5.355  0.0166  0.3712 -0.4112
   58SAPC   H9R 4345   3.452   1.741   5.247 -2.0378 -2.3744  0.1457
   58SAPC  C210 4346   3.320   1.744   5.418  0.0319  0.8434 -0.0295
   58SAPC  H10R 4347   3.261   1.834   5.389  0.9891  1.7303  0.7383
   58SAPC  H10S 4348   3.324   1.754   5.529 -0.1736  1.9905 -0.1165
   58SAPC  C211 4349   3.252   1.618   5.386 -0.2284 -0.2547  0.0571
   58SAPC  H11R 4350   3.255   1.536   5.460 -1.8459 -2.7054 -2.4729
   58SAPC  C212 4351   3.187   1.583   5.274  0.2739 -0.3723  0.0638
   58SAPC  H12R 4352   3.137   1.486   5.272  0.4816 -0.4707 -0.3109
   58SAPC  C213 4353   3.163   1.671   5.150  0.4189  0.3343  0.1570
   58SAPC  H13R 4354   3.209   1.770   5.168  1.2314  0.0439 -0.2833
   58SAPC  H13S 4355   3.055   1.677   5.125  0.5875 -0.3276 -0.7399
   58SAPC  C214 4356   3.232   1.590   5.041  0.4017  0.1852  0.0460
   58SAPC  H14R 4357   3.248   1.484   5.068 -1.6624  0.0093  0.7220
   58SAPC  C215 4358   3.265   1.631   4.918  0.2732 -0.0552 -0.1480
   58SAPC  H15R 4359   3.321   1.566   4.848  0.0716 -0.5554  0.1546
   58SAPC  C216 4360   3.248   1.774   4.870  0.0172  0.2907 -0.2482
   58SAPC  H16R 4361   3.349   1.821   4.869  0.1321  0.0497  0.0000
   58SAPC  H16S 4362   3.182   1.844   4.925 -0.3614  0.0478 -0.3889
   58SAPC  C217 4363   3.191   1.781   4.729 -0.1599 -0.1236  0.6363
   58SAPC  H17R 4364   3.099   1.719   4.723 -0.4491  0.4304 -1.0433
   58SAPC  H17S 4365   3.266   1.721   4.672  1.0880  1.4788  0.5521
   58SAPC  C218 4366   3.168   1.926   4.683  0.5894 -0.2496 -0.3026
   58SAPC  H18R 4367   3.259   1.988   4.695  1.2132 -1.1016 -0.5284
   58SAPC  H18S 4368   3.089   1.976   4.744  1.6458  0.7520  0.2571
   58SAPC  C219 4369   3.138   1.923   4.534 -0.0384 -0.5502  0.5130
   58SAPC  H19R 4370   3.080   2.009   4.495 -0.2320 -0.7225  0.4178
   58SAPC  H19S 4371   3.062   1.844   4.516  0.2961 -1.2448  2.0507
   58SAPC  C220 4372   3.272   1.910   4.449  0.4974  0.5111  0.1211
   58SAPC  H20R 4373   3.246   1.894   4.342 -0.7427 -2.2439  0.8057
   58SAPC  H20S 4374   3.344   1.828   4.470  1.9734  1.8393  0.3923
   58SAPC  H20T 4375   3.322   2.009   4.460 -2.2412  1.7612  1.6888
   58SAPC   C33 4376   3.269   1.873   5.791 -0.0589 -0.4088  0.9134
   58SAPC   H3X 4377   3.224   1.833   5.698  1.4612  0.8484 -0.3926
   58SAPC   H3Y 4378   3.369   1.826   5.804  0.0600 -0.1372  0.9784
   58SAPC   C34 4379   3.280   2.030   5.789  0.2078  0.6503 -0.6237
   58SAPC   H4X 4380   3.306   2.073   5.888 -0.5589  1.7933 -0.9056
   58SAPC   H4Y 4381   3.179   2.059   5.754 -0.2167 -0.0933 -0.0121
   58SAPC   C35 4382   3.377   2.070   5.687 -0.1501  0.2818 -0.5020
   58SAPC   H5X 4383   3.371   2.014   5.591 -2.5274  0.6919 -0.6211
   58SAPC   H5Y 4384   3.472   2.029   5.725  0.6753  0.0950 -2.6706
   58SAPC   C36 4385   3.402   2.218   5.669 -0.6442  0.6112  0.1195
   58SAPC   H6X 4386   3.438   2.265   5.764 -1.1231 -0.2736  0.7468
   58SAPC   H6Y 4387   3.306   2.260   5.631 -1.7531 -1.4154  0.5872
   58SAPC   C37 4388   3.501   2.239   5.550  0.0103  1.3961  0.6364
   58SAPC   H7X 4389   3.605   2.203   5.567 -0.6997 -0.4829  1.1002
   58SAPC   H7Y 4390   3.508   2.350   5.544  0.0150  1.2813 -2.1320
   58SAPC   C38 4391   3.469   2.193   5.405 -0.3146  0.2207  0.2208
   58SAPC   H8X 4392   3.358   2.194   5.396 -0.2425 -2.3629 -1.4991
   58SAPC   H8Y 4393   3.494   2.085   5.401  3.9228  1.1695 -1.0313
   58SAPC   C39 4394   3.528   2.281   5.297  0.4032 -0.0170  0.0818
   58SAPC   H9X 4395   3.638   2.271   5.298  0.4253  0.0925 -0.7174
   58SAPC   H9Y 4396   3.502   2.385   5.325 -1.0103 -0.9486  2.3796
   58SAPC  C310 4397   3.488   2.240   5.158 -0.4606 -0.6580 -0.3864
   58SAPC  H10X 4398   3.540   2.305   5.084 -0.4492  0.5521  0.6700
   58SAPC  H10Y 4399   3.380   2.252   5.136 -0.3190 -0.6465 -1.1092
   58SAPC  C311 4400   3.546   2.098   5.135 -0.3841 -0.8562 -0.1053
   58SAPC  H11X 4401   3.493   2.025   5.201 -2.3662  0.5386 -0.1045
   58SAPC  H11Y 4402   3.655   2.085   5.154  0.4757  4.8029 -0.4671
   58SAPC  C312 4403   3.509   2.052   4.994  0.1378 -0.6125  1.0412
   58SAPC  H12X 4404   3.407   2.087   4.969  0.9199  1.6564  0.9158
   58SAPC  H12Y 4405   3.522   1.943   4.976  0.1774 -0.6931  1.5438
   58SAPC  C313 4406   3.596   2.114   4.880  0.2160  0.1370 -0.3055
   58SAPC  H13X 4407   3.694   2.131   4.930 -0.7836 -0.9856  2.1482
   58SAPC  H13Y 4408   3.559   2.215   4.854 -1.4718 -0.5509 -0.5875
   58SAPC  C314 4409   3.599   2.024   4.754  0.0424 -0.5891 -0.2514
   58SAPC  H14X 4410   3.496   2.018   4.712 -1.3125  1.5977  2.5737
   58SAPC  H14Y 4411   3.645   1.928   4.785 -1.8486 -1.6058 -0.5243
   58SAPC  C315 4412   3.679   2.088   4.639  0.2046  0.0219  0.1865
   58SAPC  H15X 4413   3.763   2.139   4.690  0.3878  0.6355 -0.7215
   58SAPC  H15Y 4414   3.619   2.168   4.591 -0.5242  0.2027  1.3863
   58SAPC  C316 4415   3.737   1.989   4.542  0.2242 -0.2332  0.0683
   58SAPC  H16X 4416   3.828   1.948   4.592  0.1928 -1.3194 -0.7448
   58SAPC  H16Y 4417   3.773   2.047   4.454 -1.5448 -0.1630 -0.6232
   58SAPC  C317 4418   3.634   1.884   4.500  0.2559  0.2604  0.5318
   58SAPC  H17X 4419   3.546   1.941   4.465 -0.7990 -1.1537  0.8405
   58SAPC  H17Y 4420   3.604   1.824   4.589  3.0106 -1.6890  0.2351
   58SAPC  C318 4421   3.698   1.786   4.393 -0.2304  0.2568  0.1670
   58SAPC  H18X 4422   3.716   1.836   4.296  1.7235  1.5533  1.1648
   58SAPC  H18Y 4423   3.617   1.712   4.376 -1.2391  1.0376  1.3890
   58SAPC  H18Z 4424   3.796   1.758   4.435 -0.4721  0.2343  0.7227
   59SAPC     N 4425   1.823   4.455   6.344  0.1021 -1.0569  0.9015
   59SAPC   C12 4426   1.796   4.312   6.304  0.9440  0.6135 -0.6200
   59SAPC  H12A 4427   1.736   4.265   6.380  0.1071  0.6240 -1.2610
   59SAPC  H12B 4428   1.894   4.268   6.299  0.4550 -0.6216  0.4659
   59SAPC   C13 4429   1.905   4.531   6.244 -0.3560  0.4656  0.5384
   59SAPC  H13A 4430   1.859   4.542   6.148 -2.1537  0.4247  1.3760
   59SAPC  H13B 4431   1.907   4.636   6.270  2.1887  0.4574  0.5329
   59SAPC  H13C 4432   2.008   4.505   6.227 -0.4882  0.2482  0.0769
   59SAPC   C14 4433   1.696   4.538   6.354 -0.4826  0.5868  0.4001
   59SAPC  H14A 4434   1.622   4.491   6.417 -0.5038 -3.4456 -2.4885
   59SAPC  H14B 4435   1.718   4.634   6.398  1.9525  0.2207  0.0571
   59SAPC  H14C 4436   1.654   4.568   6.259 -1.1563 -2.0685 -0.1688
   59SAPC   C15 4437   1.899   4.455   6.467  0.0505 -0.1566 -0.1536
   59SAPC  H15A 4438   1.855   4.399   6.548  0.3990 -0.1056  0.0750
   59SAPC  H15B 4439   2.000   4.423   6.446 -0.6395 -1.7574 -1.1490
   59SAPC  H15C 4440   1.906   4.558   6.496 -0.4399  0.0763 -0.8527
   59SAPC   C11 4441   1.716   4.306   6.178  0.5252  0.2543  0.2556
   59SAPC  H11A 4442   1.783   4.335   6.094  1.6268 -0.8582  0.7389
   59SAPC  H11B 4443   1.635   4.382   6.172 -0.4491 -0.7712  0.0848
   59SAPC     P 4444   1.519   4.141   6.134 -0.2996 -0.4110 -0.2759
   59SAPC   O13 4445   1.471   4.011   6.187 -0.2707 -0.3900  0.0110
   59SAPC   O14 4446   1.442   4.262   6.173  0.2983 -0.7933  0.4759
   59SAPC   O12 4447   1.670   4.166   6.174 -0.2576 -0.0036  0.0382
   59SAPC   O11 4448   1.535   4.135   5.971 -0.3443  0.3572  0.2198
   59SAPC    C1 4449   1.531   4.253   5.894  0.2176  0.6520 -0.4166
   59SAPC    HA 4450   1.560   4.337   5.960 -0.7513  0.4093  0.3260
   59SAPC    HB 4451   1.609   4.248   5.814  0.7408 -2.2277  0.2178
   59SAPC    C2 4452   1.395   4.279   5.832 -0.8066  0.3317 -0.6572
   59SAPC    HS 4453   1.313   4.277   5.906 -2.3182 -3.4114 -2.3282
   59SAPC   O21 4454   1.371   4.169   5.746 -0.3089 -0.1683  0.5933
   59SAPC   C21 4455   1.241   4.160   5.709 -0.6811 -0.1242  0.7358
   59SAPC   O22 4456   1.150   4.231   5.753 -0.3925 -0.1170 -0.3876
   59SAPC   C22 4457   1.240   4.058   5.610 -1.2203  0.4100 -0.2227
   59SAPC   H2R 4458   1.341   4.054   5.562 -0.7486  1.4046  0.6740
   59SAPC   H2S 4459   1.225   3.956   5.652  2.6386 -1.1351 -2.2924
   59SAPC    C3 4460   1.399   4.409   5.760  0.6327 -0.1515 -0.1189
   59SAPC    HX 4461   1.428   4.490   5.830 -0.4180  0.7106 -0.6785
   59SAPC    HY 4462   1.294   4.425   5.728  0.4622 -0.1501  0.4392
   59SAPC   O31 4463   1.496   4.409   5.649  0.1129  0.4712  0.0519
   59SAPC   C31 4464   1.441   4.407   5.532  0.2537  0.2928  0.7683
   59SAPC   O32 4465   1.324   4.425   5.505 -0.2530 -0.0940  0.3340
   59SAPC   C32 4466   1.552   4.408   5.421  0.2269  0.0993  0.0092
   59SAPC   H2X 4467   1.647   4.418   5.478  1.9811  0.1955 -2.8407
   59SAPC   H2Y 4468   1.545   4.501   5.360  2.4159 -0.3732 -0.9832
   59SAPC   C23 4469   1.152   4.091   5.491  0.9159  0.6435  0.2889
   59SAPC   H3R 4470   1.194   4.171   5.428 -1.3324  1.9228  0.3374
   59SAPC   H3S 4471   1.051   4.124   5.524 -0.1865 -0.5158 -1.8071
   59SAPC   C24 4472   1.121   3.974   5.400 -0.5298  0.4125 -0.0966
   59SAPC   H4R 4473   1.043   3.993   5.324  0.4785  0.4535 -1.1384
   59SAPC   H4S 4474   1.075   3.894   5.462 -3.0266  1.5607 -0.4183
   59SAPC   C25 4475   1.241   3.911   5.330  0.3346  0.0711  0.1418
   59SAPC   H5R 4476   1.282   3.822   5.380 -1.7813  0.2272  2.1896
   59SAPC   C26 4477   1.301   3.948   5.220  0.0709  0.6468 -0.3479
   59SAPC   H6R 4478   1.381   3.882   5.183  0.4414  1.2754 -0.6584
   59SAPC   C27 4479   1.258   4.067   5.142  0.9452 -0.1610  0.2952
   59SAPC   H7R 4480   1.332   4.147   5.164 -0.1355  0.6416  1.0715
   59SAPC   H7S 4481   1.155   4.099   5.171  0.2241 -1.0163 -1.2551
   59SAPC   C28 4482   1.235   4.034   4.993 -0.4272 -0.1050 -0.3766
   59SAPC   H8R 4483   1.132   4.005   4.969  0.2490 -2.7473 -0.1700
   59SAPC   C29 4484   1.323   4.059   4.895  0.5468 -0.0615 -0.0798
   59SAPC   H9R 4485   1.297   4.041   4.790 -0.1535  1.8384 -0.2428
   59SAPC  C210 4486   1.460   4.129   4.913  0.4742  0.3204 -0.2679
   59SAPC  H10R 4487   1.529   4.073   4.980 -2.5807 -2.0129  1.0646
   59SAPC  H10S 4488   1.438   4.220   4.972 -2.7183 -1.0446  0.7878
   59SAPC  C211 4489   1.535   4.173   4.787  0.4633 -0.1284  0.1250
   59SAPC  H11R 4490   1.641   4.143   4.783  0.2488 -0.9839  0.9083
   59SAPC  C212 4491   1.482   4.257   4.691  0.0842 -0.2770 -0.0191
   59SAPC  H12R 4492   1.552   4.290   4.612 -0.5042  1.6751  0.2455
   59SAPC  C213 4493   1.345   4.319   4.673 -0.2223 -0.8309  0.0032
   59SAPC  H13R 4494   1.353   4.428   4.654 -0.2459 -0.7223  0.6051
   59SAPC  H13S 4495   1.292   4.313   4.770 -2.2691  0.2492 -1.0128
   59SAPC  C214 4496   1.264   4.252   4.572 -0.2731  0.2047 -0.7748
   59SAPC  H14R 4497   1.309   4.158   4.538  0.6676 -0.2241  1.5874
   59SAPC  C215 4498   1.157   4.307   4.512 -0.3866 -0.4255 -0.5498
   59SAPC  H15R 4499   1.117   4.249   4.427 -0.3902  1.6463 -2.0218
   59SAPC  C216 4500   1.085   4.441   4.532 -0.2696  0.6440 -0.6337
   59SAPC  H16R 4501   1.101   4.524   4.460 -0.5704  1.1330 -0.1451
   59SAPC  H16S 4502   1.129   4.489   4.622  0.6185  0.4671 -0.9711
   59SAPC  C217 4503   0.938   4.410   4.562 -0.8063 -0.6207  0.2128
   59SAPC  H17R 4504   0.892   4.349   4.481  0.1933 -0.9047 -0.1446
   59SAPC  H17S 4505   0.878   4.503   4.567 -0.8019 -0.6905  1.9043
   59SAPC  C218 4506   0.933   4.334   4.693 -0.7761 -0.7018 -0.0710
   59SAPC  H18R 4507   1.005   4.362   4.774 -0.5326 -1.4494 -0.0228
   59SAPC  H18S 4508   0.960   4.229   4.672 -0.2244 -0.7108  0.6421
   59SAPC  C219 4509   0.792   4.330   4.748  0.2432  0.3162 -0.1961
   59SAPC  H19R 4510   0.741   4.259   4.679 -0.6765  1.5987 -0.8595
   59SAPC  H19S 4511   0.749   4.429   4.721  0.7810  0.1736 -1.6375
   59SAPC  C220 4512   0.782   4.289   4.897  0.5311 -0.2491 -0.1129
   59SAPC  H20R 4513   0.869   4.224   4.922  0.8667  0.9323  1.9162
   59SAPC  H20S 4514   0.689   4.232   4.917 -0.2438  1.7082  2.1204
   59SAPC  H20T 4515   0.787   4.379   4.962 -0.6847  0.2420 -0.6781
   59SAPC   C33 4516   1.568   4.278   5.329 -0.0637  0.3584  0.2456
   59SAPC   H3X 4517   1.464   4.240   5.316  0.4313 -0.9010 -0.0797
   59SAPC   H3Y 4518   1.630   4.205   5.385  0.8286 -2.0097 -3.6060
   59SAPC   C34 4519   1.634   4.308   5.194  0.0337  0.0939 -0.0883
   59SAPC   H4X 4520   1.574   4.383   5.138 -0.0189 -0.0997 -0.2909
   59SAPC   H4Y 4521   1.640   4.216   5.133  0.4397  0.3193 -0.3913
   59SAPC   C35 4522   1.782   4.356   5.200 -0.1755 -0.3975  0.9019
   59SAPC   H5X 4523   1.833   4.288   5.271 -2.6132  0.0203  3.1434
   59SAPC   H5Y 4524   1.785   4.456   5.247  1.7845 -0.6787  1.4071
   59SAPC   C36 4525   1.851   4.356   5.065  0.7919 -0.3306  0.2700
   59SAPC   H6X 4526   1.851   4.249   5.036 -0.8141 -0.3965  0.4759
   59SAPC   H6Y 4527   1.956   4.393   5.071  0.4652  0.8351 -1.0383
   59SAPC   C37 4528   1.779   4.441   4.963 -0.5898 -0.2542  0.4481
   59SAPC   H7X 4529   1.776   4.550   4.984 -1.3609 -0.2011  0.0838
   59SAPC   H7Y 4530   1.677   4.397   4.962 -0.5314 -0.3665 -0.6699
   59SAPC   C38 4531   1.835   4.425   4.821  0.8998  0.4359 -0.3724
   59SAPC   H8X 4532   1.816   4.320   4.790  1.7096 -0.2260  1.3152
   59SAPC   H8Y 4533   1.943   4.443   4.840  0.7551  2.5174 -1.3647
   59SAPC   C39 4534   1.784   4.532   4.720  0.4335 -0.5080  0.1854
   59SAPC   H9X 4535   1.790   4.630   4.773  2.7887  0.4105 -1.6897
   59SAPC   H9Y 4536   1.681   4.510   4.683  0.8129 -2.0664  0.0386
   59SAPC  C310 4537   1.869   4.570   4.591  0.2280  0.1924 -0.5113
   59SAPC  H10X 4538   1.874   4.489   4.515  1.7626 -0.3851  0.1847
   59SAPC  H10Y 4539   1.975   4.583   4.621  0.6309 -2.9479 -0.4500
   59SAPC  C311 4540   1.800   4.688   4.526 -0.2504 -0.0685  0.4311
   59SAPC  H11X 4541   1.822   4.771   4.596  2.1044 -0.1386 -0.1732
   59SAPC  H11Y 4542   1.692   4.662   4.516  0.0542 -0.9805 -0.6112
   59SAPC  C312 4543   1.847   4.718   4.384  0.2643 -0.1828  0.0136
   59SAPC  H12X 4544   1.844   4.629   4.317  0.0655  0.6808 -1.1201
   59SAPC  H12Y 4545   1.955   4.745   4.392 -0.0824  1.1697  0.1028
   59SAPC  C313 4546   1.768   4.830   4.315 -0.4030  0.2725 -0.8403
   59SAPC  H13X 4547   1.811   4.926   4.353 -0.1191 -1.5584  3.7413
   59SAPC  H13Y 4548   1.665   4.820   4.355  0.2077  1.4799  1.1394
   59SAPC  C314 4549   1.768   4.823   4.162  0.2196 -0.8944  0.7636
   59SAPC  H14X 4550   1.744   4.719   4.133  2.7925 -1.3548  0.1991
   59SAPC  H14Y 4551   1.875   4.844   4.143 -0.2431 -0.4068 -1.4088
   59SAPC  C315 4552   1.679   4.923   4.086  0.2160  0.0345 -0.3365
   59SAPC  H15X 4553   1.571   4.897   4.095  0.1030  0.1383 -1.2842
   59SAPC  H15Y 4554   1.702   4.918   3.977 -1.3747  0.2025 -0.7016
   59SAPC  C316 4555   1.690   5.069   4.134 -0.5657  0.1388  0.6569
   59SAPC  H16X 4556   1.797   5.095   4.136  0.2316 -2.8568 -0.3026
   59SAPC  H16Y 4557   1.656   5.071   4.240 -0.9731  1.6904  0.5049
   59SAPC  C317 4558   1.604   5.165   4.053  0.6585  0.9074 -0.1306
   59SAPC  H17X 4559   1.654   5.184   3.956  0.6897  3.6343  0.3699
   59SAPC  H17Y 4560   1.617   5.265   4.100  2.1513 -0.3842  2.3153
   59SAPC  C318 4561   1.456   5.132   4.039  0.3430 -0.3102  0.1103
   59SAPC  H18X 4562   1.421   5.092   4.137 -0.4086  0.7374  0.2728
   59SAPC  H18Y 4563   1.443   5.048   3.968  3.9048 -1.2771  0.5187
   59SAPC  H18Z 4564   1.399   5.221   4.004  1.4356 -0.2191 -1.4559
   60SAPC     N 4565   1.252   4.867   6.421 -0.5033  0.1776 -0.0420
   60SAPC   C12 4566   1.121   4.795   6.381 -0.8762  0.0451 -0.4443
   60SAPC  H12A 4567   1.038   4.836   6.437  0.8395  0.2208  2.0564
   60SAPC  H12B 4568   1.129   4.692   6.410 -1.7716  0.0306 -0.2413
   60SAPC   C13 4569   1.265   5.009   6.378 -0.1328  0.6952 -0.5862
   60SAPC  H13A 4570   1.279   5.013   6.271  1.3574 -3.4891 -0.6230
   60SAPC  H13B 4571   1.182   5.071   6.408 -0.9067 -0.0937 -1.0805
   60SAPC  H13C 4572   1.348   5.058   6.428  0.0782  1.1936 -1.4041
   60SAPC   C14 4573   1.268   4.865   6.572 -0.9567  0.7321 -1.0671
   60SAPC  H14A 4574   1.273   4.762   6.604 -0.9238 -0.0786 -3.6215
   60SAPC  H14B 4575   1.358   4.919   6.599 -2.6861  2.4773  1.4711
   60SAPC  H14C 4576   1.190   4.920   6.623 -0.1613 -0.1230  1.1192
   60SAPC   C15 4577   1.369   4.789   6.363  0.2356 -0.4948  0.4773
   60SAPC  H15A 4578   1.343   4.777   6.259  0.7950  1.0551  0.1529
   60SAPC  H15B 4579   1.461   4.844   6.374 -0.8508  1.8770 -1.9135
   60SAPC  H15C 4580   1.385   4.687   6.394 -2.0466 -2.0819 -3.2638
   60SAPC   C11 4581   1.094   4.803   6.221 -0.3488  0.1526 -0.0218
   60SAPC  H11A 4582   1.124   4.905   6.190 -3.9150  0.6595 -2.1611
   60SAPC  H11B 4583   0.983   4.795   6.214 -0.0445 -1.9564 -3.5657
   60SAPC     P 4584   1.112   4.615   6.038 -0.1667  0.1343  0.1583
   60SAPC   O13 4585   1.200   4.508   5.998 -0.3210 -0.1831  0.0671
   60SAPC   O14 4586   0.983   4.561   6.088 -0.0268  0.1224 -0.4623
   60SAPC   O12 4587   1.173   4.699   6.154 -0.6689 -0.0033 -0.2794
   60SAPC   O11 4588   1.085   4.713   5.913  0.1143 -0.1761  0.1855
   60SAPC    C1 4589   1.100   4.639   5.785  1.0504 -0.9559  0.2918
   60SAPC    HA 4590   1.206   4.608   5.769  0.5699 -2.0464 -0.9160
   60SAPC    HB 4591   1.040   4.545   5.790 -2.2595  0.7644 -4.1062
   60SAPC    C2 4592   1.044   4.714   5.664  0.3676  0.3602 -0.9818
   60SAPC    HS 4593   0.933   4.721   5.671  0.2490 -0.5680 -1.6766
   60SAPC   O21 4594   1.086   4.655   5.542  0.0959 -0.2810  0.4317
   60SAPC   C21 4595   1.016   4.552   5.492 -0.3291  0.4728  0.1529
   60SAPC   O22 4596   0.931   4.486   5.552 -0.5048  0.0092 -0.0190
   60SAPC   C22 4597   1.035   4.554   5.339 -0.5867  0.1827  1.1972
   60SAPC   H2R 4598   0.984   4.642   5.296 -1.2262 -1.2774 -1.1167
   60SAPC   H2S 4599   1.145   4.560   5.326 -0.5699 -1.2833  0.5704
   60SAPC    C3 4600   1.093   4.856   5.659 -0.5798 -0.4641 -0.0234
   60SAPC    HX 4601   1.073   4.891   5.763 -1.5078  1.3928 -0.8098
   60SAPC    HY 4602   1.037   4.923   5.591 -0.7533  0.4939  1.0506
   60SAPC   O31 4603   1.238   4.853   5.636 -0.0473  0.3697 -0.2085
   60SAPC   C31 4604   1.288   4.913   5.528  0.0184  0.8363 -0.7389
   60SAPC   O32 4605   1.235   5.011   5.473  0.0549  0.1833 -0.3195
   60SAPC   C32 4606   1.413   4.846   5.483  0.5486  0.2691 -0.4156
   60SAPC   H2X 4607   1.381   4.756   5.426  0.1940 -0.1047  0.3756
   60SAPC   H2Y 4608   1.460   4.801   5.573  2.3577  1.8740 -0.5160
   60SAPC   C23 4609   0.999   4.414   5.281 -0.7928 -0.2201  0.1608
   60SAPC   H3R 4610   0.890   4.400   5.290 -0.5813 -2.5416 -0.6318
   60SAPC   H3S 4611   1.049   4.331   5.336  1.6932  1.6421  0.7903
   60SAPC   C24 4612   1.024   4.390   5.129 -0.4604 -0.6854  0.0317
   60SAPC   H4R 4613   0.951   4.451   5.071  1.2142 -0.2886 -1.7277
   60SAPC   H4S 4614   1.006   4.287   5.091 -1.0411 -0.2428 -0.9340
   60SAPC   C25 4615   1.167   4.417   5.084  0.5465  0.0929  0.2962
   60SAPC   H5R 4616   1.239   4.339   5.112 -1.0994 -1.0718  1.4058
   60SAPC   C26 4617   1.218   4.525   5.022 -0.1120 -0.9486  0.0333
   60SAPC   H6R 4618   1.328   4.531   5.018 -0.2403  3.9971  0.9016
   60SAPC   C27 4619   1.154   4.654   4.983 -0.0057  0.7576  0.4318
   60SAPC   H7R 4620   1.045   4.636   4.970  0.8358 -3.3110 -2.0618
   60SAPC   H7S 4621   1.181   4.661   4.875 -1.9273 -1.1471 -0.2290
   60SAPC   C28 4622   1.192   4.765   5.074  0.0619  0.2637 -0.3046
   60SAPC   H8R 4623   1.197   4.741   5.181 -0.3736 -1.8932 -0.7544
   60SAPC   C29 4624   1.206   4.897   5.033  0.2484 -0.0144  0.4922
   60SAPC   H9R 4625   1.244   4.974   5.102  1.1830 -0.5985  0.6556
   60SAPC  C210 4626   1.176   4.944   4.890  0.3080  0.1364  0.4996
   60SAPC  H10R 4627   1.168   4.861   4.817  1.2262 -1.4289  2.1302
   60SAPC  H10S 4628   1.264   5.002   4.857 -0.0883  0.3359 -0.2285
   60SAPC  C211 4629   1.046   5.029   4.893  0.4544  0.0955  0.6927
   60SAPC  H11R 4630   1.002   5.053   4.990  0.7892 -0.6595  1.0333
   60SAPC  C212 4631   0.967   5.061   4.788 -0.2032  0.8071  0.0652
   60SAPC  H12R 4632   0.876   5.122   4.803 -1.5872 -0.4268 -2.9310
   60SAPC  C213 4633   1.001   5.022   4.646 -0.6370  0.3556  0.0992
   60SAPC  H13R 4634   1.093   4.961   4.635 -0.6099  0.1264  1.4489
   60SAPC  H13S 4635   1.030   5.121   4.603  1.1524  0.6738  1.9516
   60SAPC  C214 4636   0.891   4.958   4.562 -0.3196 -0.5093 -0.6990
   60SAPC  H14R 4637   0.875   4.850   4.581  1.7890 -0.7665 -0.2554
   60SAPC  C215 4638   0.844   5.015   4.442  0.8183 -0.2010 -0.0932
   60SAPC  H15R 4639   0.767   4.948   4.401 -0.9901  0.3521  2.2662
   60SAPC  C216 4640   0.875   5.145   4.364  0.8402  0.0236 -0.6348
   60SAPC  H16R 4641   0.925   5.127   4.267 -1.1286  1.0866 -1.8761
   60SAPC  H16S 4642   0.947   5.200   4.428  2.3743 -1.4757 -1.0290
   60SAPC  C217 4643   0.747   5.226   4.321 -0.0070  0.5004 -0.1878
   60SAPC  H17R 4644   0.684   5.238   4.412  0.6215 -1.4398  0.5102
   60SAPC  H17S 4645   0.696   5.171   4.239  0.7368 -0.9683  0.3208
   60SAPC  C218 4646   0.784   5.368   4.288  0.3283 -0.1935  0.3011
   60SAPC  H18R 4647   0.872   5.366   4.221  0.6278  0.6819  0.6520
   60SAPC  H18S 4648   0.818   5.419   4.380 -2.0785  2.3642 -0.1433
   60SAPC  C219 4649   0.691   5.465   4.220 -0.2701  0.2783 -0.3650
   60SAPC  H19R 4650   0.618   5.492   4.299 -0.0951  1.0160 -0.4578
   60SAPC  H19S 4651   0.644   5.409   4.135 -0.0453  0.2809 -0.4898
   60SAPC  C220 4652   0.764   5.588   4.160 -0.1275 -0.6455  0.0734
   60SAPC  H20R 4653   0.833   5.616   4.243 -0.0933  0.3623 -0.2918
   60SAPC  H20S 4654   0.708   5.682   4.141  0.3983 -0.0114  1.5214
   60SAPC  H20T 4655   0.824   5.567   4.069  0.9447  2.1447  0.0938
   60SAPC   C33 4656   1.505   4.929   5.399  0.0349 -0.3692 -0.5129
   60SAPC   H3X 4657   1.543   5.014   5.460 -1.3184  1.0312 -1.5493
   60SAPC   H3Y 4658   1.448   4.990   5.326  0.8455 -0.4759 -1.2414
   60SAPC   C34 4659   1.621   4.853   5.344 -0.0586  0.5856  0.4469
   60SAPC   H4X 4660   1.651   4.784   5.426  0.8723 -2.0955 -2.0796
   60SAPC   H4Y 4661   1.706   4.924   5.332 -0.8845  1.0110 -3.3758
   60SAPC   C35 4662   1.580   4.784   5.217  0.4193  0.5807 -0.6612
   60SAPC   H5X 4663   1.481   4.733   5.221  1.7184 -1.8739  2.8807
   60SAPC   H5Y 4664   1.659   4.708   5.198 -0.1987 -0.4589  0.7927
   60SAPC   C36 4665   1.582   4.858   5.083  0.6125  0.0467  0.7245
   60SAPC   H6X 4666   1.687   4.888   5.062 -0.2639  1.5152 -1.7257
   60SAPC   H6Y 4667   1.508   4.940   5.088  1.4883  0.9662 -0.8794
   60SAPC   C37 4668   1.545   4.766   4.962 -0.4713  0.5334 -0.4328
   60SAPC   H7X 4669   1.446   4.719   4.976 -0.1359 -0.4412 -1.2842
   60SAPC   H7Y 4670   1.617   4.681   4.955 -0.3340  0.4078  2.0697
   60SAPC   C38 4671   1.544   4.838   4.824 -0.3096 -0.3935  0.5800
   60SAPC   H8X 4672   1.649   4.850   4.791 -0.9383 -0.1267 -1.4022
   60SAPC   H8Y 4673   1.496   4.939   4.829 -1.1757 -0.7995  0.5896
   60SAPC   C39 4674   1.470   4.750   4.712  0.9112  0.4231 -0.4155
   60SAPC   H9X 4675   1.378   4.702   4.752  1.3741  1.0121  1.4481
   60SAPC   H9Y 4676   1.529   4.662   4.681 -0.6419 -0.4091 -1.0395
   60SAPC  C310 4677   1.427   4.834   4.597 -0.3433  1.1096  0.4228
   60SAPC  H10X 4678   1.505   4.896   4.549 -1.9311  2.6212 -0.2622
   60SAPC  H10Y 4679   1.340   4.896   4.627 -1.2002  0.1283 -0.0122
   60SAPC  C311 4680   1.352   4.758   4.487  0.0754 -0.5597  0.4677
   60SAPC  H11X 4681   1.263   4.703   4.523 -2.4905  0.8522 -3.3689
   60SAPC  H11Y 4682   1.414   4.682   4.434  0.4013  0.0137  0.0209
   60SAPC  C312 4683   1.296   4.844   4.374 -0.5526  0.1491  0.1397
   60SAPC  H12X 4684   1.379   4.895   4.321  0.8697 -0.2045  1.9488
   60SAPC  H12Y 4685   1.220   4.914   4.416  1.1166  1.1249  1.6148
   60SAPC  C313 4686   1.212   4.768   4.265  0.0422 -0.1830  0.2452
   60SAPC  H13X 4687   1.163   4.833   4.189  0.9287  0.9308  0.6171
   60SAPC  H13Y 4688   1.132   4.723   4.327  0.4152 -1.9558 -0.5173
   60SAPC  C314 4689   1.279   4.663   4.184  0.2493 -0.3346 -0.5474
   60SAPC  H14X 4690   1.323   4.588   4.253  0.7851 -0.7507 -1.3240
   60SAPC  H14Y 4691   1.363   4.710   4.127  1.9083 -2.7046 -0.1320
   60SAPC  C315 4692   1.192   4.589   4.075  0.2174  0.6663 -0.4478
   60SAPC  H15X 4693   1.266   4.531   4.017 -2.0207 -1.6425 -1.1017
   60SAPC  H15Y 4694   1.148   4.669   4.012 -0.4507  0.5344 -0.1528
   60SAPC  C316 4695   1.083   4.503   4.136  0.5474 -0.6735 -0.4090
   60SAPC  H16X 4696   0.995   4.507   4.068 -0.3432 -2.3967  0.5927
   60SAPC  H16Y 4697   1.050   4.542   4.235  1.9638  0.9379 -0.5587
   60SAPC  C317 4698   1.131   4.360   4.140  0.0377  0.4756 -0.6421
   60SAPC  H17X 4699   1.204   4.348   4.222  0.2534 -1.6078 -1.1066
   60SAPC  H17Y 4700   1.184   4.343   4.043  0.5577  0.7232 -0.4011
   60SAPC  C318 4701   1.012   4.268   4.159 -0.1823 -0.0462 -0.1576
   60SAPC  H18X 4702   1.027   4.160   4.138  0.0926 -0.1582  0.5877
   60SAPC  H18Y 4703   0.936   4.305   4.087 -0.4992  0.9121  0.6646
   60SAPC  H18Z 4704   0.969   4.276   4.262 -0.5858 -0.7621 -0.2650
   61SAPC     N 4705   6.439   4.767   6.220  0.2101  0.7912  0.7409
   61SAPC   C12 4706   6.557   4.830   6.290  0.3180  0.6647  0.0934
   61SAPC  H12A 4707   6.652   4.815   6.239  0.6449  2.4275  0.1727
   61SAPC  H12B 4708   6.580   4.774   6.380  1.3463  0.5047 -0.2614
   61SAPC   C13 4709   6.446   4.620   6.214 -0.0426 -0.6540  0.7457
   61SAPC  H13A 4710   6.363   4.585   6.154 -0.5359  2.2893 -0.3732
   61SAPC  H13B 4711   6.532   4.577   6.167 -0.7380 -1.5571  0.2931
   61SAPC  H13C 4712   6.441   4.577   6.313 -0.1909  1.0299  1.5057
   61SAPC   C14 4713   6.311   4.821   6.264 -0.5140  0.1496  0.3765
   61SAPC  H14A 4714   6.227   4.771   6.219 -1.9581  2.2804  0.6334
   61SAPC  H14B 4715   6.292   4.813   6.370  0.4018 -2.5402  0.3679
   61SAPC  H14C 4716   6.303   4.927   6.244  0.2527 -0.0049 -0.8399
   61SAPC   C15 4717   6.452   4.802   6.074 -0.2414  0.3108 -0.3422
   61SAPC  H15A 4718   6.437   4.909   6.067  0.2743  0.4934  1.3506
   61SAPC  H15B 4719   6.554   4.797   6.038 -0.2221 -0.0167 -0.2428
   61SAPC  H15C 4720   6.376   4.752   6.015 -2.2583  2.8424  0.0370
   61SAPC   C11 4721   6.549   4.984   6.317 -0.1303 -0.3505  0.2166
   61SAPC  H11A 4722   6.547   5.031   6.217 -3.2297 -2.6146 -0.8595
   61SAPC  H11B 4723   6.638   5.017   6.375 -1.2791 -0.4553  2.0854
   61SAPC     P 4724   6.383   5.172   6.368  0.2794 -0.0025  0.5227
   61SAPC   O13 4725   6.311   5.176   6.237  0.0454  0.4934  0.0444
   61SAPC   O14 4726   6.304   5.220   6.486 -0.3949 -0.0136  0.4846
   61SAPC   O12 4727   6.436   5.026   6.392 -0.2329  0.2241 -0.2023
   61SAPC   O11 4728   6.514   5.269   6.364 -0.6741 -0.7553 -0.1977
   61SAPC    C1 4729   6.555   5.323   6.234  0.1912 -0.3814 -0.4151
   61SAPC    HA 4730   6.544   5.247   6.153 -1.9625 -0.3596 -0.1723
   61SAPC    HB 4731   6.494   5.411   6.205  2.4059  0.1286 -3.8018
   61SAPC    C2 4732   6.701   5.374   6.248  0.6745  0.4970  0.2323
   61SAPC    HS 4733   6.705   5.451   6.329 -0.6333 -0.2784  1.0526
   61SAPC   O21 4734   6.752   5.415   6.117  0.3924 -0.4904 -0.5393
   61SAPC   C21 4735   6.857   5.500   6.123  0.3745 -0.4505  0.2844
   61SAPC   O22 4736   6.923   5.546   6.215 -0.1551 -0.0197 -0.1929
   61SAPC   C22 4737   6.899   5.522   5.971  0.1441 -0.4502  0.0673
   61SAPC   H2R 4738   6.828   5.590   5.921  2.2905  2.3599  0.7081
   61SAPC   H2S 4739   6.991   5.584   5.979  0.3011 -0.7365  0.5188
   61SAPC    C3 4740   6.792   5.270   6.306  0.9316  0.2430 -0.0281
   61SAPC    HX 4741   6.747   5.227   6.398 -0.0158 -1.2403 -1.1617
   61SAPC    HY 4742   6.889   5.316   6.337  0.3525  0.4711  1.4904
   61SAPC   O31 4743   6.802   5.157   6.219 -0.5234 -0.0134  0.4935
   61SAPC   C31 4744   6.912   5.123   6.156 -0.2758  0.0342 -0.4418
   61SAPC   O32 4745   7.022   5.172   6.169 -0.0626 -0.2425 -0.6746
   61SAPC   C32 4746   6.886   4.997   6.065 -0.2556  0.7288 -0.5778
   61SAPC   H2X 4747   6.896   4.911   6.135 -1.4139  1.6892  0.7816
   61SAPC   H2Y 4748   6.979   4.997   6.003  0.4430  1.4954  0.4433
   61SAPC   C23 4749   6.917   5.389   5.888 -0.6758 -0.9226  0.3930
   61SAPC   H3R 4750   6.819   5.339   5.875 -1.7186  1.5048 -1.6970
   61SAPC   H3S 4751   6.992   5.327   5.941  0.7045  1.0517  0.8109
   61SAPC   C24 4752   6.977   5.422   5.751 -0.3349  0.5787 -0.6421
   61SAPC   H4R 4753   7.002   5.322   5.710 -3.0801 -1.0151  1.4230
   61SAPC   H4S 4754   7.070   5.483   5.756  1.2483 -1.8074 -0.3689
   61SAPC   C25 4755   6.883   5.497   5.657  0.0728  0.0470 -0.3205
   61SAPC   H5R 4756   6.841   5.592   5.692 -1.3091 -0.9008  0.6843
   61SAPC   C26 4757   6.847   5.460   5.536 -0.1941  0.0949 -0.8465
   61SAPC   H6R 4758   6.781   5.530   5.483  0.0278 -0.7271 -2.2348
   61SAPC   C27 4759   6.892   5.336   5.459  0.4587 -0.1590  0.1664
   61SAPC   H7R 4760   6.978   5.289   5.512  2.0112  2.8777  0.4419
   61SAPC   H7S 4761   6.944   5.368   5.366  1.4859 -2.0705  0.0587
   61SAPC   C28 4762   6.781   5.246   5.416  0.6823  0.2534  0.1825
   61SAPC   H8R 4763   6.682   5.293   5.425 -0.1369 -1.3669 -0.0783
   61SAPC   C29 4764   6.784   5.112   5.402 -0.1161  0.6379  0.5535
   61SAPC   H9R 4765   6.698   5.052   5.367  0.3503 -0.1926  0.8167
   61SAPC  C210 4766   6.914   5.026   5.437  0.7431  0.0527  0.0927
   61SAPC  H10R 4767   6.868   4.928   5.462  1.1329 -0.2085 -0.2181
   61SAPC  H10S 4768   6.960   5.073   5.528  2.1742  0.2030 -0.6882
   61SAPC  C211 4769   7.007   5.023   5.321 -0.6557  0.5322 -0.1285
   61SAPC  H11R 4770   7.027   5.118   5.271 -1.0861  0.5111 -0.3416
   61SAPC  C212 4771   7.075   4.910   5.286 -0.2344  0.4428  0.5983
   61SAPC  H12R 4772   7.148   4.915   5.204 -0.8983 -0.1924 -0.0323
   61SAPC  C213 4773   7.056   4.773   5.351  0.1796  0.0117 -0.5082
   61SAPC  H13R 4774   7.021   4.787   5.455  1.5100 -0.0151 -0.0512
   61SAPC  H13S 4775   7.154   4.723   5.368  0.6606  1.4985  1.1454
   61SAPC  C214 4776   6.978   4.668   5.271 -0.7477 -0.7215  0.1239
   61SAPC  H14R 4777   6.869   4.663   5.270 -0.9046  1.7209  0.2732
   61SAPC  C215 4778   7.032   4.599   5.169  0.2645  0.0193  0.9013
   61SAPC  H15R 4779   6.969   4.518   5.130  2.3511 -1.9607  1.5402
   61SAPC  C216 4780   7.171   4.612   5.116  0.2224 -0.1946  0.6738
   61SAPC  H16R 4781   7.218   4.512   5.111  0.6687  0.0412 -0.0205
   61SAPC  H16S 4782   7.231   4.682   5.177 -0.1101  1.1686 -0.5288
   61SAPC  C217 4783   7.175   4.675   4.978 -0.0914 -0.3837 -1.3821
   61SAPC  H17R 4784   7.102   4.759   4.978  1.6558  1.1803 -0.2700
   61SAPC  H17S 4785   7.144   4.601   4.901 -3.9499  0.0205 -0.3247
   61SAPC  C218 4786   7.316   4.713   4.944 -0.8352 -0.2679  0.4533
   61SAPC  H18R 4787   7.392   4.635   4.967  2.0376  2.3017  0.0559
   61SAPC  H18S 4788   7.333   4.802   5.008 -0.9257  0.0482  0.0452
   61SAPC  C219 4789   7.324   4.759   4.799  0.0632 -0.7549  0.3538
   61SAPC  H19R 4790   7.253   4.840   4.772  1.8782  0.8580  0.3568
   61SAPC  H19S 4791   7.285   4.676   4.735  0.8741 -0.3675 -0.6524
   61SAPC  C220 4792   7.464   4.796   4.750  0.4645 -0.1661  0.6261
   61SAPC  H20R 4793   7.504   4.882   4.808  0.5614 -0.6935  1.3534
   61SAPC  H20S 4794   7.451   4.821   4.643 -1.5018  0.2803  0.9510
   61SAPC  H20T 4795   7.527   4.705   4.762  0.2715 -0.3495  0.2548
   61SAPC   C33 4796   6.757   4.993   5.970  0.0697 -0.1922  0.4224
   61SAPC   H3X 4797   6.756   5.092   5.920  3.6435  0.6305  1.7505
   61SAPC   H3Y 4798   6.661   4.983   6.026 -1.2460  2.0883 -1.3815
   61SAPC   C34 4799   6.769   4.888   5.855  0.2065 -1.0381 -0.5443
   61SAPC   H4X 4800   6.792   4.794   5.909  0.1839 -0.5667  0.2969
   61SAPC   H4Y 4801   6.862   4.904   5.796 -1.5800  1.7996 -2.6937
   61SAPC   C35 4802   6.647   4.873   5.769 -0.3563 -0.3020  0.0474
   61SAPC   H5X 4803   6.663   4.943   5.684 -0.3575 -0.5059 -0.1209
   61SAPC   H5Y 4804   6.556   4.900   5.826  1.0143  1.4262  1.4595
   61SAPC   C36 4805   6.626   4.725   5.713  0.7299  0.0677  0.0096
   61SAPC   H6X 4806   6.590   4.664   5.798 -0.5028 -1.0790 -1.3334
   61SAPC   H6Y 4807   6.724   4.692   5.671  1.0335 -0.3673  1.0298
   61SAPC   C37 4808   6.517   4.720   5.607  0.1838 -0.2551 -0.1754
   61SAPC   H7X 4809   6.440   4.798   5.623 -0.6162 -1.0732  0.0021
   61SAPC   H7Y 4810   6.468   4.621   5.613 -0.8592  0.2669 -0.0117
   61SAPC   C38 4811   6.574   4.729   5.460 -0.0621 -0.7596 -0.1465
   61SAPC   H8X 4812   6.656   4.659   5.434  0.1612 -0.1835 -1.0459
   61SAPC   H8Y 4813   6.627   4.827   5.467 -0.7886 -0.5201  2.3588
   61SAPC   C39 4814   6.464   4.726   5.344 -0.0477 -0.1651  0.2672
   61SAPC   H9X 4815   6.381   4.791   5.381  0.8206  0.3713  1.2888
   61SAPC   H9Y 4816   6.423   4.624   5.330 -1.0855  0.0468  1.6185
   61SAPC  C310 4817   6.527   4.769   5.215 -0.2792  0.0110  0.2347
   61SAPC  H10X 4818   6.590   4.857   5.240  0.5199 -0.9404  1.6857
   61SAPC  H10Y 4819   6.452   4.796   5.138 -0.3851 -0.3811  0.1986
   61SAPC  C311 4820   6.603   4.651   5.155 -0.1413  0.0591  0.2037
   61SAPC  H11X 4821   6.514   4.587   5.136 -1.3080  1.6444  0.2895
   61SAPC  H11Y 4822   6.665   4.608   5.237  2.0457  1.0044 -0.9093
   61SAPC  C312 4823   6.673   4.678   5.020  0.3731 -0.0721 -0.0688
   61SAPC  H12X 4824   6.760   4.745   5.035 -0.5712  1.1310  0.1269
   61SAPC  H12Y 4825   6.606   4.728   4.946 -0.3544 -1.2251 -0.2023
   61SAPC  C313 4826   6.709   4.545   4.951  0.4283 -0.2099 -0.5740
   61SAPC  H13X 4827   6.618   4.487   4.925 -0.1573 -0.5084  1.9561
   61SAPC  H13Y 4828   6.759   4.482   5.028 -1.0561 -0.2384  0.4022
   61SAPC  C314 4829   6.792   4.582   4.821  0.2781  0.6331  0.0197
   61SAPC  H14X 4830   6.830   4.492   4.769 -1.3774 -0.1883  0.2112
   61SAPC  H14Y 4831   6.883   4.635   4.857 -0.9472  1.3830  2.1107
   61SAPC  C315 4832   6.719   4.678   4.724  1.3734 -0.2739 -0.7569
   61SAPC  H15X 4833   6.802   4.729   4.671  0.6439  1.7585 -0.0159
   61SAPC  H15Y 4834   6.678   4.765   4.780 -0.7268 -1.2960 -0.6568
   61SAPC  C316 4835   6.630   4.603   4.626  0.3525  0.6172 -0.3725
   61SAPC  H16X 4836   6.584   4.519   4.684  0.1562  1.2526  0.4013
   61SAPC  H16Y 4837   6.689   4.560   4.542 -0.0278 -2.1865  0.7302
   61SAPC  C317 4838   6.503   4.679   4.584 -0.6017  0.1511 -0.6449
   61SAPC  H17X 4839   6.431   4.682   4.669 -1.2974  0.1836 -1.2337
   61SAPC  H17Y 4840   6.450   4.629   4.501 -1.8837 -0.7203  0.6738
   61SAPC  C318 4841   6.525   4.821   4.530 -0.1834 -0.4973  0.1995
   61SAPC  H18X 4842   6.491   4.892   4.608  0.8201 -1.6685  1.7333
   61SAPC  H18Y 4843   6.462   4.841   4.441  0.9431 -2.8890 -1.1887
   61SAPC  H18Z 4844   6.632   4.842   4.508 -0.0827 -2.5066 -1.4540
   62SAPC     N 4845   0.085   2.637   6.617  0.3596 -0.0647  0.1882
   62SAPC   C12 4846   0.085   2.636   6.461 -0.1869  0.0378 -0.2892
   62SAPC  H12A 4847  -0.010   2.596   6.429  0.3113 -1.0509 -0.3962
   62SAPC  H12B 4848   0.154   2.563   6.423 -1.0026 -1.3532  0.8612
   62SAPC   C13 4849   0.072   2.500   6.661 -0.0695  0.5894 -0.0235
   62SAPC  H13A 4850   0.156   2.445   6.622 -0.7902 -0.2861 -0.3504
   62SAPC  H13B 4851   0.082   2.501   6.769 -3.3011 -0.4148  0.3340
   62SAPC  H13C 4852  -0.017   2.445   6.637  0.6266 -0.6296  0.1789
   62SAPC   C14 4853   0.212   2.704   6.661 -0.3625 -0.0636 -0.2794
   62SAPC  H14A 4854   0.219   2.795   6.604 -0.5149 -0.5896 -1.1471
   62SAPC  H14B 4855   0.204   2.728   6.766 -0.2791  0.8646 -0.4804
   62SAPC  H14C 4856   0.298   2.650   6.625  0.8821  1.1899  0.7317
   62SAPC   C15 4857  -0.037   2.719   6.664 -0.3632 -0.3035 -0.3961
   62SAPC  H15A 4858  -0.020   2.823   6.642  0.5318 -0.5324 -0.8142
   62SAPC  H15B 4859  -0.122   2.692   6.605 -1.5648  0.1141  1.1076
   62SAPC  H15C 4860  -0.063   2.699   6.767 -1.2245 -2.1521 -0.9490
   62SAPC   C11 4861   0.109   2.769   6.385 -0.3257  0.0685  0.3843
   62SAPC  H11A 4862   0.048   2.849   6.431 -0.7255  0.9572 -1.6426
   62SAPC  H11B 4863   0.065   2.776   6.283  1.0142  1.0562 -0.1453
   62SAPC     P 4864   0.344   2.692   6.286 -0.1812 -0.0225 -0.0181
   62SAPC   O13 4865   0.488   2.717   6.300 -0.0669  1.1903  0.0096
   62SAPC   O14 4866   0.300   2.553   6.292 -0.1382  0.2083 -0.5645
   62SAPC   O12 4867   0.258   2.789   6.382 -0.4298 -0.3927  0.6322
   62SAPC   O11 4868   0.304   2.738   6.146  0.0241 -0.6043 -0.4657
   62SAPC    C1 4869   0.265   2.868   6.109  0.3789 -0.3071 -0.3948
   62SAPC    HA 4870   0.159   2.890   6.131  0.0943 -0.2051 -1.7849
   62SAPC    HB 4871   0.322   2.947   6.162  0.1850 -0.0389 -0.5831
   62SAPC    C2 4872   0.270   2.893   5.955 -0.3239 -0.4528 -0.0728
   62SAPC    HS 4873   0.253   3.000   5.930  1.0924 -0.1677  0.1505
   62SAPC   O21 4874   0.181   2.807   5.889  0.0442 -0.3972 -0.5471
   62SAPC   C21 4875   0.059   2.840   5.890  0.1779  0.1378  0.9143
   62SAPC   O22 4876   0.005   2.942   5.926  0.8430 -0.2219 -0.7299
   62SAPC   C22 4877  -0.015   2.718   5.838  0.7898  0.0108  0.3368
   62SAPC   H2R 4878   0.041   2.624   5.822 -0.1437 -0.4069 -0.5444
   62SAPC   H2S 4879  -0.087   2.689   5.917 -1.1037 -0.2932 -1.4689
   62SAPC    C3 4880   0.415   2.872   5.901 -0.3093  0.2302  0.2819
   62SAPC    HX 4881   0.449   2.774   5.942  0.7351  0.8152  0.8532
   62SAPC    HY 4882   0.490   2.947   5.934  0.4487  0.4331 -1.8345
   62SAPC   O31 4883   0.423   2.858   5.756 -0.4283  0.9175  0.5867
   62SAPC   C31 4884   0.409   2.976   5.681 -0.0627  0.5509  0.6884
   62SAPC   O32 4885   0.364   3.079   5.727 -0.7786  0.6527  0.0718
   62SAPC   C32 4886   0.428   2.963   5.525 -0.1960 -0.7141 -0.3984
   62SAPC   H2X 4887   0.511   3.037   5.518 -0.3035 -0.7649 -2.6188
   62SAPC   H2Y 4888   0.335   2.999   5.476 -0.4174 -0.7735 -0.0233
   62SAPC   C23 4889  -0.098   2.752   5.705  0.4064  0.3529 -0.9478
   62SAPC   H3R 4890  -0.169   2.833   5.734 -0.5133 -1.0051  0.7090
   62SAPC   H3S 4891  -0.154   2.659   5.681  0.3075  1.0266 -3.3679
   62SAPC   C24 4892  -0.007   2.786   5.577 -0.1332  0.5220  0.0966
   62SAPC   H4R 4893   0.037   2.886   5.594 -0.0023  0.6165 -0.7684
   62SAPC   H4S 4894  -0.080   2.800   5.494 -1.3657  0.4778  1.1456
   62SAPC   C25 4895   0.101   2.685   5.548 -0.0319 -0.3268  0.0247
   62SAPC   H5R 4896   0.176   2.670   5.628  0.3109 -2.0809 -0.6053
   62SAPC   C26 4897   0.122   2.628   5.432 -0.2673  0.1944  0.2563
   62SAPC   H6R 4898   0.207   2.558   5.424  0.5569  0.6035  4.2569
   62SAPC   C27 4899   0.050   2.655   5.307  0.3495 -0.1471 -0.2083
   62SAPC   H7R 4900  -0.041   2.718   5.311  0.1284 -0.4165 -0.8703
   62SAPC   H7S 4901   0.014   2.563   5.256 -1.6138  0.1062  0.7005
   62SAPC   C28 4902   0.132   2.747   5.209 -0.2169 -0.0708  0.3534
   62SAPC   H8R 4903   0.161   2.843   5.253  0.6269  1.3599 -3.2043
   62SAPC   C29 4904   0.154   2.714   5.074  0.6553 -0.1484 -0.4094
   62SAPC   H9R 4905   0.232   2.771   5.022 -1.2462  0.7135 -2.3744
   62SAPC  C210 4906   0.098   2.593   5.006 -0.0770 -0.3651  0.1380
   62SAPC  H10R 4907   0.151   2.504   5.046 -0.9740 -1.0133 -0.0976
   62SAPC  H10S 4908   0.144   2.591   4.905 -0.1750 -1.0020  0.1089
   62SAPC  C211 4909  -0.050   2.561   4.996  0.2156  0.0408  0.6523
   62SAPC  H11R 4910  -0.100   2.542   5.092  0.3575  0.7871  0.8759
   62SAPC  C212 4911  -0.124   2.555   4.879  0.7673  0.2671 -0.2431
   62SAPC  H12R 4912  -0.232   2.536   4.886  0.5462  1.8463  0.9141
   62SAPC  C213 4913  -0.073   2.590   4.745 -0.0502 -0.0749  1.1280
   62SAPC  H13R 4914  -0.023   2.689   4.733 -1.3886  0.3661 -1.0604
   62SAPC  H13S 4915  -0.171   2.604   4.695  0.7280  1.1376 -0.0702
   62SAPC  C214 4916  -0.002   2.483   4.659  0.5445 -0.5645  0.2183
   62SAPC  H14R 4917  -0.042   2.383   4.678 -0.9785 -0.3099 -1.5098
   62SAPC  C215 4918   0.063   2.508   4.547  0.2700 -0.9816 -0.3775
   62SAPC  H15R 4919   0.111   2.421   4.499 -2.0812 -2.8421  0.5756
   62SAPC  C216 4920   0.092   2.639   4.478  0.0864 -0.6818 -0.4172
   62SAPC  H16R 4921   0.201   2.642   4.458  0.4472 -1.1203  1.3622
   62SAPC  H16S 4922   0.074   2.729   4.542  1.0387 -1.2148  0.6132
   62SAPC  C217 4923   0.021   2.659   4.342 -0.6846 -0.3029 -0.3590
   62SAPC  H17R 4924   0.010   2.562   4.290 -5.4450  0.6573 -1.4528
   62SAPC  H17S 4925   0.075   2.734   4.280  0.5322 -1.2441 -0.4433
   62SAPC  C218 4926  -0.131   2.684   4.365  0.4888  0.0529  0.5636
   62SAPC  H18R 4927  -0.144   2.787   4.405 -0.4659  0.7357 -1.4356
   62SAPC  H18S 4928  -0.180   2.618   4.440 -0.7344 -0.3944 -0.6175
   62SAPC  C219 4929  -0.210   2.667   4.237 -0.5082 -0.3790 -0.0548
   62SAPC  H19R 4930  -0.319   2.673   4.258 -1.0787 -0.6371 -2.7383
   62SAPC  H19S 4931  -0.190   2.563   4.204  2.0608  0.7404 -2.1667
   62SAPC  C220 4932  -0.187   2.752   4.112  1.2394 -0.2932 -0.2582
   62SAPC  H20R 4933  -0.256   2.714   4.034 -0.6913  0.5220  1.0197
   62SAPC  H20S 4934  -0.080   2.737   4.087  1.3520  2.0674 -1.3713
   62SAPC  H20T 4935  -0.213   2.857   4.139 -0.5027 -1.5719  3.3328
   62SAPC   C33 4936   0.458   2.821   5.472 -0.0328  0.4980  0.3319
   62SAPC   H3X 4937   0.388   2.740   5.501 -0.9039  2.1292  2.9858
   62SAPC   H3Y 4938   0.554   2.779   5.511 -0.9074 -0.5965  1.3382
   62SAPC   C34 4939   0.478   2.836   5.320 -0.9215 -0.2835  0.0563
   62SAPC   H4X 4940   0.561   2.905   5.296 -0.0958 -1.8433 -1.7230
   62SAPC   H4Y 4941   0.388   2.884   5.275 -0.8519  0.3424  0.5627
   62SAPC   C35 4942   0.501   2.705   5.249  0.2263 -1.0828 -0.1222
   62SAPC   H5X 4943   0.410   2.641   5.244  0.6369 -1.6756 -0.0798
   62SAPC   H5Y 4944   0.578   2.649   5.305  0.5517 -0.3053  0.2128
   62SAPC   C36 4945   0.553   2.727   5.105 -0.0739  0.2034  0.3650
   62SAPC   H6X 4946   0.653   2.775   5.104  0.4541 -0.8473  1.7902
   62SAPC   H6Y 4947   0.487   2.801   5.056 -0.1779 -0.7404 -0.9303
   62SAPC   C37 4948   0.559   2.588   5.044  0.2794  0.4710  0.4135
   62SAPC   H7X 4949   0.453   2.561   5.023 -0.0943  1.6435  0.7840
   62SAPC   H7Y 4950   0.597   2.518   5.121 -1.3497 -3.3003 -2.0196
   62SAPC   C38 4951   0.643   2.575   4.917 -0.6659  0.3843  0.3872
   62SAPC   H8X 4952   0.747   2.562   4.952 -0.4648 -0.4522 -0.4903
   62SAPC   H8Y 4953   0.643   2.665   4.852 -0.1280 -0.7131 -1.1684
   62SAPC   C39 4954   0.608   2.460   4.829 -0.0886 -0.3531 -0.1389
   62SAPC   H9X 4955   0.570   2.377   4.893  0.6740 -1.1432 -0.6877
   62SAPC   H9Y 4956   0.700   2.430   4.774 -0.5915 -0.1805 -1.0849
   62SAPC  C310 4957   0.498   2.496   4.725  0.3599 -0.3858  0.4016
   62SAPC  H10X 4958   0.550   2.574   4.665 -0.0980 -0.5368 -0.1981
   62SAPC  H10Y 4959   0.408   2.537   4.775  0.4091 -0.5459  0.6195
   62SAPC  C311 4960   0.463   2.382   4.626  0.6718  0.1007  0.2381
   62SAPC  H11X 4961   0.554   2.354   4.570  0.1479 -0.5485 -0.2899
   62SAPC  H11Y 4962   0.392   2.418   4.549  1.0862 -0.6558 -0.5009
   62SAPC  C312 4963   0.413   2.259   4.704 -0.3709 -0.1108 -0.1249
   62SAPC  H12X 4964   0.338   2.292   4.779 -0.4911 -1.9964  0.6158
   62SAPC  H12Y 4965   0.502   2.219   4.758 -1.3527 -0.9999  0.8712
   62SAPC  C313 4966   0.364   2.154   4.613  0.5230 -0.2949 -0.1984
   62SAPC  H13X 4967   0.318   2.214   4.531  0.4224 -1.6117 -1.1322
   62SAPC  H13Y 4968   0.287   2.093   4.665  0.6950  0.7191  1.2631
   62SAPC  C314 4969   0.469   2.071   4.546 -0.6771 -0.5637  0.0020
   62SAPC  H14X 4970   0.521   1.997   4.611  0.6134 -0.5646 -1.0076
   62SAPC  H14Y 4971   0.545   2.142   4.507 -0.2134 -0.5814  0.8554
   62SAPC  C315 4972   0.412   1.997   4.424  0.4977 -0.4080 -0.4608
   62SAPC  H15X 4973   0.356   2.071   4.363 -0.9807 -0.7789  0.4286
   62SAPC  H15Y 4974   0.338   1.921   4.455  0.0537 -0.4484 -1.5878
   62SAPC  C316 4975   0.520   1.945   4.336  0.1456  1.3035 -0.1435
   62SAPC  H16X 4976   0.579   2.032   4.300  1.7303 -0.6188 -2.3782
   62SAPC  H16Y 4977   0.479   1.885   4.252 -2.5737  1.6101  0.9034
   62SAPC  C317 4978   0.631   1.850   4.402 -0.0587 -0.0009 -0.0190
   62SAPC  H17X 4979   0.558   1.772   4.435 -1.7111  1.4786 -0.1188
   62SAPC  H17Y 4980   0.677   1.905   4.486  2.5158 -2.6566  0.4114
   62SAPC  C318 4981   0.738   1.800   4.305 -0.2206  0.7861 -0.4795
   62SAPC  H18X 4982   0.766   1.891   4.249  0.1788  0.4794 -0.7801
   62SAPC  H18Y 4983   0.709   1.733   4.222 -0.1708  0.6317 -0.3728
   62SAPC  H18Z 4984   0.831   1.767   4.356 -1.5614 -1.2787  0.7083
   63SAPC     N 4985   1.935   6.720   6.567 -0.4000  0.0370  0.1591
   63SAPC   C12 4986   1.930   6.702   6.417  0.6894  0.3057 -0.1236
   63SAPC  H12A 4987   1.842   6.752   6.379 -1.1585 -2.7344 -0.0550
   63SAPC  H12B 4988   1.904   6.599   6.394  0.5060  0.6212 -1.3899
   63SAPC   C13 4989   2.035   6.629   6.626 -0.1954  0.3504  0.0903
   63SAPC  H13A 4990   2.138   6.653   6.608  0.5367 -0.5970  2.7689
   63SAPC  H13B 4991   2.037   6.635   6.734 -1.4474  3.2554 -0.0219
   63SAPC  H13C 4992   2.010   6.529   6.594  0.1055  0.0170  0.8710
   63SAPC   C14 4993   1.971   6.869   6.594  0.6096 -1.1390 -0.0435
   63SAPC  H14A 4994   1.979   6.887   6.700 -1.5415 -1.0306  0.1145
   63SAPC  H14B 4995   2.067   6.884   6.546  1.8629 -1.8026  2.1724
   63SAPC  H14C 4996   1.901   6.935   6.546  0.2262 -3.2832 -2.5888
   63SAPC   C15 4997   1.798   6.690   6.633  0.3010 -0.0717  0.0778
   63SAPC  H15A 4998   1.777   6.587   6.610  0.9927  0.1498 -1.6117
   63SAPC  H15B 4999   1.799   6.698   6.740  0.5730  0.8718  0.0076
   63SAPC  H15C 5000   1.717   6.746   6.588 -0.8955 -1.8687 -0.0792
   63SAPC   C11 5001   2.051   6.730   6.328 -0.3367  0.4795  0.0779
   63SAPC  H11A 5002   2.029   6.706   6.222 -0.7301  0.4127  0.1752
   63SAPC  H11B 5003   2.133   6.664   6.364 -0.8865 -1.0012 -1.3334
   63SAPC     P 5004   1.976   6.957   6.244  0.1016  0.1570 -0.1247
   63SAPC   O13 5005   1.856   6.874   6.217 -0.3254 -0.2098 -0.2162
   63SAPC   O14 5006   1.954   7.093   6.302 -0.1118 -0.5184  0.8060
   63SAPC   O12 5007   2.076   6.877   6.335  0.3942  0.1399  0.8171
   63SAPC   O11 5008   2.054   6.989   6.109  0.1283  0.0768 -0.0752
   63SAPC    C1 5009   2.150   6.910   6.046 -0.1923 -0.0683 -0.3546
   63SAPC    HA 5010   2.240   6.972   6.030 -0.2794 -0.0078 -0.6203
   63SAPC    HB 5011   2.180   6.825   6.111  0.0318 -0.4292 -0.9256
   63SAPC    C2 5012   2.103   6.855   5.907 -0.1415 -0.4688 -0.1517
   63SAPC    HS 5013   2.032   6.770   5.914 -0.3113 -0.3223 -0.0852
   63SAPC   O21 5014   2.211   6.815   5.822  0.1093 -0.0788 -0.0040
   63SAPC   C21 5015   2.262   6.694   5.839  0.1912 -0.0132  1.3363
   63SAPC   O22 5016   2.215   6.606   5.909  0.0877  0.4053  0.0944
   63SAPC   C22 5017   2.363   6.659   5.722  0.0260 -0.1471  0.0388
   63SAPC   H2R 5018   2.453   6.632   5.780  0.8123  2.8992  0.2699
   63SAPC   H2S 5019   2.323   6.576   5.659 -2.2685  1.2199 -0.3686
   63SAPC    C3 5020   2.021   6.960   5.833  0.0050 -0.1268 -0.1331
   63SAPC    HX 5021   2.079   7.055   5.842 -0.0648  0.2812 -3.3031
   63SAPC    HY 5022   1.927   6.993   5.884 -0.9236 -0.9613 -1.2860
   63SAPC   O31 5023   2.009   6.931   5.697  0.2658 -0.1390 -0.0645
   63SAPC   C31 5024   1.925   6.828   5.676  0.9678  0.4659  0.2358
   63SAPC   O32 5025   1.849   6.783   5.757  0.3880  0.0682 -0.0659
   63SAPC   C32 5026   1.936   6.778   5.536  0.5888 -0.0330 -0.2330
   63SAPC   H2X 5027   2.043   6.794   5.513  1.0728  1.4124  2.9181
   63SAPC   H2Y 5028   1.882   6.838   5.459  0.7957  0.9586  0.3935
   63SAPC   C23 5029   2.395   6.786   5.634  0.0521  1.3370 -0.0461
   63SAPC   H3R 5030   2.449   6.868   5.686  1.5701  0.8102 -0.7740
   63SAPC   H3S 5031   2.306   6.841   5.595 -0.0516  1.6502  0.6233
   63SAPC   C24 5032   2.484   6.738   5.513  0.0847 -0.2277  1.4030
   63SAPC   H4R 5033   2.414   6.682   5.448  2.5382 -0.8404 -0.8295
   63SAPC   H4S 5034   2.559   6.663   5.547  1.0282  0.3748  0.6844
   63SAPC   C25 5035   2.555   6.851   5.444  0.4204 -0.6405  0.3430
   63SAPC   H5R 5036   2.618   6.918   5.505 -2.0265  0.0079  2.2171
   63SAPC   C26 5037   2.542   6.889   5.314 -0.2250 -0.7125  0.1033
   63SAPC   H6R 5038   2.611   6.964   5.272 -3.0392  2.4004  0.7915
   63SAPC   C27 5039   2.451   6.833   5.214  0.0785  0.0423  0.3800
   63SAPC   H7R 5040   2.411   6.736   5.251 -1.7764  0.4747 -0.4541
   63SAPC   H7S 5041   2.503   6.810   5.119 -0.3182 -1.7914  0.5955
   63SAPC   C28 5042   2.352   6.935   5.171 -0.3658 -0.4166 -0.1146
   63SAPC   H8R 5043   2.378   7.042   5.176 -1.5178 -0.1670  0.7220
   63SAPC   C29 5044   2.221   6.922   5.144  0.2883  0.4684  0.0559
   63SAPC   H9R 5045   2.159   7.010   5.122  0.3044  0.2823 -0.7378
   63SAPC  C210 5046   2.141   6.795   5.148  0.1780  0.7983 -0.5233
   63SAPC  H10R 5047   2.180   6.736   5.234 -1.7549  1.7589  1.0535
   63SAPC  H10S 5048   2.178   6.733   5.063  0.8233 -1.1220  1.1016
   63SAPC  C211 5049   1.987   6.809   5.152  0.4491 -0.4218  0.1732
   63SAPC  H11R 5050   1.953   6.834   5.254  1.3713  1.7633 -0.0319
   63SAPC  C212 5051   1.895   6.763   5.067  0.2559 -0.3747  0.0241
   63SAPC  H12R 5052   1.790   6.786   5.093  0.4247  1.1159 -0.5565
   63SAPC  C213 5053   1.917   6.701   4.928  0.3536 -0.4568  0.3266
   63SAPC  H13R 5054   2.027   6.690   4.916  0.5317  2.7166 -1.3401
   63SAPC  H13S 5055   1.897   6.769   4.842  0.6153 -1.0833 -0.2360
   63SAPC  C214 5056   1.842   6.571   4.910 -0.6356  0.3966  0.1074
   63SAPC  H14R 5057   1.806   6.530   5.005  0.4493 -0.5943  0.1083
   63SAPC  C215 5058   1.828   6.507   4.794 -0.5687  1.2424  1.1010
   63SAPC  H15R 5059   1.772   6.412   4.797 -0.3555  1.1392  1.8601
   63SAPC  C216 5060   1.879   6.554   4.658  0.0961 -0.4790 -0.9839
   63SAPC  H16R 5061   1.973   6.507   4.622  0.4527 -0.4072 -0.1601
   63SAPC  H16S 5062   1.907   6.661   4.673 -1.6637 -0.0872 -0.3758
   63SAPC  C217 5063   1.764   6.548   4.556  0.3043 -0.5270  0.1923
   63SAPC  H17R 5064   1.777   6.638   4.491  0.4139 -0.8862 -0.2834
   63SAPC  H17S 5065   1.664   6.566   4.602  0.2217  1.5562 -0.7223
   63SAPC  C218 5066   1.762   6.416   4.481  0.0529  0.6274 -0.6986
   63SAPC  H18R 5067   1.715   6.338   4.546  2.3902 -0.5721 -0.4003
   63SAPC  H18S 5068   1.867   6.387   4.460 -0.0129 -0.5071  0.4444
   63SAPC  C219 5069   1.681   6.427   4.355  1.3107 -0.1206 -0.2552
   63SAPC  H19R 5070   1.587   6.482   4.381  2.0641  1.7086 -1.2812
   63SAPC  H19S 5071   1.651   6.327   4.318  1.7924  0.6222 -2.6965
   63SAPC  C220 5072   1.749   6.484   4.231  0.1042 -0.2089 -0.0194
   63SAPC  H20R 5073   1.795   6.583   4.253  3.1413 -1.5691 -0.0795
   63SAPC  H20S 5074   1.672   6.498   4.152 -1.3482  0.5434  1.4716
   63SAPC  H20T 5075   1.836   6.417   4.214 -0.6160 -1.5843  1.5269
   63SAPC   C33 5076   1.897   6.626   5.537 -0.6031  0.2096  0.0270
   63SAPC   H3X 5077   1.791   6.608   5.510 -0.7516  1.7990 -0.5175
   63SAPC   H3Y 5078   1.922   6.574   5.632 -4.4650 -0.4074  0.7534
   63SAPC   C34 5079   1.982   6.536   5.444  0.4645 -0.4870  0.0747
   63SAPC   H4X 5080   1.973   6.588   5.347 -0.2185 -1.5474 -0.4404
   63SAPC   H4Y 5081   1.920   6.446   5.423 -1.1589  0.6930 -0.3074
   63SAPC   C35 5082   2.123   6.517   5.485 -0.2192 -0.1469 -0.6244
   63SAPC   H5X 5083   2.125   6.466   5.583 -0.3326 -1.7784 -1.4529
   63SAPC   H5Y 5084   2.181   6.612   5.481 -1.1440  0.4192 -0.6687
   63SAPC   C36 5085   2.206   6.423   5.394  0.1808 -0.3226 -0.2979
   63SAPC   H6X 5086   2.301   6.406   5.449  0.5692  0.1305 -0.8301
   63SAPC   H6Y 5087   2.226   6.493   5.310  0.7330 -0.1992 -0.0640
   63SAPC   C37 5088   2.136   6.298   5.361  0.5655  0.0549 -0.2443
   63SAPC   H7X 5089   2.041   6.311   5.304  1.1219 -0.7747 -1.3832
   63SAPC   H7Y 5090   2.115   6.249   5.459 -2.2868  0.4331 -0.6125
   63SAPC   C38 5091   2.225   6.211   5.266 -0.3561  0.9794 -0.4862
   63SAPC   H8X 5092   2.181   6.109   5.262 -1.3082  1.3924 -0.7256
   63SAPC   H8Y 5093   2.327   6.197   5.308 -0.4554  1.1727 -0.1807
   63SAPC   C39 5094   2.233   6.272   5.125  0.2334 -0.3352 -0.4164
   63SAPC   H9X 5095   2.206   6.379   5.124  1.1861 -0.0431  1.4565
   63SAPC   H9Y 5096   2.159   6.216   5.064  0.2941 -0.3849 -0.4446
   63SAPC  C310 5097   2.373   6.240   5.066 -0.3934  0.1743 -0.0698
   63SAPC  H10X 5098   2.446   6.281   5.139  0.9861 -0.6453 -0.9576
   63SAPC  H10Y 5099   2.382   6.296   4.970 -0.7112 -1.4833 -1.0799
   63SAPC  C311 5100   2.396   6.090   5.054 -0.6008 -0.5012  0.1310
   63SAPC  H11X 5101   2.311   6.048   4.996 -2.8208  2.7710  0.8899
   63SAPC  H11Y 5102   2.413   6.031   5.147  1.1654 -2.0315 -1.1484
   63SAPC  C312 5103   2.516   6.065   4.965  0.1180  0.8132  0.5813
   63SAPC  H12X 5104   2.608   6.078   5.025  1.9418 -3.5083 -1.0316
   63SAPC  H12Y 5105   2.522   6.139   4.882  2.2269 -2.0970 -1.9687
   63SAPC  C313 5106   2.540   5.929   4.905 -0.4811 -0.3191 -0.1753
   63SAPC  H13X 5107   2.449   5.885   4.859 -0.9215 -0.3791  0.7314
   63SAPC  H13Y 5108   2.557   5.870   4.997 -0.3893  0.0247  0.0305
   63SAPC  C314 5109   2.666   5.913   4.826  0.3585  0.3457 -0.1524
   63SAPC  H14X 5110   2.750   5.967   4.876  1.3541 -1.5835  0.3366
   63SAPC  H14Y 5111   2.652   5.955   4.725 -0.2789 -1.4326 -0.8136
   63SAPC  C315 5112   2.715   5.763   4.815  0.1372 -0.4858  0.0222
   63SAPC  H15X 5113   2.641   5.711   4.750 -0.7974  1.6104 -0.6475
   63SAPC  H15Y 5114   2.713   5.711   4.913 -0.4257  2.6773  1.7573
   63SAPC  C316 5115   2.850   5.761   4.736  0.6950 -0.1489  0.0519
   63SAPC  H16X 5116   2.930   5.810   4.796  2.2019 -1.4308 -0.8835
   63SAPC  H16Y 5117   2.847   5.818   4.641 -1.3898 -2.5757 -1.3870
   63SAPC  C317 5118   2.901   5.615   4.703 -0.5137 -0.0635 -0.0969
   63SAPC  H17X 5119   2.989   5.619   4.634 -0.1174  1.1208  0.4520
   63SAPC  H17Y 5120   2.825   5.576   4.633 -0.8741  0.5267 -0.0432
   63SAPC  C318 5121   2.930   5.530   4.825 -0.4074 -0.1527  0.2931
   63SAPC  H18X 5122   3.024   5.567   4.872  0.3509 -0.4411 -0.9749
   63SAPC  H18Y 5123   2.946   5.426   4.790  1.1992  0.3749 -0.6387
   63SAPC  H18Z 5124   2.855   5.526   4.906 -1.1021 -2.7543 -0.4503
   64SAPC     N 5125   1.605   1.133   6.719 -0.2755 -0.5638 -0.3642
   64SAPC   C12 5126   1.581   0.983   6.684 -0.1702  0.2022 -0.4215
   64SAPC  H12A 5127   1.549   0.936   6.775 -0.1258  0.7223 -0.1339
   64SAPC  H12B 5128   1.676   0.936   6.662  2.3700  4.1257  1.5432
   64SAPC   C13 5129   1.484   1.208   6.770  0.1519  0.0406 -0.3388
   64SAPC  H13A 5130   1.411   1.203   6.691  0.0212  0.4888 -0.2467
   64SAPC  H13B 5131   1.446   1.160   6.859  0.1410  1.2718  0.3357
   64SAPC  H13C 5132   1.510   1.310   6.792  0.4846  0.6268 -3.1954
   64SAPC   C14 5133   1.720   1.145   6.818  0.2808 -0.2695  0.5026
   64SAPC  H14A 5134   1.807   1.095   6.781  0.9172  2.1686 -1.4363
   64SAPC  H14B 5135   1.749   1.249   6.829  1.1753 -0.5358  0.6547
   64SAPC  H14C 5136   1.691   1.101   6.912  1.2674  0.3735  1.1126
   64SAPC   C15 5137   1.642   1.197   6.589 -0.2289 -0.1783 -0.0645
   64SAPC  H15A 5138   1.747   1.181   6.570 -0.1777 -1.0800  0.8945
   64SAPC  H15B 5139   1.583   1.150   6.511  0.2746 -1.4456  0.2935
   64SAPC  H15C 5140   1.625   1.303   6.594  1.2964 -0.0148  2.4252
   64SAPC   C11 5141   1.468   0.933   6.584 -0.2920  0.0287 -0.0900
   64SAPC  H11A 5142   1.372   0.980   6.615 -1.6646 -0.4886 -3.4216
   64SAPC  H11B 5143   1.450   0.824   6.597  0.4067  0.1837  2.5184
   64SAPC     P 5144   1.619   0.907   6.368 -0.0895 -0.1180 -0.3199
   64SAPC   O13 5145   1.715   1.017   6.346 -0.5507 -0.1132  0.2071
   64SAPC   O14 5146   1.665   0.788   6.444 -0.0511  0.0593 -0.0891
   64SAPC   O12 5147   1.497   0.975   6.453 -0.5016 -0.2550  0.4540
   64SAPC   O11 5148   1.557   0.879   6.228  0.2847  0.0610 -0.9373
   64SAPC    C1 5149   1.418   0.891   6.209  0.7564  0.2759  0.0998
   64SAPC    HA 5150   1.384   0.995   6.225 -0.8816  0.0103 -1.5870
   64SAPC    HB 5151   1.414   0.881   6.098  4.7355  0.4903 -0.1625
   64SAPC    C2 5152   1.336   0.772   6.270  0.1711 -0.5412 -0.1726
   64SAPC    HS 5153   1.348   0.782   6.379 -0.1609 -0.3332 -0.1516
   64SAPC   O21 5154   1.392   0.649   6.219  0.1894  0.4052  0.3687
   64SAPC   C21 5155   1.350   0.544   6.286 -0.7329  0.1949  0.0126
   64SAPC   O22 5156   1.268   0.548   6.377 -0.2072 -0.2811  0.4591
   64SAPC   C22 5157   1.418   0.419   6.228 -0.1777  0.2172 -0.4034
   64SAPC   H2R 5158   1.506   0.436   6.163  0.7215 -1.5324  0.3160
   64SAPC   H2S 5159   1.462   0.376   6.321 -0.9211  0.0886 -0.1045
   64SAPC    C3 5160   1.189   0.792   6.215  0.7173 -0.1006  1.1167
   64SAPC    HX 5161   1.145   0.884   6.258  0.6623  0.2400  0.3356
   64SAPC    HY 5162   1.122   0.711   6.250 -0.6182 -0.6383 -2.5072
   64SAPC   O31 5163   1.191   0.801   6.071 -0.1435  0.0856 -0.0310
   64SAPC   C31 5164   1.108   0.742   5.995 -0.2832  0.6912 -0.1880
   64SAPC   O32 5165   1.012   0.672   6.031 -0.0207  0.0647 -0.0721
   64SAPC   C32 5166   1.142   0.771   5.849 -0.2731 -0.3615  0.9426
   64SAPC   H2X 5167   1.116   0.876   5.825  0.5659 -0.7173 -1.7289
   64SAPC   H2Y 5168   1.076   0.708   5.785  1.5932 -0.6481 -0.7293
   64SAPC   C23 5169   1.315   0.321   6.162 -0.0597  0.2375 -0.1293
   64SAPC   H3R 5170   1.234   0.296   6.234 -0.6853 -2.0975 -1.6081
   64SAPC   H3S 5171   1.370   0.228   6.135  1.2560  1.1320 -0.6002
   64SAPC   C24 5172   1.251   0.378   6.036  0.8256 -0.4934 -0.0900
   64SAPC   H4R 5173   1.322   0.421   5.963  0.3528 -0.9687 -0.8311
   64SAPC   H4S 5174   1.184   0.462   6.063  0.9458 -1.1576  2.3952
   64SAPC   C25 5175   1.163   0.273   5.974  0.7565 -0.1859 -0.3958
   64SAPC   H5R 5176   1.082   0.243   6.043 -2.2580  1.6033 -2.9922
   64SAPC   C26 5177   1.171   0.216   5.850  0.3016 -0.4362  0.1629
   64SAPC   H6R 5178   1.104   0.132   5.830 -2.6679  1.9316 -0.2214
   64SAPC   C27 5179   1.278   0.251   5.750 -0.1888 -0.8955  0.0279
   64SAPC   H7R 5180   1.374   0.203   5.778 -0.7408 -2.9619 -1.5060
   64SAPC   H7S 5181   1.311   0.356   5.763  1.3008 -1.4123  0.5194
   64SAPC   C28 5182   1.239   0.205   5.606 -0.2517 -0.3649  0.7284
   64SAPC   H8R 5183   1.163   0.126   5.603  1.4051 -2.0863  2.4799
   64SAPC   C29 5184   1.299   0.260   5.495 -0.5525 -0.4001  0.0805
   64SAPC   H9R 5185   1.272   0.213   5.399 -0.4486  0.9973 -0.6332
   64SAPC  C210 5186   1.415   0.359   5.490 -0.7067  0.5435 -0.2606
   64SAPC  H10R 5187   1.435   0.401   5.591  2.3358  0.4084 -0.7761
   64SAPC  H10S 5188   1.376   0.443   5.429 -1.0887  1.7004  1.5115
   64SAPC  C211 5189   1.540   0.308   5.419  0.1059  0.2393 -0.0521
   64SAPC  H11R 5190   1.629   0.283   5.479 -0.0692 -1.1800 -0.3663
   64SAPC  C212 5191   1.555   0.296   5.287 -0.0811  0.9258 -0.1862
   64SAPC  H12R 5192   1.654   0.264   5.250 -0.0245 -0.3601  1.0386
   64SAPC  C213 5193   1.457   0.336   5.179 -0.4495  0.5915  0.7186
   64SAPC  H13R 5194   1.365   0.392   5.207 -0.3314  0.9970  0.2946
   64SAPC  H13S 5195   1.421   0.246   5.125 -0.0549  1.0959 -0.4135
   64SAPC  C214 5196   1.507   0.435   5.082  0.2173  0.2341 -0.2606
   64SAPC  H14R 5197   1.470   0.533   5.115  1.5077 -0.1027  2.3335
   64SAPC  C215 5198   1.599   0.417   4.987 -0.5277  0.2529 -0.2139
   64SAPC  H15R 5199   1.608   0.509   4.927 -2.1119 -0.3361 -1.3721
   64SAPC  C216 5200   1.666   0.286   4.949  0.1249  0.1742  0.3976
   64SAPC  H16R 5201   1.624   0.197   5.001  0.2191  0.2078  0.5317
   64SAPC  H16S 5202   1.768   0.287   4.993 -0.7526  0.4075  2.4545
   64SAPC  C217 5203   1.674   0.246   4.804  1.0022 -0.2326  0.8751
   64SAPC  H17R 5204   1.743   0.159   4.793 -0.1726 -1.2966  1.7320
   64SAPC  H17S 5205   1.716   0.331   4.746  0.2689 -0.5575 -0.1542
   64SAPC  C218 5206   1.534   0.211   4.748  0.4859 -0.2000  1.0925
   64SAPC  H18R 5207   1.475   0.304   4.737 -0.5301 -1.0113 -0.6228
   64SAPC  H18S 5208   1.483   0.150   4.826 -2.3849 -2.4724 -2.3802
   64SAPC  C219 5209   1.535   0.127   4.615 -0.5137  0.2581 -0.0078
   64SAPC  H19R 5210   1.424   0.123   4.605 -0.5866  1.2853  0.3018
   64SAPC  H19S 5211   1.579   0.027   4.635 -1.1746 -0.1119 -0.3760
   64SAPC  C220 5212   1.601   0.205   4.498  1.6440  0.0711  0.4061
   64SAPC  H20R 5213   1.708   0.223   4.524  2.0218 -1.8169  0.2153
   64SAPC  H20S 5214   1.559   0.307   4.490 -2.9276 -1.4862  2.9757
   64SAPC  H20T 5215   1.584   0.146   4.406 -1.1057 -0.7112  1.3649
   64SAPC   C33 5216   1.293   0.756   5.815  0.0336 -0.9810 -0.1263
   64SAPC   H3X 5217   1.312   0.647   5.831 -1.0102 -1.4461 -1.9767
   64SAPC   H3Y 5218   1.356   0.811   5.889 -2.9402 -1.2053  2.6914
   64SAPC   C34 5219   1.326   0.792   5.673  0.3441  0.5162  0.1097
   64SAPC   H4X 5220   1.434   0.772   5.657 -0.3128 -3.5590  0.0688
   64SAPC   H4Y 5221   1.307   0.899   5.652 -0.1126 -0.0285 -2.4647
   64SAPC   C35 5222   1.255   0.703   5.571  0.9070  0.1538 -0.2990
   64SAPC   H5X 5223   1.144   0.697   5.579  0.7973  0.8110 -1.2877
   64SAPC   H5Y 5224   1.283   0.597   5.592 -1.0371 -0.1462  0.9669
   64SAPC   C36 5225   1.295   0.738   5.420 -0.0405  0.1466 -0.0115
   64SAPC   H6X 5226   1.269   0.657   5.349 -0.6946  1.3465 -1.1616
   64SAPC   H6Y 5227   1.403   0.762   5.417  0.3329 -1.6231 -1.1093
   64SAPC   C37 5228   1.226   0.866   5.362 -0.0345  1.0901 -1.1501
   64SAPC   H7X 5229   1.258   0.960   5.413 -2.0066  0.2224  1.8330
   64SAPC   H7Y 5230   1.120   0.877   5.394  0.3245 -2.8185  1.7787
   64SAPC   C38 5231   1.240   0.860   5.218  1.2304  0.7484  0.3263
   64SAPC   H8X 5232   1.163   0.927   5.174  2.5295  1.9792 -0.1049
   64SAPC   H8Y 5233   1.200   0.762   5.184  1.5419  0.3152  1.1909
   64SAPC   C39 5234   1.372   0.902   5.154  0.9072 -0.3102  0.3396
   64SAPC   H9X 5235   1.452   0.837   5.194  0.8907 -0.2995  0.3915
   64SAPC   H9Y 5236   1.388   1.007   5.188 -0.9802 -0.6339  2.4204
   64SAPC  C310 5237   1.377   0.889   4.996  0.0542  0.0629  0.9138
   64SAPC  H10X 5238   1.289   0.929   4.943  0.1944  0.5531  1.0456
   64SAPC  H10Y 5239   1.366   0.781   4.971  0.3281  0.3765 -0.5981
   64SAPC  C311 5240   1.508   0.923   4.920  0.6462 -0.1323 -0.0679
   64SAPC  H11X 5241   1.582   0.846   4.950  0.5811 -0.1037  0.1680
   64SAPC  H11Y 5242   1.529   1.023   4.963 -0.7113 -0.1687  0.7086
   64SAPC  C312 5243   1.512   0.925   4.767  0.3058 -0.6763 -0.4374
   64SAPC  H12X 5244   1.609   0.974   4.744  1.2489 -2.2051  0.2017
   64SAPC  H12Y 5245   1.426   0.983   4.728 -1.4278 -1.9998  1.2944
   64SAPC  C313 5246   1.511   0.782   4.698 -0.4000  0.4112 -0.8348
   64SAPC  H13X 5247   1.480   0.783   4.591  0.7551 -1.1908 -1.1981
   64SAPC  H13Y 5248   1.436   0.716   4.747  1.6920 -2.3753 -1.2777
   64SAPC  C314 5249   1.650   0.721   4.696 -0.2153 -0.7905 -0.4521
   64SAPC  H14X 5250   1.683   0.715   4.802  1.2706 -3.3838 -1.0231
   64SAPC  H14Y 5251   1.723   0.790   4.650  0.4481 -1.5957 -0.6253
   64SAPC  C315 5252   1.653   0.578   4.635  0.0346 -0.3575 -0.7249
   64SAPC  H15X 5253   1.595   0.582   4.540 -0.4357 -0.5267 -0.4399
   64SAPC  H15Y 5254   1.605   0.505   4.703  0.5156 -0.6061 -0.6458
   64SAPC  C316 5255   1.793   0.523   4.594  0.2591 -0.5300  0.3868
   64SAPC  H16X 5256   1.788   0.417   4.562  1.4782 -0.4159 -0.1887
   64SAPC  H16Y 5257   1.854   0.529   4.687  0.2071  1.1811  0.3345
   64SAPC  C317 5258   1.867   0.606   4.477  0.3870  0.5457  0.5546
   64SAPC  H17X 5259   1.947   0.548   4.427 -0.9467 -0.1664 -0.8037
   64SAPC  H17Y 5260   1.907   0.700   4.521  0.3162 -0.1950  2.2543
   64SAPC  C318 5261   1.772   0.646   4.364 -0.9700 -0.1258  0.2526
   64SAPC  H18X 5262   1.711   0.563   4.325 -0.8780  0.1945 -0.5852
   64SAPC  H18Y 5263   1.842   0.689   4.289 -1.1188  1.1623  0.8246
   64SAPC  H18Z 5264   1.705   0.730   4.392 -3.6543 -2.9620  2.6193
   65SAPC     N 5265   2.535   1.740   2.245  0.6931  0.2595  0.2136
   65SAPC   C12 5266   2.475   1.737   2.394  0.2466 -0.2130 -0.3814
   65SAPC  H12A 5267   2.481   1.839   2.428  0.5591 -0.3502 -0.0135
   65SAPC  H12B 5268   2.556   1.688   2.448  1.1216  2.1354  0.5373
   65SAPC   C13 5269   2.443   1.838   2.168  0.1926 -0.3097 -0.4125
   65SAPC  H13A 5270   2.456   1.942   2.195  1.1442 -0.0814 -1.7110
   65SAPC  H13B 5271   2.466   1.839   2.062  2.2766  0.0179  0.0119
   65SAPC  H13C 5272   2.338   1.827   2.189  0.6234 -1.3828  1.2714
   65SAPC   C14 5273   2.678   1.778   2.238  0.2417  0.4049 -0.0059
   65SAPC  H14A 5274   2.706   1.839   2.324  0.2029 -1.0713  1.0686
   65SAPC  H14B 5275   2.745   1.696   2.258 -2.0444 -1.7790 -1.1975
   65SAPC  H14C 5276   2.704   1.829   2.147 -1.4720  2.1892  0.4672
   65SAPC   C15 5277   2.522   1.600   2.187 -0.6211  0.0829  0.3545
   65SAPC  H15A 5278   2.422   1.575   2.154  0.7751 -3.7376 -1.2610
   65SAPC  H15B 5279   2.596   1.587   2.109  2.2766  1.4735  2.7748
   65SAPC  H15C 5280   2.548   1.530   2.265  0.1646 -0.9054 -0.7684
   65SAPC   C11 5281   2.335   1.685   2.407 -0.1783 -0.5001  0.6268
   65SAPC  H11A 5282   2.301   1.653   2.508  2.6841 -1.6568  1.2851
   65SAPC  H11B 5283   2.338   1.595   2.341 -0.1593 -0.3164  0.3779
   65SAPC     P 5284   2.165   1.877   2.434  0.0835  0.2550 -0.2131
   65SAPC   O13 5285   2.100   1.971   2.337 -0.2237 -0.3643  0.0989
   65SAPC   O14 5286   2.073   1.807   2.524  0.1973  0.0922 -0.3267
   65SAPC   O12 5287   2.234   1.771   2.347  0.4534  0.2738  0.0757
   65SAPC   O11 5288   2.286   1.953   2.518 -0.1110  0.5288  0.5119
   65SAPC    C1 5289   2.332   2.078   2.460 -0.0883 -0.5821 -0.3873
   65SAPC    HA 5290   2.406   2.058   2.379 -0.4786 -0.3451 -0.8040
   65SAPC    HB 5291   2.262   2.147   2.409  2.5068  1.5188 -1.2838
   65SAPC    C2 5292   2.395   2.183   2.558 -0.1288  0.7810  0.5098
   65SAPC    HS 5293   2.452   2.251   2.491  3.0420 -3.3428 -1.2901
   65SAPC   O21 5294   2.487   2.099   2.633 -0.0496 -0.5501 -0.1258
   65SAPC   C21 5295   2.592   2.167   2.679  0.1802  0.2684 -0.3479
   65SAPC   O22 5296   2.606   2.289   2.653  0.1221 -0.3265  0.1283
   65SAPC   C22 5297   2.672   2.088   2.774  0.4832 -0.0255  0.0683
   65SAPC   H2R 5298   2.628   1.986   2.786  0.3195  0.2179  1.6082
   65SAPC   H2S 5299   2.776   2.081   2.738  0.7346  2.4526  0.2055
   65SAPC    C3 5300   2.293   2.262   2.651 -0.4561  0.5061 -0.0552
   65SAPC    HX 5301   2.233   2.334   2.591  0.6889 -0.9538 -3.0893
   65SAPC    HY 5302   2.354   2.324   2.720  1.0702 -1.0592  0.0288
   65SAPC   O31 5303   2.207   2.183   2.735 -0.3378  0.7723  0.1548
   65SAPC   C31 5304   2.090   2.146   2.678  0.5310 -0.1945  0.2006
   65SAPC   O32 5305   2.042   2.200   2.577  0.1897 -0.4083 -0.4820
   65SAPC   C32 5306   2.030   2.034   2.760 -0.1102  0.1221  0.7267
   65SAPC   H2X 5307   2.096   2.018   2.847  1.9652  0.1824 -0.8016
   65SAPC   H2Y 5308   2.041   1.937   2.707 -0.4859  0.1055  0.6745
   65SAPC   C23 5309   2.674   2.165   2.907 -0.5458  0.0465  0.3112
   65SAPC   H3R 5310   2.702   2.273   2.907 -0.3567 -0.0007 -0.3512
   65SAPC   H3S 5311   2.756   2.108   2.957  1.7900  0.2177 -3.1952
   65SAPC   C24 5312   2.544   2.151   2.984 -0.1929 -0.6188  0.2963
   65SAPC   H4R 5313   2.491   2.056   2.959  0.4275 -1.0957  0.7877
   65SAPC   H4S 5314   2.475   2.233   2.956 -0.4172 -1.1554 -0.7419
   65SAPC   C25 5315   2.574   2.160   3.128 -0.0905  1.0767 -0.5414
   65SAPC   H5R 5316   2.635   2.247   3.157  1.5387 -0.3463  0.4112
   65SAPC   C26 5317   2.549   2.071   3.225 -0.9988 -0.6811 -0.1504
   65SAPC   H6R 5318   2.593   2.090   3.324  0.8155 -0.6716 -0.9430
   65SAPC   C27 5319   2.485   1.926   3.215  0.3283  0.3623 -0.2675
   65SAPC   H7R 5320   2.457   1.904   3.109 -1.5246 -0.4756  0.3703
   65SAPC   H7S 5321   2.387   1.931   3.267  1.5701  0.4640  2.0831
   65SAPC   C28 5322   2.572   1.812   3.274 -0.6193  0.8749  0.2125
   65SAPC   H8R 5323   2.653   1.775   3.209 -1.5842 -1.4804  0.3085
   65SAPC   C29 5324   2.535   1.729   3.375  0.1616  0.5930 -0.5050
   65SAPC   H9R 5325   2.603   1.648   3.406 -0.4508  0.1942 -0.1983
   65SAPC  C210 5326   2.401   1.720   3.454 -0.5404 -0.5525 -0.1137
   65SAPC  H10R 5327   2.341   1.629   3.433  0.8941 -1.5648  0.0287
   65SAPC  H10S 5328   2.338   1.804   3.419  2.4631  1.4757 -0.8797
   65SAPC  C211 5329   2.436   1.750   3.594 -0.1439 -0.3793 -0.6055
   65SAPC  H11R 5330   2.504   1.835   3.609 -1.1731  0.4836 -0.7839
   65SAPC  C212 5331   2.378   1.687   3.696  0.4025 -0.9973 -0.2004
   65SAPC  H12R 5332   2.396   1.727   3.797  1.2333 -1.7450 -0.0493
   65SAPC  C213 5333   2.276   1.574   3.703  0.7341  0.5992 -0.1917
   65SAPC  H13R 5334   2.279   1.531   3.806  0.4070 -1.0000 -0.8345
   65SAPC  H13S 5335   2.314   1.504   3.626 -0.2066  0.6146 -0.6742
   65SAPC  C214 5336   2.144   1.613   3.649  0.5493  0.2632  0.0656
   65SAPC  H14R 5337   2.119   1.718   3.669 -0.4979 -0.2329  1.4798
   65SAPC  C215 5338   2.049   1.539   3.587  0.7010 -1.2995 -0.0245
   65SAPC  H15R 5339   1.974   1.590   3.525 -0.9063 -3.2987  0.2266
   65SAPC  C216 5340   2.056   1.392   3.564 -0.5496 -0.0814  0.3471
   65SAPC  H16R 5341   1.960   1.338   3.578 -0.1789 -0.2034  2.6400
   65SAPC  H16S 5342   2.124   1.334   3.630 -0.7656 -0.3093  0.3709
   65SAPC  C217 5343   2.104   1.356   3.421  0.3576 -0.1665  0.6473
   65SAPC  H17R 5344   2.103   1.245   3.412 -1.1989 -0.2857  2.0465
   65SAPC  H17S 5345   2.208   1.393   3.413 -0.1014  1.0871  0.2513
   65SAPC  C218 5346   2.026   1.411   3.303  0.0391 -0.4209  0.2237
   65SAPC  H18R 5347   2.069   1.363   3.213  0.6824  0.5512  0.0080
   65SAPC  H18S 5348   2.036   1.522   3.301 -0.4656 -0.3737  0.1977
   65SAPC  C219 5349   1.882   1.364   3.306  0.1066 -0.6390 -0.7346
   65SAPC  H19R 5350   1.822   1.409   3.387  0.1610  2.0849 -2.1459
   65SAPC  H19S 5351   1.881   1.253   3.314  1.9105 -0.5784  0.5830
   65SAPC  C220 5352   1.812   1.402   3.173 -0.1145  0.1459 -0.0317
   65SAPC  H20R 5353   1.864   1.356   3.087 -1.4067  1.5775 -1.6020
   65SAPC  H20S 5354   1.824   1.509   3.148  0.8980 -0.2899 -1.4578
   65SAPC  H20T 5355   1.703   1.380   3.175 -0.4142  1.4871 -0.9078
   65SAPC   C33 5356   1.881   2.059   2.790  0.3803 -0.3757 -0.1459
   65SAPC   H3X 5357   1.833   1.964   2.821 -1.7558  0.9901  0.8444
   65SAPC   H3Y 5358   1.832   2.080   2.693  0.3189 -0.2974 -0.0978
   65SAPC   C34 5359   1.865   2.175   2.895  0.5827  0.4254 -0.7573
   65SAPC   H4X 5360   1.899   2.273   2.854 -0.5167  0.8776 -0.5811
   65SAPC   H4Y 5361   1.933   2.157   2.981  0.6287 -1.5762 -1.1717
   65SAPC   C35 5362   1.724   2.181   2.938  0.5293  0.5882 -0.6933
   65SAPC   H5X 5363   1.663   2.215   2.852 -2.2302  0.6960  1.2468
   65SAPC   H5Y 5364   1.718   2.259   3.016  0.3614 -0.3879  0.2864
   65SAPC   C36 5365   1.663   2.050   2.996  0.1573 -0.1517  0.0933
   65SAPC   H6X 5366   1.726   2.019   3.082 -0.0006  3.0766  1.4530
   65SAPC   H6Y 5367   1.663   1.971   2.918  1.6914 -1.9051  1.8027
   65SAPC   C37 5368   1.527   2.061   3.064 -0.4120  0.0941  0.1684
   65SAPC   H7X 5369   1.494   1.958   3.092 -2.5559  1.1249  1.6281
   65SAPC   H7Y 5370   1.462   2.085   2.977  1.7717  1.8162 -1.0419
   65SAPC   C38 5371   1.520   2.172   3.172 -0.1158 -0.3007 -0.5722
   65SAPC   H8X 5372   1.414   2.189   3.200  0.1302  1.3561 -0.6060
   65SAPC   H8Y 5373   1.554   2.269   3.129  2.8494  0.2101  2.6552
   65SAPC   C39 5374   1.604   2.140   3.299  0.1387  0.3547  0.4599
   65SAPC   H9X 5375   1.585   2.219   3.376 -0.1157  0.4854  0.2650
   65SAPC   H9Y 5376   1.711   2.152   3.274 -0.1931  1.9351 -0.2856
   65SAPC  C310 5377   1.581   1.996   3.355  0.3020 -0.0960  0.4567
   65SAPC  H10X 5378   1.647   1.930   3.295  0.5008  0.1783  0.3723
   65SAPC  H10Y 5379   1.473   1.981   3.336 -0.4982  4.2881  1.0648
   65SAPC  C311 5380   1.614   1.970   3.507 -0.9329  0.0093 -0.5552
   65SAPC  H11X 5381   1.562   2.042   3.574  0.5219  0.3760  0.2012
   65SAPC  H11Y 5382   1.719   1.994   3.534 -1.7029 -0.5153  3.2271
   65SAPC  C312 5383   1.598   1.829   3.558  0.1086  0.3120 -0.4250
   65SAPC  H12X 5384   1.633   1.746   3.492  2.0072  0.5764  0.2056
   65SAPC  H12Y 5385   1.491   1.804   3.569  0.1968  0.2572  0.3322
   65SAPC  C313 5386   1.658   1.806   3.692 -0.3165  0.6911 -0.1951
   65SAPC  H13X 5387   1.600   1.853   3.774  0.2749  0.6270  0.2576
   65SAPC  H13Y 5388   1.765   1.835   3.687 -0.3214  0.4954 -1.6826
   65SAPC  C314 5389   1.671   1.650   3.732 -0.6883 -0.4676 -0.1428
   65SAPC  H14X 5390   1.734   1.609   3.650 -0.2256  2.2693 -1.2125
   65SAPC  H14Y 5391   1.577   1.591   3.722 -1.2205  0.5493 -1.3117
   65SAPC  C315 5392   1.747   1.625   3.861 -0.0465 -0.4404  0.7646
   65SAPC  H15X 5393   1.842   1.682   3.865 -0.3930  0.0255  4.1599
   65SAPC  H15Y 5394   1.784   1.521   3.874  0.3827 -0.3992 -0.1286
   65SAPC  C316 5395   1.656   1.647   3.987 -0.0717 -0.1225 -0.0940
   65SAPC  H16X 5396   1.624   1.752   4.004  0.4781  0.0497 -0.1300
   65SAPC  H16Y 5397   1.706   1.597   4.073  0.7740  1.2878  0.2390
   65SAPC  C317 5398   1.520   1.563   3.993 -0.5013 -0.0228  0.7299
   65SAPC  H17X 5399   1.449   1.603   3.918 -0.2102 -2.0972 -0.6934
   65SAPC  H17Y 5400   1.471   1.574   4.093  1.6498  0.9818  1.7129
   65SAPC  C318 5401   1.530   1.416   3.956  0.4695 -0.1255 -0.7105
   65SAPC  H18X 5402   1.436   1.370   3.993  0.0749  0.3914 -1.0680
   65SAPC  H18Y 5403   1.620   1.369   4.000  1.4141  2.0857 -0.2133
   65SAPC  H18Z 5404   1.529   1.412   3.845  1.5186  1.9917 -0.8342
   66SAPC     N 5405   5.601   3.193   2.067 -0.5240 -0.6308  0.8138
   66SAPC   C12 5406   5.703   3.256   1.967 -0.2134 -0.5232 -0.1821
   66SAPC  H12A 5407   5.705   3.362   1.988 -0.7942 -0.9045  2.0288
   66SAPC  H12B 5408   5.667   3.240   1.867  1.8522 -2.9996 -0.5619
   66SAPC   C13 5409   5.567   3.058   2.023  0.1577  0.0240  0.6961
   66SAPC  H13A 5410   5.513   2.998   2.095  0.4253  0.0378  0.9060
   66SAPC  H13B 5411   5.505   3.050   1.935 -0.0283 -2.0109  0.9851
   66SAPC  H13C 5412   5.650   3.001   1.984 -0.8292 -1.2639  0.4500
   66SAPC   C14 5413   5.664   3.165   2.201 -0.0628 -0.3037 -0.5638
   66SAPC  H14A 5414   5.751   3.102   2.191  0.6031  0.9006 -2.7164
   66SAPC  H14B 5415   5.702   3.250   2.255  0.7302 -1.2876  0.4466
   66SAPC  H14C 5416   5.594   3.105   2.258  1.2321 -0.6292  0.7110
   66SAPC   C15 5417   5.476   3.272   2.078 -0.0365  0.2046  0.0868
   66SAPC  H15A 5418   5.501   3.367   2.122 -1.3800  0.8005 -0.3847
   66SAPC  H15B 5419   5.437   3.308   1.983  0.8618  2.0026  0.3912
   66SAPC  H15C 5420   5.400   3.217   2.131  0.7709 -1.5468 -0.5393
   66SAPC   C11 5421   5.858   3.226   1.976 -0.3169 -0.2996  0.2567
   66SAPC  H11A 5422   5.909   3.265   1.886  0.2751 -2.6711 -0.4617
   66SAPC  H11B 5423   5.862   3.116   1.986  0.3493 -0.2540  0.5178
   66SAPC     P 5424   5.962   3.424   2.097  0.1957  0.7121  0.1526
   66SAPC   O13 5425   6.087   3.422   2.025 -0.3047  0.6379  0.2160
   66SAPC   O14 5426   5.859   3.519   2.055 -0.4746 -0.3757 -0.0441
   66SAPC   O12 5427   5.912   3.280   2.095 -0.1083  0.0079 -0.3150
   66SAPC   O11 5428   6.001   3.447   2.251 -0.4839  0.5213  0.4578
   66SAPC    C1 5429   5.904   3.424   2.352  0.0219 -0.1705  0.2551
   66SAPC    HA 5430   5.814   3.368   2.321  1.2733 -1.8859 -0.3865
   66SAPC    HB 5431   5.943   3.349   2.424 -0.7356 -0.7170  0.1011
   66SAPC    C2 5432   5.875   3.548   2.437  0.5105  0.2262 -0.7135
   66SAPC    HS 5433   5.829   3.632   2.381 -0.3944 -1.4063 -2.4689
   66SAPC   O21 5434   6.006   3.590   2.487  0.5038  0.2186 -0.6650
   66SAPC   C21 5435   6.007   3.691   2.569 -0.0555  0.3246 -0.3278
   66SAPC   O22 5436   5.915   3.766   2.586 -0.7924  0.6891  0.2003
   66SAPC   C22 5437   6.139   3.687   2.645  0.3419 -0.2223 -0.1097
   66SAPC   H2R 5438   6.162   3.581   2.669 -0.1517 -0.1691  0.6281
   66SAPC   H2S 5439   6.215   3.733   2.578 -1.1000 -1.1423 -2.4411
   66SAPC    C3 5440   5.773   3.511   2.548 -0.3821 -0.0647  0.5160
   66SAPC    HX 5441   5.679   3.469   2.505  0.5051 -0.7546 -0.7776
   66SAPC    HY 5442   5.742   3.603   2.602  1.7067  1.9110 -1.5040
   66SAPC   O31 5443   5.843   3.419   2.636  0.6253 -0.0295 -0.4251
   66SAPC   C31 5444   5.779   3.416   2.757 -0.3497 -0.4792 -0.3506
   66SAPC   O32 5445   5.675   3.473   2.777 -0.1530  0.0979  0.0194
   66SAPC   C32 5446   5.851   3.339   2.877  0.0554 -0.7969  0.9529
   66SAPC   H2X 5447   5.954   3.381   2.876 -0.5490  0.7508 -1.2911
   66SAPC   H2Y 5448   5.872   3.238   2.834  0.8477  0.8847 -2.8458
   66SAPC   C23 5449   6.127   3.755   2.787 -0.8039 -0.1757 -0.5106
   66SAPC   H3R 5450   6.067   3.848   2.785 -0.0940  0.3532  1.0975
   66SAPC   H3S 5451   6.229   3.791   2.815 -1.0797 -0.0981  0.4162
   66SAPC   C24 5452   6.074   3.668   2.900  0.5627 -0.8269  0.3966
   66SAPC   H4R 5453   6.148   3.588   2.921 -0.8479 -1.7355  2.1321
   66SAPC   H4S 5454   5.986   3.612   2.860  0.6141 -1.7816  1.5778
   66SAPC   C25 5455   6.037   3.744   3.028  0.3176  0.1347 -0.5869
   66SAPC   H5R 5456   6.115   3.740   3.105  0.4069 -1.2274 -0.7306
   66SAPC   C26 5457   5.919   3.789   3.057  0.7926 -0.7204 -0.3559
   66SAPC   H6R 5458   5.908   3.846   3.151  0.5743 -1.2148 -0.0815
   66SAPC   C27 5459   5.801   3.782   2.960 -0.1879 -0.2402 -0.7602
   66SAPC   H7R 5460   5.753   3.682   2.968  2.4252 -1.3292  2.1356
   66SAPC   H7S 5461   5.847   3.797   2.860 -0.2794 -1.0320 -0.9280
   66SAPC   C28 5462   5.707   3.898   2.971 -0.8363 -0.1285 -0.0811
   66SAPC   H8R 5463   5.705   3.956   2.877  0.3574 -1.8563 -1.1998
   66SAPC   C29 5464   5.617   3.927   3.073 -0.5326 -0.5337 -0.8270
   66SAPC   H9R 5465   5.553   4.015   3.056 -1.3056 -0.8714  0.2254
   66SAPC  C210 5466   5.586   3.839   3.195 -0.6184 -0.3110  0.6319
   66SAPC  H10R 5467   5.669   3.858   3.266  0.3238  0.9508 -0.7722
   66SAPC  H10S 5468   5.591   3.730   3.175 -0.6150 -0.4218  1.2135
   66SAPC  C211 5469   5.456   3.871   3.264 -0.6801 -0.4308 -0.0104
   66SAPC  H11R 5470   5.441   3.979   3.284  1.2841 -0.1751  0.1527
   66SAPC  C212 5471   5.365   3.788   3.307  0.4472 -0.1667  0.3255
   66SAPC  H12R 5472   5.276   3.828   3.358  1.3757  1.8534  0.4230
   66SAPC  C213 5473   5.377   3.635   3.303 -0.4887 -0.2973  0.6110
   66SAPC  H13R 5474   5.460   3.602   3.368 -1.1540  0.3195  1.8000
   66SAPC  H13S 5475   5.424   3.608   3.206 -1.8465  0.5684 -0.3134
   66SAPC  C214 5476   5.253   3.550   3.320  0.2464 -0.5458 -0.3606
   66SAPC  H14R 5477   5.231   3.501   3.224 -2.5694 -1.0853  0.4947
   66SAPC  C215 5478   5.204   3.518   3.443 -0.0215  0.1493 -0.0214
   66SAPC  H15R 5479   5.128   3.442   3.466  1.5297 -1.3223  0.3922
   66SAPC  C216 5480   5.259   3.563   3.570  1.1795  0.6234 -0.2464
   66SAPC  H16R 5481   5.181   3.624   3.622  1.5560  0.9194 -0.0251
   66SAPC  H16S 5482   5.351   3.625   3.561 -0.3834  3.3724  1.6656
   66SAPC  C217 5483   5.290   3.441   3.666  0.1833 -0.2665  0.4001
   66SAPC  H17R 5484   5.371   3.466   3.737  0.7572 -0.7955 -0.0664
   66SAPC  H17S 5485   5.322   3.350   3.611 -0.3762 -0.9151  1.1439
   66SAPC  C218 5486   5.166   3.394   3.744  0.4821 -0.1651  0.3876
   66SAPC  H18R 5487   5.086   3.372   3.670  0.4945  0.0377  0.3130
   66SAPC  H18S 5488   5.129   3.475   3.811  0.5915 -0.7818  1.1868
   66SAPC  C219 5489   5.183   3.264   3.823 -0.2077 -0.2176 -0.0290
   66SAPC  H19R 5490   5.258   3.267   3.905 -0.7452  0.7734  0.4324
   66SAPC  H19S 5491   5.211   3.183   3.753 -2.1956  0.5062 -1.7197
   66SAPC  C220 5492   5.054   3.222   3.896 -0.4953 -0.4227 -0.2624
   66SAPC  H20R 5493   5.029   3.298   3.973  1.4307  1.9303 -1.8703
   66SAPC  H20S 5494   5.072   3.122   3.941  0.3486  0.9507  2.5697
   66SAPC  H20T 5495   4.971   3.217   3.823 -1.4894 -0.1631  0.8359
   66SAPC   C33 5496   5.791   3.352   3.016  0.6511  0.0862 -0.2780
   66SAPC   H3X 5497   5.699   3.415   3.008  0.6436  0.0341 -0.6118
   66SAPC   H3Y 5498   5.852   3.416   3.084 -0.8484 -0.4952  1.6498
   66SAPC   C34 5499   5.756   3.221   3.093  0.9597  0.2449 -0.0847
   66SAPC   H4X 5500   5.850   3.177   3.132  1.7579 -1.3051 -3.5429
   66SAPC   H4Y 5501   5.696   3.157   3.026  1.2958 -1.6264  1.3633
   66SAPC   C35 5502   5.666   3.249   3.222 -0.0823  0.1844  0.0137
   66SAPC   H5X 5503   5.562   3.270   3.189 -0.8877  1.0880  2.9794
   66SAPC   H5Y 5504   5.710   3.341   3.267  0.3310  1.0846 -2.1657
   66SAPC   C36 5505   5.646   3.128   3.313 -0.5124  0.3578 -0.3299
   66SAPC   H6X 5506   5.745   3.094   3.350 -1.4835 -0.7969  1.2698
   66SAPC   H6Y 5507   5.597   3.055   3.245 -0.4588 -0.2195  0.2479
   66SAPC   C37 5508   5.561   3.162   3.433 -0.3356  0.1463  0.0793
   66SAPC   H7X 5509   5.458   3.200   3.415  0.3338  0.9442 -2.1540
   66SAPC   H7Y 5510   5.605   3.241   3.497  2.6940 -0.2479 -1.4577
   66SAPC   C38 5511   5.541   3.034   3.521  0.1886  0.2495 -0.8545
   66SAPC   H8X 5512   5.639   2.989   3.550  0.4337  0.4210 -1.4205
   66SAPC   H8Y 5513   5.487   2.963   3.455 -0.9440  0.7952 -0.5350
   66SAPC   C39 5514   5.454   3.062   3.642  0.7432 -0.8268  0.5190
   66SAPC   H9X 5515   5.353   3.092   3.605  1.3616 -0.4072 -0.8098
   66SAPC   H9Y 5516   5.487   3.140   3.714 -0.8827  1.9877 -1.6486
   66SAPC  C310 5517   5.450   2.932   3.737  0.4495  0.1851  0.8658
   66SAPC  H10X 5518   5.550   2.885   3.734 -0.0934 -0.9319 -0.3169
   66SAPC  H10Y 5519   5.382   2.862   3.683  0.4934  0.6815  0.1557
   66SAPC  C311 5520   5.396   2.968   3.876  0.9068 -0.4748 -0.5703
   66SAPC  H11X 5521   5.290   3.002   3.883  0.4683 -2.1005  0.8355
   66SAPC  H11Y 5522   5.464   3.045   3.917 -0.3867 -0.4764  1.6228
   66SAPC  C312 5523   5.408   2.845   3.973  0.8710 -0.3539 -0.1467
   66SAPC  H12X 5524   5.511   2.804   3.970  0.8798 -0.3253 -0.2355
   66SAPC  H12Y 5525   5.341   2.769   3.928  1.8756 -0.7514 -0.9968
   66SAPC  C313 5526   5.358   2.881   4.110 -0.1159  0.2023  0.2332
   66SAPC  H13X 5527   5.400   2.980   4.139 -0.2389 -0.2434  1.9832
   66SAPC  H13Y 5528   5.401   2.810   4.184  0.6276 -1.3222 -1.6169
   66SAPC  C314 5529   5.203   2.872   4.122  0.6367  0.5189 -0.3499
   66SAPC  H14X 5530   5.162   2.772   4.098 -1.8721  1.2903  0.4969
   66SAPC  H14Y 5531   5.157   2.952   4.060  0.5397  0.6634 -0.0934
   66SAPC  C315 5532   5.169   2.903   4.266 -0.8141  0.3175  0.6037
   66SAPC  H15X 5533   5.191   3.011   4.284  2.5582  0.1115 -1.8970
   66SAPC  H15Y 5534   5.232   2.839   4.331 -1.4423  0.2726  1.1809
   66SAPC  C316 5535   5.018   2.888   4.303 -0.3471  0.0113  0.2728
   66SAPC  H16X 5536   4.997   2.897   4.412 -0.5345 -1.1870  0.3470
   66SAPC  H16Y 5537   4.995   2.787   4.262  1.2568 -0.5061  0.6050
   66SAPC  C317 5538   4.915   2.984   4.234  0.3691 -0.0883 -0.1437
   66SAPC  H17X 5539   4.811   2.955   4.262  0.5563 -1.2018 -0.5917
   66SAPC  H17Y 5540   4.921   2.968   4.124 -2.1828  1.0797 -0.4772
   66SAPC  C318 5541   4.927   3.129   4.270  0.4416 -0.4254  0.2855
   66SAPC  H18X 5542   4.877   3.187   4.190  2.5652 -0.4794 -1.1363
   66SAPC  H18Y 5543   5.034   3.160   4.265  1.3379 -3.0233  2.1762
   66SAPC  H18Z 5544   4.885   3.148   4.371 -0.6716  0.6753 -0.3732
   67SAPC     N 5545   1.762   1.691   2.263 -0.5640 -0.4440  0.0065
   67SAPC   C12 5546   1.823   1.709   2.407  0.6175 -0.1016  0.0021
   67SAPC  H12A 5547   1.928   1.685   2.410  1.0699  1.9896  1.8228
   67SAPC  H12B 5548   1.775   1.641   2.475 -1.1160 -0.0569 -1.1411
   67SAPC   C13 5549   1.813   1.562   2.196  0.5854 -0.0885 -0.2443
   67SAPC  H13A 5550   1.778   1.551   2.094  1.3366 -0.9239 -0.4174
   67SAPC  H13B 5551   1.920   1.565   2.185  0.6531 -3.0427 -1.0294
   67SAPC  H13C 5552   1.794   1.481   2.265  1.4047  1.7026  2.1456
   67SAPC   C14 5553   1.612   1.675   2.275  0.1387 -0.2418 -0.6314
   67SAPC  H14A 5554   1.599   1.569   2.291  1.6748 -0.2620  0.6566
   67SAPC  H14B 5555   1.571   1.743   2.349  0.8336 -0.3554 -0.1419
   67SAPC  H14C 5556   1.548   1.712   2.196 -2.5440 -2.0308  0.6337
   67SAPC   C15 5557   1.792   1.808   2.182 -0.3126 -0.2065  0.4590
   67SAPC  H15A 5558   1.895   1.803   2.148  0.8598  0.9931  3.6115
   67SAPC  H15B 5559   1.733   1.802   2.092 -1.0057 -1.4676  0.9859
   67SAPC  H15C 5560   1.769   1.898   2.237  1.1208  0.2604  0.3181
   67SAPC   C11 5561   1.797   1.848   2.485  0.2247 -0.2849 -0.9314
   67SAPC  H11A 5562   1.869   1.920   2.442 -0.4480  0.6105 -0.5874
   67SAPC  H11B 5563   1.811   1.826   2.593  2.5293 -1.6108 -1.4724
   67SAPC     P 5564   1.617   2.029   2.427  0.0334 -0.4148  0.4327
   67SAPC   O13 5565   1.726   2.092   2.346 -0.5462  0.4092 -0.4136
   67SAPC   O14 5566   1.482   2.020   2.366 -0.1291  0.0364 -0.0913
   67SAPC   O12 5567   1.661   1.884   2.463 -0.3096  0.0153  0.3819
   67SAPC   O11 5568   1.598   2.103   2.570  0.0683 -0.3901  0.0617
   67SAPC    C1 5569   1.488   2.077   2.657  0.6097 -0.2158  0.2706
   67SAPC    HA 5570   1.445   1.974   2.653 -0.7385  0.2772  1.4424
   67SAPC    HB 5571   1.518   2.084   2.763 -1.0296 -0.6771  0.7923
   67SAPC    C2 5572   1.371   2.186   2.631 -0.7840  0.0480  0.7750
   67SAPC    HS 5573   1.397   2.227   2.531 -0.7151 -1.1409  0.2959
   67SAPC   O21 5574   1.394   2.294   2.724 -0.4300 -0.2981 -0.2547
   67SAPC   C21 5575   1.314   2.402   2.702 -0.5622  0.8704  0.0898
   67SAPC   O22 5576   1.249   2.423   2.601 -0.2899  0.2016 -0.3169
   67SAPC   C22 5577   1.316   2.498   2.825 -0.2989  0.2313 -0.1831
   67SAPC   H2R 5578   1.224   2.477   2.884 -0.8382 -0.1644 -1.1536
   67SAPC   H2S 5579   1.404   2.471   2.888  0.2864 -0.3830 -1.2458
   67SAPC    C3 5580   1.225   2.133   2.639  0.0466  0.4383 -0.1375
   67SAPC    HX 5581   1.210   2.057   2.559  5.2048 -1.9065  0.9399
   67SAPC    HY 5582   1.152   2.214   2.615  1.2152  0.8043 -2.6726
   67SAPC   O31 5583   1.213   2.064   2.767  0.4113  0.4030  0.2433
   67SAPC   C31 5584   1.128   2.121   2.852 -0.0402 -0.3881  0.1500
   67SAPC   O32 5585   1.035   2.197   2.824 -0.0849  0.2105 -0.0755
   67SAPC   C32 5586   1.142   2.059   2.989 -0.3003  0.2017  0.2664
   67SAPC   H2X 5587   1.234   1.995   2.984  0.7210  1.7428 -1.1884
   67SAPC   H2Y 5588   1.046   2.003   2.998 -0.0342 -0.5834 -1.4354
   67SAPC   C23 5589   1.311   2.639   2.786  0.9318  0.3483  0.2987
   67SAPC   H3R 5590   1.226   2.653   2.715  0.2308 -3.8121  0.1758
   67SAPC   H3S 5591   1.407   2.659   2.735  0.8570  1.5522  0.6276
   67SAPC   C24 5592   1.298   2.742   2.899 -0.1814 -0.1504 -0.0877
   67SAPC   H4R 5593   1.205   2.720   2.954 -0.4006 -2.3933 -1.2854
   67SAPC   H4S 5594   1.272   2.840   2.853 -1.4237 -1.1590 -1.5684
   67SAPC   C25 5595   1.427   2.746   2.974 -0.1272 -0.3195  0.1411
   67SAPC   H5R 5596   1.508   2.764   2.902 -0.6408  1.1102 -0.0826
   67SAPC   C26 5597   1.461   2.740   3.103  0.1089 -0.1321 -0.1858
   67SAPC   H6R 5598   1.566   2.740   3.136 -0.2081  0.5563  0.8627
   67SAPC   C27 5599   1.366   2.711   3.213  0.4981  0.3529 -0.6568
   67SAPC   H7R 5600   1.285   2.648   3.170  1.6837 -1.7992  0.1940
   67SAPC   H7S 5601   1.321   2.808   3.244  2.9816  1.2205  0.3567
   67SAPC   C28 5602   1.419   2.633   3.331 -0.3542 -0.1490 -0.0650
   67SAPC   H8R 5603   1.450   2.529   3.313  0.8281  0.3134 -0.7383
   67SAPC   C29 5604   1.444   2.683   3.455  0.0257 -0.5464 -0.6096
   67SAPC   H9R 5605   1.494   2.615   3.526 -0.7072  0.8260  1.2565
   67SAPC  C210 5606   1.420   2.822   3.508  0.4253  0.7909  0.4258
   67SAPC  H10R 5607   1.324   2.824   3.562 -0.2293 -2.2395 -0.5212
   67SAPC  H10S 5608   1.397   2.897   3.429  1.5714  1.9296  1.1347
   67SAPC  C211 5609   1.529   2.869   3.607 -0.5283  0.0086  0.7650
   67SAPC  H11R 5610   1.616   2.909   3.553  1.5189 -0.8639  3.2825
   67SAPC  C212 5611   1.526   2.860   3.741 -0.1855  0.3833  0.0755
   67SAPC  H12R 5612   1.613   2.907   3.789  0.5267 -0.2062 -0.6270
   67SAPC  C213 5613   1.419   2.800   3.823 -0.4785  0.3068  0.1608
   67SAPC  H13R 5614   1.369   2.727   3.755  1.2218  0.2681 -1.0654
   67SAPC  H13S 5615   1.340   2.877   3.835 -0.6504 -0.0002  1.0417
   67SAPC  C214 5616   1.446   2.724   3.953 -0.4571  0.2515  0.2897
   67SAPC  H14R 5617   1.457   2.615   3.941  1.3628  0.5453 -0.8592
   67SAPC  C215 5618   1.450   2.783   4.073  0.1135 -0.1025  0.6111
   67SAPC  H15R 5619   1.472   2.716   4.157 -0.0944 -1.0383 -0.0593
   67SAPC  C216 5620   1.428   2.927   4.117  0.1055 -0.0039 -0.4728
   67SAPC  H16R 5621   1.403   2.999   4.036  0.6259  1.7374  0.9030
   67SAPC  H16S 5622   1.523   2.964   4.162 -1.5842  1.6052  1.8424
   67SAPC  C217 5623   1.325   2.930   4.233  0.0665  0.3677 -0.0094
   67SAPC  H17R 5624   1.233   2.887   4.187  0.3392  1.8125 -1.9857
   67SAPC  H17S 5625   1.291   3.033   4.255  2.1977  1.2738 -0.7695
   67SAPC  C218 5626   1.361   2.862   4.365  0.0185 -0.0033  0.8225
   67SAPC  H18R 5627   1.449   2.917   4.404 -1.1227  1.3962  1.5083
   67SAPC  H18S 5628   1.378   2.753   4.355  0.2371  0.0800  0.2734
   67SAPC  C219 5629   1.250   2.885   4.470 -0.2850  0.7601  0.3797
   67SAPC  H19R 5630   1.159   2.824   4.451  0.2981  0.0860 -0.2352
   67SAPC  H19S 5631   1.207   2.988   4.476  1.6228  1.5665  0.5985
   67SAPC  C220 5632   1.308   2.847   4.610  0.7510  0.6122 -0.0582
   67SAPC  H20R 5633   1.418   2.838   4.620  0.5944 -1.5397  0.0268
   67SAPC  H20S 5634   1.276   2.741   4.625  1.3999  0.4867  0.4523
   67SAPC  H20T 5635   1.281   2.908   4.698  0.3085 -0.7457  0.7692
   67SAPC   C33 5636   1.158   2.168   3.094 -0.4231  1.1170 -0.2019
   67SAPC   H3X 5637   1.066   2.230   3.086 -0.6998  1.1836  2.6709
   67SAPC   H3Y 5638   1.238   2.245   3.088  1.4374 -0.6112  1.7013
   67SAPC   C34 5639   1.144   2.108   3.236  0.1629  0.4627  0.0193
   67SAPC   H4X 5640   1.237   2.049   3.252 -1.2150 -1.4599  1.1788
   67SAPC   H4Y 5641   1.059   2.038   3.248 -0.8901  1.5259 -1.0904
   67SAPC   C35 5642   1.150   2.209   3.351  0.1726  0.1778  0.6188
   67SAPC   H5X 5643   1.051   2.246   3.386 -0.0817 -2.0302  2.3860
   67SAPC   H5Y 5644   1.212   2.294   3.318 -0.5490 -0.4876 -2.5955
   67SAPC   C36 5645   1.223   2.144   3.468 -0.1229  0.1158  0.2612
   67SAPC   H6X 5646   1.331   2.130   3.445 -0.7986 -3.0828 -1.2569
   67SAPC   H6Y 5647   1.191   2.039   3.485 -0.5247  0.4169  1.3907
   67SAPC   C37 5648   1.210   2.216   3.594 -0.5167  0.1435 -0.5229
   67SAPC   H7X 5649   1.245   2.162   3.685 -1.6882  0.3453  0.0523
   67SAPC   H7Y 5650   1.099   2.219   3.602 -0.5818 -2.9299  0.2267
   67SAPC   C38 5651   1.284   2.356   3.597  0.4678  0.7782 -0.7911
   67SAPC   H8X 5652   1.238   2.423   3.521 -1.6693  4.0682  3.1776
   67SAPC   H8Y 5653   1.394   2.353   3.577  0.3788  1.5849 -1.4322
   67SAPC   C39 5654   1.272   2.441   3.728  0.2148  0.1093  0.6732
   67SAPC   H9X 5655   1.169   2.439   3.768  0.2846  1.4737  0.9390
   67SAPC   H9Y 5656   1.293   2.546   3.699  0.4593  0.1254  0.9031
   67SAPC  C310 5657   1.366   2.385   3.836 -0.6097  0.1778 -0.1806
   67SAPC  H10X 5658   1.321   2.286   3.859  0.0857 -0.1234 -0.0822
   67SAPC  H10Y 5659   1.351   2.449   3.925 -0.3424 -0.7813  0.5598
   67SAPC  C311 5660   1.515   2.391   3.802 -0.0703  0.0700 -0.3844
   67SAPC  H11X 5661   1.573   2.449   3.877 -0.3884 -0.6837  0.4543
   67SAPC  H11Y 5662   1.532   2.440   3.704 -0.3573  3.0633  1.0120
   67SAPC  C312 5663   1.583   2.246   3.791  0.0429 -0.6700 -0.3277
   67SAPC  H12X 5664   1.553   2.205   3.693  1.5833  0.2980 -1.2255
   67SAPC  H12Y 5665   1.538   2.174   3.864 -2.4730  0.6430 -0.5179
   67SAPC  C313 5666   1.732   2.252   3.783 -0.1317 -0.5508  0.3607
   67SAPC  H13X 5667   1.780   2.338   3.834  0.1968 -1.1075  1.0154
   67SAPC  H13Y 5668   1.757   2.252   3.675 -0.4766 -0.2015  0.2803
   67SAPC  C314 5669   1.791   2.119   3.837  0.2746  0.3375 -0.1884
   67SAPC  H14X 5670   1.723   2.035   3.810 -1.5457  1.3418  1.1227
   67SAPC  H14Y 5671   1.783   2.122   3.948  1.7935  1.3329 -0.0881
   67SAPC  C315 5672   1.930   2.101   3.797 -0.5409 -0.3297  0.4316
   67SAPC  H15X 5673   1.992   2.184   3.839 -2.2114  0.8361  0.6240
   67SAPC  H15Y 5674   1.938   2.111   3.687  1.8585 -0.9647  0.5064
   67SAPC  C316 5675   2.004   1.978   3.845 -0.3927 -0.1224 -0.0325
   67SAPC  H16X 5676   2.114   1.974   3.825 -0.6917  0.0997 -1.8158
   67SAPC  H16Y 5677   1.967   1.892   3.786 -0.1865 -1.1193  1.2596
   67SAPC  C317 5678   1.989   1.935   3.991 -0.0636  0.7242  0.1117
   67SAPC  H17X 5679   1.884   1.918   4.024 -0.5222  1.2389 -1.0371
   67SAPC  H17Y 5680   2.026   2.018   4.055 -0.2840  1.2442 -0.4352
   67SAPC  C318 5681   2.070   1.820   4.030 -0.6599 -0.2019  0.0156
   67SAPC  H18X 5682   2.161   1.810   3.968 -2.1532  0.5667 -2.3804
   67SAPC  H18Y 5683   2.019   1.725   4.003 -0.4538 -0.8501  1.7912
   67SAPC  H18Z 5684   2.090   1.813   4.139 -2.2034 -2.0092  0.2160
   68SAPC     N 5685   3.912   0.664   1.742 -1.5067  0.2755  0.4780
   68SAPC   C12 5686   3.921   0.591   1.874  0.5432 -0.1093  0.1900
   68SAPC  H12A 5687   3.919   0.486   1.849 -2.4517  0.2761 -1.4179
   68SAPC  H12B 5688   3.825   0.607   1.921  1.2756 -0.0909  1.7016
   68SAPC   C13 5689   3.818   0.592   1.652  0.2060 -0.3955 -0.5359
   68SAPC  H13A 5690   3.828   0.645   1.558 -0.0659 -0.4370 -0.5884
   68SAPC  H13B 5691   3.847   0.489   1.643  0.5302 -0.3497 -0.0549
   68SAPC  H13C 5692   3.713   0.590   1.676  0.4933 -3.2132  0.6987
   68SAPC   C14 5693   3.867   0.804   1.757 -0.5670 -0.1248  0.6475
   68SAPC  H14A 5694   3.928   0.861   1.825  1.7986 -0.5385 -1.0707
   68SAPC  H14B 5695   3.869   0.857   1.663 -2.2022 -0.2913  0.4979
   68SAPC  H14C 5696   3.765   0.811   1.792 -1.3113  0.0437 -1.4810
   68SAPC   C15 5697   4.050   0.680   1.691 -0.3379  0.2249  0.0876
   68SAPC  H15A 5698   4.070   0.757   1.619 -0.1376 -1.2782 -1.5133
   68SAPC  H15B 5699   4.102   0.714   1.779 -4.5127  2.9699  1.6734
   68SAPC  H15C 5700   4.089   0.586   1.654 -1.6293 -0.2916  0.0175
   68SAPC   C11 5701   4.033   0.611   1.978  0.3966 -0.1094  0.0038
   68SAPC  H11A 5702   4.129   0.576   1.935  1.3818  2.9844 -0.3818
   68SAPC  H11B 5703   4.008   0.542   2.062 -1.3403 -1.6211 -1.7036
   68SAPC     P 5704   3.958   0.814   2.129  0.3781 -0.2361  0.1713
   68SAPC   O13 5705   4.038   0.927   2.185  0.1794 -0.3906 -0.0363
   68SAPC   O14 5706   3.826   0.857   2.073 -0.0169 -0.0462  0.0324
   68SAPC   O12 5707   4.041   0.747   2.013  0.0267  0.4135  0.4295
   68SAPC   O11 5708   3.954   0.706   2.243 -0.6776 -0.1780  0.1939
   68SAPC    C1 5709   3.836   0.627   2.279  0.0000 -0.4840 -0.5581
   68SAPC    HA 5710   3.802   0.570   2.189  2.3569  1.9832 -3.0743
   68SAPC    HB 5711   3.873   0.553   2.353 -3.4682 -1.1874  0.5689
   68SAPC    C2 5712   3.720   0.711   2.346 -0.4720 -0.4207  0.3938
   68SAPC    HS 5713   3.669   0.751   2.256 -1.0525 -2.4608 -0.2036
   68SAPC   O21 5714   3.797   0.803   2.430  0.0313 -0.0491 -0.5624
   68SAPC   C21 5715   3.721   0.906   2.470  0.0329 -0.0677 -0.4212
   68SAPC   O22 5716   3.614   0.942   2.432 -0.4663  0.5839 -0.0516
   68SAPC   C22 5717   3.809   0.988   2.576  0.0609  0.3043 -0.1230
   68SAPC   H2R 5718   3.808   0.916   2.660  1.4958 -0.5334 -0.7975
   68SAPC   H2S 5719   3.914   0.992   2.540 -0.1454 -1.4658 -0.9862
   68SAPC    C3 5720   3.616   0.624   2.426  0.5880 -0.0972 -1.0455
   68SAPC    HX 5721   3.536   0.568   2.373  0.9155 -1.8218  0.2362
   68SAPC    HY 5722   3.553   0.697   2.482 -0.4961  0.6924 -3.2166
   68SAPC   O31 5723   3.674   0.529   2.516 -0.1381  0.1773  0.2076
   68SAPC   C31 5724   3.706   0.571   2.634 -0.4680 -0.2378  0.2096
   68SAPC   O32 5725   3.695   0.688   2.676 -0.2316  0.0693  0.5484
   68SAPC   C32 5726   3.779   0.463   2.713  0.0590  1.1303 -0.9814
   68SAPC   H2X 5727   3.887   0.482   2.694  0.4312  1.1449  1.0386
   68SAPC   H2Y 5728   3.742   0.363   2.682  0.7622  1.2582 -2.2772
   68SAPC   C23 5729   3.758   1.130   2.619  0.3917  0.0556 -0.1153
   68SAPC   H3R 5730   3.654   1.117   2.656  0.5473 -0.1104  0.2662
   68SAPC   H3S 5731   3.752   1.185   2.522  0.6712  0.5094  0.1192
   68SAPC   C24 5732   3.854   1.221   2.702  0.0199 -0.1509 -0.5409
   68SAPC   H4R 5733   3.939   1.242   2.634  0.7418  0.3988  0.5220
   68SAPC   H4S 5734   3.885   1.154   2.786 -0.5534 -0.8123 -0.8491
   68SAPC   C25 5735   3.782   1.348   2.739 -0.1877  0.4693 -0.1381
   68SAPC   H5R 5736   3.751   1.401   2.648  2.1109 -2.0305 -2.4953
   68SAPC   C26 5737   3.782   1.416   2.862  0.3549  0.3413  0.0810
   68SAPC   H6R 5738   3.707   1.495   2.876  0.8497  0.3193  3.1030
   68SAPC   C27 5739   3.847   1.366   2.993  0.9772 -0.5588  0.4414
   68SAPC   H7R 5740   3.930   1.296   2.971  0.8002 -1.0882  1.4120
   68SAPC   H7S 5741   3.775   1.311   3.058  0.3359  2.0334  2.0207
   68SAPC   C28 5742   3.900   1.485   3.070  0.2959  0.2545  0.1606
   68SAPC   H8R 5743   4.010   1.481   3.077  0.3138  1.1297  0.4705
   68SAPC   C29 5744   3.832   1.573   3.151  0.5620 -0.4324 -0.1576
   68SAPC   H9R 5745   3.886   1.659   3.194 -2.3373  2.1830 -1.5503
   68SAPC  C210 5746   3.687   1.575   3.183  0.0744  0.0236  0.1618
   68SAPC  H10R 5747   3.674   1.650   3.264  0.8099  1.1193 -0.7241
   68SAPC  H10S 5748   3.652   1.472   3.208  2.2814 -0.9843 -0.7118
   68SAPC  C211 5749   3.601   1.625   3.066  0.6403  0.7589 -0.1843
   68SAPC  H11R 5750   3.651   1.693   2.996 -1.5450  0.8784 -1.6963
   68SAPC  C212 5751   3.477   1.601   3.046 -0.2789 -0.2112  0.5368
   68SAPC  H12R 5752   3.429   1.648   2.960  0.6880 -1.2959 -0.6262
   68SAPC  C213 5753   3.386   1.516   3.131 -0.4811  0.0745  0.3325
   68SAPC  H13R 5754   3.300   1.577   3.165 -1.3955  1.2167 -3.7443
   68SAPC  H13S 5755   3.435   1.476   3.222  2.3397 -0.0309 -1.1629
   68SAPC  C214 5756   3.337   1.401   3.040  0.2596 -0.0477  0.1789
   68SAPC  H14R 5757   3.266   1.440   2.966 -1.5653  0.6317  2.2535
   68SAPC  C215 5758   3.368   1.273   3.055  0.5602  0.0224 -0.5009
   68SAPC  H15R 5759   3.318   1.198   2.991 -0.9561  0.0695  0.6108
   68SAPC  C216 5760   3.448   1.219   3.181 -0.5333  0.0280  0.0948
   68SAPC  H16R 5761   3.384   1.244   3.268 -0.7408 -0.1536 -0.0070
   68SAPC  H16S 5762   3.541   1.274   3.208 -0.2238  0.1609 -1.1739
   68SAPC  C217 5763   3.476   1.064   3.168  0.4770  0.4966  0.0580
   68SAPC  H17R 5764   3.529   1.033   3.075 -4.7543 -3.0142 -1.9455
   68SAPC  H17S 5765   3.370   1.031   3.167  0.2552  1.1432  1.3752
   68SAPC  C218 5766   3.545   1.009   3.296  0.4204 -0.2512 -0.0634
   68SAPC  H18R 5767   3.507   0.905   3.300 -1.3921  0.4642  2.1105
   68SAPC  H18S 5768   3.505   1.072   3.379 -1.7282 -0.3137 -1.0163
   68SAPC  C219 5769   3.702   1.017   3.292  0.5016  0.3056  0.0056
   68SAPC  H19R 5770   3.740   1.115   3.258 -0.1813  0.8775  0.8632
   68SAPC  H19S 5771   3.747   0.943   3.222  0.5323  0.4157 -0.0909
   68SAPC  C220 5772   3.761   0.985   3.435  0.5144  0.1433  0.2925
   68SAPC  H20R 5773   3.687   1.007   3.515  0.1547  2.4479 -0.6309
   68SAPC  H20S 5774   3.860   1.035   3.449  0.0959  1.4381 -1.3064
   68SAPC  H20T 5775   3.790   0.877   3.432  1.1299  0.3362 -1.5307
   68SAPC   C33 5776   3.755   0.471   2.871  0.0652  0.2153  0.1069
   68SAPC   H3X 5777   3.650   0.452   2.901 -0.9866  3.4321 -1.3331
   68SAPC   H3Y 5778   3.763   0.580   2.890 -0.4666  0.7500 -2.5737
   68SAPC   C34 5779   3.851   0.394   2.955  0.0040  0.5401 -0.3440
   68SAPC   H4X 5780   3.939   0.371   2.890 -1.2353 -0.5993 -1.6427
   68SAPC   H4Y 5781   3.808   0.293   2.965 -0.1828  0.4686 -1.7648
   68SAPC   C35 5782   3.886   0.450   3.094 -0.0175 -0.4086 -0.8438
   68SAPC   H5X 5783   3.799   0.499   3.142 -1.2835 -2.2567 -1.1885
   68SAPC   H5Y 5784   3.970   0.521   3.079 -0.4879 -0.4495 -3.9559
   68SAPC   C36 5785   3.934   0.333   3.185  0.0855 -0.8176  0.1220
   68SAPC   H6X 5786   4.028   0.305   3.133  0.2574  2.5080 -1.5147
   68SAPC   H6Y 5787   3.859   0.255   3.209 -1.0931  0.7866  1.7287
   68SAPC   C37 5788   3.989   0.386   3.318  1.1803  0.1315 -0.2762
   68SAPC   H7X 5789   4.057   0.473   3.308  1.6320 -0.1880  0.0401
   68SAPC   H7Y 5790   4.054   0.307   3.360  1.4977  0.8393  0.5814
   68SAPC   C38 5791   3.880   0.422   3.436 -0.3790  0.0986 -0.7752
   68SAPC   H8X 5792   3.798   0.348   3.426 -2.2070  1.8099  0.8881
   68SAPC   H8Y 5793   3.848   0.528   3.420 -1.6082 -0.1173  0.1477
   68SAPC   C39 5794   3.954   0.421   3.572 -0.1802  0.5377  0.2586
   68SAPC   H9X 5795   4.038   0.493   3.582  0.0873  0.3449 -0.6036
   68SAPC   H9Y 5796   4.000   0.322   3.592  1.8875  1.3581 -0.3218
   68SAPC  C310 5797   3.861   0.455   3.687 -0.4076  0.1124 -0.5596
   68SAPC  H10X 5798   3.805   0.363   3.712  0.3325  0.3438  2.1649
   68SAPC  H10Y 5799   3.797   0.545   3.675 -0.3211  0.3180  0.4496
   68SAPC  C311 5800   3.943   0.489   3.811 -0.0186 -0.5221  0.4315
   68SAPC  H11X 5801   4.018   0.413   3.840  0.6800 -0.2032 -0.5029
   68SAPC  H11Y 5802   3.872   0.490   3.896 -0.2393  0.0481  0.2472
   68SAPC  C312 5803   4.021   0.619   3.819  0.1190  0.9962 -0.5939
   68SAPC  H12X 5804   3.997   0.695   3.742  0.2284  1.2316 -0.3942
   68SAPC  H12Y 5805   4.122   0.591   3.784 -0.1672 -1.6617  0.5173
   68SAPC  C313 5806   4.024   0.673   3.966  0.5921  0.5359  0.1527
   68SAPC  H13X 5807   4.100   0.754   3.970 -0.1820  1.2578  0.3602
   68SAPC  H13Y 5808   4.064   0.591   4.029  0.4153 -0.1654 -0.6312
   68SAPC  C314 5809   3.895   0.735   4.005 -0.0077 -0.5631 -0.1288
   68SAPC  H14X 5810   3.816   0.660   4.026  1.6891 -1.0833  5.0374
   68SAPC  H14Y 5811   3.868   0.813   3.930  1.1618 -1.5412 -1.6056
   68SAPC  C315 5812   3.899   0.806   4.139  0.0864 -0.4053  0.0455
   68SAPC  H15X 5813   3.806   0.864   4.159  0.7874  0.5872  0.4658
   68SAPC  H15Y 5814   3.977   0.884   4.126  0.4203 -0.7335  0.0710
   68SAPC  C316 5815   3.923   0.709   4.257 -0.1311 -0.6350 -0.2497
   68SAPC  H16X 5816   4.023   0.661   4.261 -1.5714 -4.0646 -2.3250
   68SAPC  H16Y 5817   3.851   0.626   4.237 -1.0938 -0.1331  1.0806
   68SAPC  C317 5818   3.899   0.777   4.388  0.0600 -0.7664  0.5647
   68SAPC  H17X 5819   3.907   0.707   4.474 -0.0877  0.0486  1.2500
   68SAPC  H17Y 5820   3.791   0.803   4.394 -0.4854 -2.7268 -0.5570
   68SAPC  C318 5821   3.994   0.900   4.423 -0.1554 -0.4227  0.0114
   68SAPC  H18X 5822   4.099   0.903   4.384 -0.6050 -0.4568 -1.2395
   68SAPC  H18Y 5823   4.004   0.917   4.532 -0.2837 -0.3927  0.0172
   68SAPC  H18Z 5824   3.940   0.985   4.376  0.9360 -0.4038 -1.2417
   69SAPC     N 5825   3.976   6.592   2.332  0.0263  0.9043  0.3863
   69SAPC   C12 5826   4.028   6.500   2.226 -0.8209  0.2238 -0.0412
   69SAPC  H12A 5827   4.099   6.559   2.170 -0.8897  1.5397  1.2628
   69SAPC  H12B 5828   3.948   6.471   2.159 -1.8734  2.4741  0.2152
   69SAPC   C13 5829   3.895   6.704   2.262 -0.6919  0.0725 -0.5919
   69SAPC  H13A 5830   3.813   6.666   2.203 -2.2793 -1.6043  2.5631
   69SAPC  H13B 5831   3.853   6.764   2.341  2.3191 -0.4849  1.5356
   69SAPC  H13C 5832   3.962   6.765   2.202 -1.6215  0.1196 -1.5998
   69SAPC   C14 5833   3.878   6.520   2.413 -0.1789  0.4045 -0.5975
   69SAPC  H14A 5834   3.930   6.433   2.452 -1.7498 -1.2560 -2.0799
   69SAPC  H14B 5835   3.833   6.576   2.494  1.3005  0.2816  0.3368
   69SAPC  H14C 5836   3.801   6.485   2.346  0.3201 -3.2021  0.5977
   69SAPC   C15 5837   4.091   6.653   2.406  0.0827 -0.4231  0.0740
   69SAPC  H15A 5838   4.133   6.584   2.477 -0.2591  1.0928  1.7959
   69SAPC  H15B 5839   4.162   6.702   2.341 -2.5267  3.9396  0.3250
   69SAPC  H15C 5840   4.051   6.729   2.471 -1.0823 -1.3226  0.4430
   69SAPC   C11 5841   4.086   6.370   2.279  0.8047 -0.4103  0.1462
   69SAPC  H11A 5842   4.019   6.310   2.344  0.6110 -0.8104 -0.4185
   69SAPC  H11B 5843   4.174   6.398   2.341 -1.5340  1.5224  2.6865
   69SAPC     P 5844   4.234   6.344   2.064  0.2117  0.1194  0.3689
   69SAPC   O13 5845   4.299   6.222   2.009 -0.1104  0.1980  0.1522
   69SAPC   O14 5846   4.165   6.427   1.970  0.5194  0.2589  0.0873
   69SAPC   O12 5847   4.122   6.294   2.171 -1.1540 -0.6417 -0.1270
   69SAPC   O11 5848   4.332   6.428   2.142 -0.2178  0.0712  0.3962
   69SAPC    C1 5849   4.421   6.377   2.241 -0.3734  0.1709  0.7512
   69SAPC    HA 5850   4.373   6.321   2.325 -0.5571 -2.1798 -0.8739
   69SAPC    HB 5851   4.499   6.309   2.202  1.1730  2.5822 -0.4935
   69SAPC    C2 5852   4.494   6.500   2.318 -0.1103  0.2417  0.3861
   69SAPC    HS 5853   4.603   6.491   2.299 -0.4224 -0.6010 -1.0125
   69SAPC   O21 5854   4.454   6.495   2.454  0.4208 -0.0771 -0.7101
   69SAPC   C21 5855   4.545   6.527   2.543  0.8274  0.5148  0.3651
   69SAPC   O22 5856   4.663   6.553   2.523 -1.0194  0.2841 -0.1287
   69SAPC   C22 5857   4.467   6.547   2.673  1.1822 -0.1319 -0.7648
   69SAPC   H2R 5858   4.383   6.618   2.655  1.0497 -0.1822 -0.3413
   69SAPC   H2S 5859   4.427   6.447   2.699  0.8146 -0.1595 -1.4016
   69SAPC    C3 5860   4.453   6.632   2.264  0.2750  0.4757 -0.2364
   69SAPC    HX 5861   4.342   6.641   2.264  0.2202  0.0720 -1.9203
   69SAPC    HY 5862   4.482   6.613   2.158 -0.6167 -0.2884 -0.3511
   69SAPC   O31 5863   4.526   6.733   2.331 -0.2162 -0.3273  0.1474
   69SAPC   C31 5864   4.464   6.791   2.428  0.4315  0.1518 -0.4160
   69SAPC   O32 5865   4.353   6.779   2.464  0.2047  0.5640 -0.1612
   69SAPC   C32 5866   4.560   6.889   2.495  0.2770  0.1186 -0.8146
   69SAPC   H2X 5867   4.581   6.974   2.428  0.4500  0.0039 -0.9069
   69SAPC   H2Y 5868   4.661   6.848   2.517 -0.5544 -0.4264  2.1666
   69SAPC   C23 5869   4.550   6.595   2.794 -0.1770  0.6235 -0.4493
   69SAPC   H3R 5870   4.603   6.691   2.779  3.4396 -0.9471  1.6138
   69SAPC   H3S 5871   4.621   6.515   2.824 -2.1571 -0.0903  2.6560
   69SAPC   C24 5872   4.451   6.629   2.907 -0.2050  0.3254 -0.6374
   69SAPC   H4R 5873   4.385   6.705   2.859  0.2610 -0.5149 -2.6734
   69SAPC   H4S 5874   4.513   6.684   2.982 -1.4583  2.0147 -0.7998
   69SAPC   C25 5875   4.392   6.513   2.986 -0.4346 -0.1487  0.1339
   69SAPC   H5R 5876   4.463   6.452   3.044  1.5874 -2.0050 -4.1332
   69SAPC   C26 5877   4.262   6.478   2.988 -0.1735  0.0381  0.3882
   69SAPC   H6R 5878   4.234   6.385   3.041 -0.4798  0.2898  0.6649
   69SAPC   C27 5879   4.152   6.547   2.909 -0.5291 -0.1275  0.1734
   69SAPC   H7R 5880   4.185   6.648   2.874 -1.4453 -0.0525 -0.5058
   69SAPC   H7S 5881   4.067   6.566   2.978  0.2177  0.3642  0.9642
   69SAPC   C28 5882   4.112   6.460   2.790 -0.6290  0.4471 -0.2575
   69SAPC   H8R 5883   4.197   6.439   2.723  2.2684  2.5035  2.6171
   69SAPC   C29 5884   3.987   6.425   2.745 -0.3965  0.1802  0.1346
   69SAPC   H9R 5885   3.987   6.360   2.656  1.2083  0.7535 -0.3050
   69SAPC  C210 5886   3.862   6.471   2.808 -1.3281  0.6970 -0.0109
   69SAPC  H10R 5887   3.892   6.506   2.909 -1.0779 -1.4386  0.6927
   69SAPC  H10S 5888   3.798   6.381   2.818 -0.1570 -0.3501 -1.5489
   69SAPC  C211 5889   3.807   6.591   2.738  0.5738  0.4168 -0.0358
   69SAPC  H11R 5890   3.882   6.664   2.706  0.2146  1.1988  0.8729
   69SAPC  C212 5891   3.677   6.624   2.721  0.2401  0.6571  0.6390
   69SAPC  H12R 5892   3.654   6.709   2.655  0.7725  0.4808  0.2258
   69SAPC  C213 5893   3.554   6.547   2.774  0.3003 -0.0367  0.3316
   69SAPC  H13R 5894   3.593   6.446   2.801  0.6955  0.3675  1.3037
   69SAPC  H13S 5895   3.481   6.522   2.694 -0.1336  1.4883  0.2258
   69SAPC  C214 5896   3.469   6.604   2.884  0.0254  0.3658 -0.2293
   69SAPC  H14R 5897   3.394   6.669   2.838 -0.6617 -1.3375 -1.5588
   69SAPC  C215 5898   3.468   6.582   3.021 -0.8944 -0.1643 -0.0350
   69SAPC  H15R 5899   3.399   6.638   3.085 -0.1521 -0.2451  0.8401
   69SAPC  C216 5900   3.550   6.479   3.090  0.5433 -0.7742  0.0161
   69SAPC  H16R 5901   3.654   6.477   3.052  1.1862 -0.5181  1.7476
   69SAPC  H16S 5902   3.509   6.380   3.060  0.7386  0.0736 -3.2736
   69SAPC  C217 5903   3.572   6.504   3.238 -0.6139 -0.0907  0.4586
   69SAPC  H17R 5904   3.473   6.515   3.288 -0.5766 -1.5751  0.8861
   69SAPC  H17S 5905   3.631   6.597   3.251 -1.0779  0.2012  0.5001
   69SAPC  C218 5906   3.643   6.381   3.305 -0.1946  0.4751 -0.3742
   69SAPC  H18R 5907   3.582   6.290   3.290  1.7127 -0.8637 -0.2134
   69SAPC  H18S 5908   3.665   6.409   3.411  0.9275  2.7153 -1.1476
   69SAPC  C219 5909   3.787   6.349   3.240 -0.8108  0.0616 -0.2066
   69SAPC  H19R 5910   3.785   6.312   3.136  1.6042 -0.1205 -0.2136
   69SAPC  H19S 5911   3.831   6.277   3.313 -0.3025 -1.0102 -1.5665
   69SAPC  C220 5912   3.881   6.474   3.242  0.8220  0.6249  0.2668
   69SAPC  H20R 5913   3.985   6.449   3.212  1.3664  1.7452  1.1738
   69SAPC  H20S 5914   3.896   6.500   3.349  1.2675 -1.7196  0.7970
   69SAPC  H20T 5915   3.858   6.568   3.189 -1.2808 -0.8283 -1.4830
   69SAPC   C33 5916   4.498   6.953   2.626  0.2237 -0.2654 -0.8944
   69SAPC   H3X 5917   4.453   6.873   2.690  0.2356  1.5216  1.4202
   69SAPC   H3Y 5918   4.423   7.026   2.590 -0.7960 -0.4525  0.7894
   69SAPC   C34 5919   4.604   7.024   2.706 -0.1007 -0.3159 -0.4043
   69SAPC   H4X 5920   4.647   7.106   2.644 -0.5584  0.0471 -0.2456
   69SAPC   H4Y 5921   4.684   6.957   2.743 -0.0313 -0.9454 -1.6682
   69SAPC   C35 5922   4.527   7.092   2.821 -0.7406 -0.4057 -0.3790
   69SAPC   H5X 5923   4.425   7.129   2.797 -0.0581  1.8859  0.1674
   69SAPC   H5Y 5924   4.590   7.177   2.854 -2.5557  0.5966  0.6022
   69SAPC   C36 5925   4.512   7.006   2.946 -0.1431  0.4676 -0.4617
   69SAPC   H6X 5926   4.616   6.972   2.969  0.7408  3.3832  0.0881
   69SAPC   H6Y 5927   4.441   6.923   2.926 -2.0667  1.7171  1.0399
   69SAPC   C37 5928   4.464   7.088   3.071 -0.3147  0.4404 -0.4436
   69SAPC   H7X 5929   4.373   7.145   3.044 -0.1539  0.4837 -0.8822
   69SAPC   H7Y 5930   4.539   7.158   3.113 -1.5779  0.3871  2.0504
   69SAPC   C38 5931   4.433   7.001   3.193  0.0250 -0.3938 -0.3251
   69SAPC   H8X 5932   4.524   6.941   3.215 -0.6110 -1.6235 -0.9815
   69SAPC   H8Y 5933   4.357   6.926   3.163 -2.5572  2.4109 -0.9612
   69SAPC   C39 5934   4.379   7.079   3.316 -0.4958 -0.2024 -0.2578
   69SAPC   H9X 5935   4.286   7.127   3.278 -0.3787 -0.3643 -0.7464
   69SAPC   H9Y 5936   4.455   7.154   3.345  0.0249 -0.4769 -0.8918
   69SAPC  C310 5937   4.371   6.996   3.449  0.1819  0.3856 -0.4329
   69SAPC  H10X 5938   4.469   6.951   3.473  1.2923  3.0780  0.2781
   69SAPC  H10Y 5939   4.308   6.909   3.418  0.8138  0.1011 -0.9251
   69SAPC  C311 5940   4.310   7.079   3.562  0.5891 -0.5495 -0.0573
   69SAPC  H11X 5941   4.202   7.095   3.542  0.5028  2.1339  2.3192
   69SAPC  H11Y 5942   4.355   7.179   3.582  1.5071 -0.6773 -1.3941
   69SAPC  C312 5943   4.324   7.001   3.692  0.6270 -0.0071  0.5422
   69SAPC  H12X 5944   4.425   6.962   3.716  0.8393  0.6491  0.7228
   69SAPC  H12Y 5945   4.263   6.910   3.673 -1.2584  1.5323 -0.9769
   69SAPC  C313 5946   4.266   7.070   3.811  0.4120  0.2289 -0.1883
   69SAPC  H13X 5947   4.171   7.119   3.782  0.6308  0.5951 -0.2911
   69SAPC  H13Y 5948   4.333   7.156   3.836  1.0549 -1.2519  3.4439
   69SAPC  C314 5949   4.261   6.976   3.936  0.2946  0.1702 -0.0647
   69SAPC  H14X 5950   4.229   7.041   4.020 -2.2600 -2.2534  0.9016
   69SAPC  H14Y 5951   4.359   6.935   3.970 -0.3159  0.2199  1.8291
   69SAPC  C315 5952   4.152   6.866   3.929 -0.4157  0.4822 -0.1430
   69SAPC  H15X 5953   4.165   6.789   4.008 -0.6179 -0.4203 -0.9774
   69SAPC  H15Y 5954   4.171   6.815   3.831 -1.2005 -2.1321  1.0193
   69SAPC  C316 5955   4.011   6.915   3.929  0.0520  0.0652 -0.1131
   69SAPC  H16X 5956   3.940   6.850   3.873 -1.4611  1.9207 -0.4038
   69SAPC  H16Y 5957   3.998   7.017   3.885 -0.1276  0.4307  0.7850
   69SAPC  C317 5958   3.959   6.929   4.075  0.0770 -0.3863  0.6909
   69SAPC  H17X 5959   4.017   7.005   4.131 -0.2347 -0.3221  0.9306
   69SAPC  H17Y 5960   3.978   6.836   4.132  0.4200 -0.8111 -0.1092
   69SAPC  C318 5961   3.809   6.968   4.083  0.4192  0.4385  0.2762
   69SAPC  H18X 5962   3.775   7.007   4.182  1.0010 -1.4017  1.2180
   69SAPC  H18Y 5963   3.745   6.881   4.060 -0.9161  1.8070 -1.3583
   69SAPC  H18Z 5964   3.791   7.046   4.005  2.5642 -0.6886 -1.3679
   70SAPC     N 5965   6.792   3.893   1.834 -0.6219  0.1829  0.3548
   70SAPC   C12 5966   6.918   3.941   1.902  0.0609  0.4790  0.3622
   70SAPC  H12A 5967   6.897   4.045   1.921  0.0026  0.6756 -0.7527
   70SAPC  H12B 5968   7.002   3.938   1.834  0.6161  3.1136  0.8755
   70SAPC   C13 5969   6.813   3.761   1.772 -0.0698  0.5311 -0.4828
   70SAPC  H13A 5970   6.730   3.736   1.708  1.5361 -1.3298 -1.9132
   70SAPC  H13B 5971   6.897   3.777   1.706 -0.7134 -0.3877 -1.5387
   70SAPC  H13C 5972   6.837   3.681   1.841 -0.2857  0.9500  0.0823
   70SAPC   C14 5973   6.674   3.877   1.932  0.9454  0.4211  1.1032
   70SAPC  H14A 5974   6.576   3.867   1.887  1.2395 -2.9458  1.0753
   70SAPC  H14B 5975   6.686   3.800   2.006  0.7224 -1.6858 -0.9680
   70SAPC  H14C 5976   6.676   3.971   1.985 -0.7696  0.3267  1.3741
   70SAPC   C15 5977   6.743   3.997   1.732 -0.0281 -0.6209  0.3827
   70SAPC  H15A 5978   6.718   4.090   1.781  2.2332 -0.6307  1.5704
   70SAPC  H15B 5979   6.805   3.997   1.644 -0.6067 -0.0173 -0.0367
   70SAPC  H15C 5980   6.644   3.975   1.693  0.4004  1.5373 -2.0737
   70SAPC   C11 5981   6.941   3.871   2.037  0.0333  0.4048 -0.8097
   70SAPC  H11A 5982   6.926   3.762   2.022  1.6742  0.1891 -1.0737
   70SAPC  H11B 5983   6.859   3.894   2.107  0.4266  0.0283 -0.2254
   70SAPC     P 5984   7.084   4.052   2.160  0.3216  0.0429 -0.0489
   70SAPC   O13 5985   7.224   4.047   2.200 -0.1472  0.3411  0.3415
   70SAPC   O14 5986   7.049   4.151   2.058 -0.0400  0.3067 -0.6497
   70SAPC   O12 5987   7.065   3.904   2.101 -0.5221  0.2694  0.0502
   70SAPC   O11 5988   6.982   4.066   2.281 -0.0159 -0.6028 -0.6240
   70SAPC    C1 5989   6.997   4.008   2.407 -0.3160 -0.0050 -0.0926
   70SAPC    HA 5990   7.103   3.995   2.437 -0.4332 -0.3371  0.1880
   70SAPC    HB 5991   6.955   4.066   2.492 -0.6735 -0.8036  0.2841
   70SAPC    C2 5992   6.939   3.866   2.408  0.3259 -0.3748 -0.5921
   70SAPC    HS 5993   6.878   3.854   2.315  0.0163 -0.2418 -0.4088
   70SAPC   O21 5994   6.859   3.852   2.526 -0.1213 -0.0157 -0.6965
   70SAPC   C21 5995   6.782   3.750   2.549  0.4131  0.6974  0.7935
   70SAPC   O22 5996   6.772   3.656   2.472 -0.0206  0.0618 -0.3123
   70SAPC   C22 5997   6.719   3.767   2.688  0.2617 -0.3931  0.1313
   70SAPC   H2R 5998   6.794   3.727   2.759 -0.1993 -1.4519  0.0341
   70SAPC   H2S 5999   6.714   3.876   2.710  1.9588 -0.5807  1.5450
   70SAPC    C3 6000   7.040   3.751   2.386  0.2819 -0.0622  1.0658
   70SAPC    HX 6001   7.062   3.749   2.277  0.7742 -0.5135  1.1664
   70SAPC    HY 6002   6.987   3.655   2.406 -1.9318  1.0065  0.4612
   70SAPC   O31 6003   7.163   3.765   2.452  0.6345  0.0823 -0.0764
   70SAPC   C31 6004   7.277   3.704   2.422 -0.2982 -0.1366  0.6757
   70SAPC   O32 6005   7.292   3.631   2.320  0.1832 -0.5428 -0.5298
   70SAPC   C32 6006   7.381   3.739   2.524  0.4107  0.6574  0.3878
   70SAPC   H2X 6007   7.359   3.829   2.586 -1.9449  0.3020  0.1067
   70SAPC   H2Y 6008   7.467   3.764   2.457  1.0142 -3.3566 -0.4447
   70SAPC   C23 6009   6.581   3.690   2.697  0.1591  0.8561  0.6700
   70SAPC   H3R 6010   6.591   3.580   2.696  0.3590  0.8793 -0.9102
   70SAPC   H3S 6011   6.517   3.719   2.610 -2.1148 -0.2543  1.9298
   70SAPC   C24 6012   6.505   3.731   2.831  0.3772  0.2556  0.8736
   70SAPC   H4R 6013   6.559   3.692   2.919  2.3765 -1.4130 -1.0118
   70SAPC   H4S 6014   6.409   3.676   2.821  0.5093 -0.0351  1.2061
   70SAPC   C25 6015   6.489   3.884   2.835  0.1006  0.9319  0.9974
   70SAPC   H5R 6016   6.439   3.927   2.748 -0.0869  0.0875  0.6965
   70SAPC   C26 6017   6.536   3.961   2.935  0.2377  0.9247 -0.2527
   70SAPC   H6R 6018   6.512   4.068   2.928 -1.0833  0.6489  0.0532
   70SAPC   C27 6019   6.608   3.926   3.065  0.2167  0.1544 -0.0143
   70SAPC   H7R 6020   6.711   3.895   3.038 -0.2073 -0.6676 -0.7075
   70SAPC   H7S 6021   6.575   3.824   3.094  0.8351 -0.3498 -1.0461
   70SAPC   C28 6022   6.599   4.037   3.169  0.0126  0.2961 -1.2503
   70SAPC   H8R 6023   6.517   4.110   3.168  0.8734  1.3544  0.9459
   70SAPC   C29 6024   6.687   4.059   3.271  0.3622  0.7556  0.4556
   70SAPC   H9R 6025   6.669   4.138   3.346 -0.1304  1.9056 -0.8342
   70SAPC  C210 6026   6.815   3.972   3.292  0.2098 -0.5432  0.4538
   70SAPC  H10R 6027   6.906   4.024   3.255 -1.5743  0.8182 -2.1983
   70SAPC  H10S 6028   6.814   3.876   3.237  2.0020  0.5048 -1.4519
   70SAPC  C211 6029   6.844   3.922   3.433 -0.0474 -0.5799 -0.2500
   70SAPC  H11R 6030   6.816   3.815   3.442  1.7533 -0.9007  1.9069
   70SAPC  C212 6031   6.894   3.989   3.540  0.6449  0.1448  0.6347
   70SAPC  H12R 6032   6.885   3.935   3.635 -0.4123 -1.2592 -0.2272
   70SAPC  C213 6033   6.932   4.128   3.544  0.0124  0.0142 -0.6570
   70SAPC  H13R 6034   6.914   4.175   3.445 -0.4473  0.7109 -0.2468
   70SAPC  H13S 6035   7.040   4.126   3.572 -0.3236  0.8010  0.7022
   70SAPC  C214 6036   6.849   4.208   3.645 -0.3406  0.9716 -0.0426
   70SAPC  H14R 6037   6.744   4.178   3.639  0.2379 -1.2810  0.5357
   70SAPC  C215 6038   6.897   4.299   3.728  0.4658  0.0804 -0.1226
   70SAPC  H15R 6039   6.819   4.351   3.786  0.9650  1.3985 -0.6007
   70SAPC  C216 6040   7.035   4.351   3.763  1.0281 -0.1002 -0.7858
   70SAPC  H16R 6041   7.051   4.453   3.723 -1.4782  0.6349 -0.0418
   70SAPC  H16S 6042   7.117   4.286   3.726  0.1408 -0.0268 -2.9215
   70SAPC  C217 6043   7.035   4.369   3.918 -0.1852  0.6117 -0.3966
   70SAPC  H17R 6044   6.955   4.436   3.957 -0.5425 -1.7730  3.2694
   70SAPC  H17S 6045   7.130   4.418   3.949 -1.4002  2.0371  1.2720
   70SAPC  C218 6046   7.030   4.235   3.994  0.1626 -0.3787 -1.0817
   70SAPC  H18R 6047   6.929   4.189   3.982 -1.4638  2.0987  2.3663
   70SAPC  H18S 6048   7.039   4.253   4.103  1.8930 -1.5931 -1.0028
   70SAPC  C219 6049   7.136   4.133   3.948 -0.2124 -0.4222 -0.5963
   70SAPC  H19R 6050   7.235   4.176   3.924 -0.7095  0.5259 -0.9496
   70SAPC  H19S 6051   7.091   4.076   3.864  2.5511 -0.8976 -1.7987
   70SAPC  C220 6052   7.171   4.038   4.063  0.3666  0.0111  0.0808
   70SAPC  H20R 6053   7.082   3.984   4.102  0.6657  0.3317  1.2384
   70SAPC  H20S 6054   7.215   4.100   4.145 -1.1984  2.0027 -0.5572
   70SAPC  H20T 6055   7.251   3.967   4.031  0.6493 -1.1033  3.0507
   70SAPC   C33 6056   7.421   3.621   2.614 -1.2250 -0.0868 -0.2525
   70SAPC   H3X 6057   7.444   3.526   2.559  0.0242  2.0736 -3.6561
   70SAPC   H3Y 6058   7.331   3.597   2.673 -1.7751  1.1743 -0.5664
   70SAPC   C34 6059   7.535   3.653   2.709 -0.4355  0.3929 -0.8710
   70SAPC   H4X 6060   7.533   3.758   2.746  1.9431  1.0972 -2.6338
   70SAPC   H4Y 6061   7.627   3.619   2.655 -0.6140 -0.5654 -0.5840
   70SAPC   C35 6062   7.531   3.560   2.829  0.1869 -0.3102 -1.0767
   70SAPC   H5X 6063   7.556   3.456   2.799  0.3181  0.1619 -2.6741
   70SAPC   H5Y 6064   7.432   3.543   2.876  1.1046 -1.8635  0.3636
   70SAPC   C36 6065   7.620   3.608   2.945 -1.1930 -0.0533  0.2045
   70SAPC   H6X 6066   7.728   3.610   2.918 -1.1279  0.3716  0.4898
   70SAPC   H6Y 6067   7.609   3.540   3.032  0.4484 -0.4819  0.0939
   70SAPC   C37 6068   7.582   3.757   2.981  0.4016 -0.7497 -0.7475
   70SAPC   H7X 6069   7.616   3.834   2.909 -0.1261 -1.1900 -1.4756
   70SAPC   H7Y 6070   7.471   3.764   2.980  0.4302  0.3435  0.9099
   70SAPC   C38 6071   7.626   3.799   3.122 -0.6916 -0.2600 -0.1748
   70SAPC   H8X 6072   7.730   3.761   3.126  0.2329  1.7922 -2.9743
   70SAPC   H8Y 6073   7.560   3.756   3.200 -1.5630  1.5962  0.1459
   70SAPC   C39 6074   7.621   3.947   3.160  0.2438 -0.5822 -0.3301
   70SAPC   H9X 6075   7.698   4.005   3.104  0.3568 -2.2645 -1.9381
   70SAPC   H9Y 6076   7.655   3.963   3.265 -1.1053  3.4559 -0.4067
   70SAPC  C310 6077   7.473   4.000   3.138 -0.4478 -0.5457 -0.2190
   70SAPC  H10X 6078   7.417   3.920   3.190  1.2668 -1.9466 -0.4870
   70SAPC  H10Y 6079   7.446   3.990   3.031 -1.7173 -0.0924  0.0494
   70SAPC  C311 6080   7.450   4.143   3.206  0.2884  0.6003 -0.4389
   70SAPC  H11X 6081   7.525   4.215   3.167  1.7164 -0.1498  0.8479
   70SAPC  H11Y 6082   7.488   4.126   3.309  2.3191  1.5600 -0.9970
   70SAPC  C312 6083   7.311   4.186   3.191  0.5064 -0.0126  0.5779
   70SAPC  H12X 6084   7.235   4.112   3.224 -1.3480  1.8078  0.4560
   70SAPC  H12Y 6085   7.275   4.204   3.088  0.8970 -1.4437  0.1744
   70SAPC  C313 6086   7.281   4.312   3.278  0.0954  0.2580 -0.5357
   70SAPC  H13X 6087   7.334   4.398   3.231  1.5780 -0.2916  0.1080
   70SAPC  H13Y 6088   7.322   4.299   3.381 -0.3447  0.6496 -0.3090
   70SAPC  C314 6089   7.130   4.350   3.294  0.4406 -0.4843  0.1832
   70SAPC  H14X 6090   7.085   4.253   3.326  1.0261 -0.2202  1.8642
   70SAPC  H14Y 6091   7.091   4.355   3.190 -1.4233 -2.5657  0.7424
   70SAPC  C315 6092   7.102   4.465   3.390 -0.4316 -0.0525  1.1576
   70SAPC  H15X 6093   7.156   4.556   3.354  0.8448 -0.9149  0.8389
   70SAPC  H15Y 6094   7.138   4.447   3.494 -2.3353 -1.7929  1.5382
   70SAPC  C316 6095   6.955   4.500   3.390 -0.1547 -0.1281 -0.5411
   70SAPC  H16X 6096   6.902   4.406   3.414  2.5291 -1.7490 -0.7469
   70SAPC  H16Y 6097   6.931   4.525   3.285  0.9188 -0.8477 -0.9621
   70SAPC  C317 6098   6.920   4.617   3.482  0.2035  0.0740  0.0959
   70SAPC  H17X 6099   7.007   4.682   3.506  0.6426 -0.7950  0.8435
   70SAPC  H17Y 6100   6.902   4.578   3.584  0.4643  0.1530  0.1725
   70SAPC  C318 6101   6.803   4.696   3.424  0.0661 -0.3252 -0.0723
   70SAPC  H18X 6102   6.782   4.792   3.476  2.3235  0.8442 -1.2557
   70SAPC  H18Y 6103   6.711   4.635   3.423 -0.2426  0.1443 -0.6209
   70SAPC  H18Z 6104   6.810   4.719   3.316  2.4683  0.4912  0.2246
   71SAPC     N 6105   5.491   1.004   2.356  0.3161 -0.1729 -0.1569
   71SAPC   C12 6106   5.492   0.865   2.421  0.4628  0.1917  0.1394
   71SAPC  H12A 6107   5.501   0.790   2.344 -0.8855  0.0458  0.1007
   71SAPC  H12B 6108   5.393   0.865   2.464 -0.4106 -0.0057 -1.8166
   71SAPC   C13 6109   5.368   1.010   2.280  0.4132 -0.6551 -0.1293
   71SAPC  H13A 6110   5.284   0.998   2.348  0.1166 -0.5962 -0.4866
   71SAPC  H13B 6111   5.353   1.112   2.248 -0.4638 -0.6941  0.1492
   71SAPC  H13C 6112   5.367   0.944   2.195 -2.1015  1.5609 -1.9200
   71SAPC   C14 6113   5.478   1.108   2.463  0.3338  0.4654  0.2719
   71SAPC  H14A 6114   5.396   1.080   2.527  1.2128  0.5112  1.4228
   71SAPC  H14B 6115   5.569   1.111   2.521 -0.4643  3.0563  1.4765
   71SAPC  H14C 6116   5.460   1.209   2.428  1.0715  0.7643  0.7513
   71SAPC   C15 6117   5.608   1.050   2.280  0.2707  0.8142 -0.5528
   71SAPC  H15A 6118   5.692   0.998   2.323 -0.2951 -0.7053 -1.2433
   71SAPC  H15B 6119   5.604   1.021   2.176  3.3909 -3.2831  0.3234
   71SAPC  H15C 6120   5.625   1.156   2.289  1.7341  0.7419 -2.1509
   71SAPC   C11 6121   5.597   0.849   2.528 -1.2141 -0.1144 -0.8353
   71SAPC  H11A 6122   5.590   0.747   2.570 -0.5919 -0.4982 -1.6361
   71SAPC  H11B 6123   5.582   0.917   2.614  1.9732 -1.2612  0.6973
   71SAPC     P 6124   5.803   0.757   2.402  0.3893  0.2290 -0.5632
   71SAPC   O13 6125   5.739   0.736   2.276  0.1502  0.2452 -0.8854
   71SAPC   O14 6126   5.945   0.780   2.400 -0.8232  0.0644  0.3285
   71SAPC   O12 6127   5.726   0.875   2.478  0.7514 -0.3053  0.2196
   71SAPC   O11 6128   5.760   0.635   2.488 -0.7679  0.2212  0.4884
   71SAPC    C1 6129   5.760   0.505   2.428 -0.0851 -0.4124 -1.5613
   71SAPC    HA 6130   5.685   0.493   2.347 -0.4846 -0.7044 -1.1560
   71SAPC    HB 6131   5.855   0.476   2.380  0.2468 -2.6705  0.3807
   71SAPC    C2 6132   5.723   0.396   2.537 -0.0152 -0.2927  0.3399
   71SAPC    HS 6133   5.716   0.297   2.488  2.1352 -0.1840 -0.2295
   71SAPC   O21 6134   5.607   0.430   2.621  0.6906 -0.5905  0.1752
   71SAPC   C21 6135   5.502   0.431   2.557 -0.2402  0.0015  0.5172
   71SAPC   O22 6136   5.475   0.396   2.445 -0.0858 -0.0973 -0.1888
   71SAPC   C22 6137   5.391   0.474   2.661 -0.6996  0.2099 -1.0317
   71SAPC   H2R 6138   5.382   0.407   2.749 -1.5451 -0.7186 -1.8008
   71SAPC   H2S 6139   5.415   0.575   2.699  2.5772 -1.4135  1.5421
   71SAPC    C3 6140   5.839   0.372   2.643 -0.0716  0.0152  0.0894
   71SAPC    HX 6141   5.919   0.319   2.586 -0.7547 -0.4366 -0.4538
   71SAPC    HY 6142   5.808   0.296   2.718  0.4846 -0.3833 -0.0771
   71SAPC   O31 6143   5.886   0.486   2.712  0.1592  0.5930  0.6036
   71SAPC   C31 6144   6.003   0.541   2.668  0.7313 -0.9231 -0.2718
   71SAPC   O32 6145   6.068   0.511   2.572 -0.0386 -0.3899  0.0121
   71SAPC   C32 6146   6.056   0.641   2.777 -0.0982  0.1539  0.4702
   71SAPC   H2X 6147   6.117   0.721   2.730 -0.8583  0.1778 -0.4776
   71SAPC   H2Y 6148   6.112   0.577   2.849  0.4887  0.7201  0.5183
   71SAPC   C23 6149   5.247   0.473   2.604 -0.7666 -0.4117 -0.2655
   71SAPC   H3R 6150   5.223   0.366   2.583  1.1067 -1.1847  1.4039
   71SAPC   H3S 6151   5.235   0.540   2.517 -1.7465  2.1716  1.8136
   71SAPC   C24 6152   5.138   0.526   2.702  0.2378  0.9020  0.5176
   71SAPC   H4R 6153   5.157   0.485   2.804 -1.1938  1.8513  1.1843
   71SAPC   H4S 6154   5.037   0.489   2.674 -0.2372  1.4276  1.5116
   71SAPC   C25 6155   5.136   0.676   2.690 -0.6793 -0.0864  0.0691
   71SAPC   H5R 6156   5.114   0.714   2.589  1.0102 -1.0737 -0.7021
   71SAPC   C26 6157   5.157   0.756   2.796 -0.0180  0.2228  0.0176
   71SAPC   H6R 6158   5.155   0.865   2.779 -0.0471  0.0212 -1.3549
   71SAPC   C27 6159   5.191   0.712   2.941  0.5125 -0.2746  0.0233
   71SAPC   H7R 6160   5.293   0.743   2.972 -0.8595  1.7744  2.6200
   71SAPC   H7S 6161   5.204   0.602   2.947  4.3613  0.2550  2.8645
   71SAPC   C28 6162   5.089   0.746   3.046 -0.5931 -0.6584  0.3930
   71SAPC   H8R 6163   5.006   0.674   3.044 -1.4073  0.2114  1.9530
   71SAPC   C29 6164   5.099   0.849   3.136 -0.4420 -0.1952  0.1642
   71SAPC   H9R 6165   5.037   0.841   3.226 -2.3307  0.8574 -1.0218
   71SAPC  C210 6166   5.210   0.953   3.144  0.2125  0.1657  0.5535
   71SAPC  H10R 6167   5.171   1.045   3.194  0.0989 -1.7218  4.0798
   71SAPC  H10S 6168   5.232   0.976   3.038  2.4214  1.1753  1.2213
   71SAPC  C211 6169   5.340   0.906   3.210 -0.1671  0.2942 -0.0582
   71SAPC  H11R 6170   5.378   0.809   3.175 -1.8909 -1.3541  2.4205
   71SAPC  C212 6171   5.393   0.965   3.318 -0.2764  0.2575  0.2392
   71SAPC  H12R 6172   5.487   0.927   3.360  0.0214  0.3222 -0.3632
   71SAPC  C213 6173   5.347   1.088   3.394  0.0533  0.6350 -0.5328
   71SAPC  H13R 6174   5.357   1.169   3.318  2.9121  1.7390  0.9431
   71SAPC  H13S 6175   5.421   1.108   3.474 -0.8635 -1.2460  0.8293
   71SAPC  C214 6176   5.215   1.091   3.461  0.2413 -0.9630  0.3639
   71SAPC  H14R 6177   5.181   0.998   3.509 -0.8216 -1.4018 -1.2000
   71SAPC  C215 6178   5.137   1.197   3.462  0.0322  0.2975  0.4844
   71SAPC  H15R 6179   5.043   1.181   3.518 -0.5014 -3.0013 -1.2258
   71SAPC  C216 6180   5.155   1.328   3.400 -0.0789  0.0345  0.5263
   71SAPC  H16R 6181   5.130   1.328   3.292  1.9839  0.3458  0.0318
   71SAPC  H16S 6182   5.260   1.363   3.399  0.1573 -0.6200  1.9469
   71SAPC  C217 6183   5.062   1.422   3.485  0.0424  0.2027  0.0589
   71SAPC  H17R 6184   4.957   1.387   3.487  0.2560 -0.4246  0.4558
   71SAPC  H17S 6185   5.061   1.522   3.438  2.5476  0.2200 -0.0363
   71SAPC  C218 6186   5.113   1.437   3.623  0.1443  0.0694  0.2061
   71SAPC  H18R 6187   5.194   1.513   3.618  2.8222 -2.7296 -0.4468
   71SAPC  H18S 6188   5.171   1.349   3.656  0.7571  0.9703  1.5858
   71SAPC  C219 6189   5.005   1.478   3.722 -0.2700  0.1726 -0.3297
   71SAPC  H19R 6190   5.055   1.498   3.819  1.3094 -0.1661 -1.0620
   71SAPC  H19S 6191   4.929   1.397   3.729 -1.0607  0.9484  0.1496
   71SAPC  C220 6192   4.934   1.601   3.678 -0.4117  0.1036 -0.6831
   71SAPC  H20R 6193   5.014   1.675   3.658 -0.6805  0.3760 -0.7623
   71SAPC  H20S 6194   4.870   1.636   3.762  0.3797 -0.7841  0.3053
   71SAPC  H20T 6195   4.875   1.588   3.585 -0.1487 -0.4362 -0.7752
   71SAPC   C33 6196   5.940   0.695   2.864 -0.4605 -0.1010  0.2609
   71SAPC   H3X 6197   5.857   0.626   2.888 -1.7912  1.1173 -0.7589
   71SAPC   H3Y 6198   5.906   0.783   2.806 -3.0445 -2.1871 -1.4595
   71SAPC   C34 6199   5.993   0.754   3.004 -0.2294 -0.1862  0.2071
   71SAPC   H4X 6200   5.940   0.849   3.021  0.9784  0.6623 -0.6492
   71SAPC   H4Y 6201   6.101   0.780   2.992 -0.4841  0.3751 -0.8865
   71SAPC   C35 6202   5.983   0.650   3.114 -0.0373 -0.4491  0.5983
   71SAPC   H5X 6203   6.047   0.564   3.085 -2.6129 -1.7653 -1.3882
   71SAPC   H5Y 6204   5.876   0.621   3.105 -0.3033  1.2299 -2.3034
   71SAPC   C36 6205   6.019   0.706   3.251  0.3063 -0.4542  0.2856
   71SAPC   H6X 6206   5.949   0.790   3.267  0.7203  0.0074 -0.2977
   71SAPC   H6Y 6207   6.121   0.749   3.246 -0.0617  0.3828 -0.1890
   71SAPC   C37 6208   6.011   0.603   3.361  0.3040 -0.1624  0.3510
   71SAPC   H7X 6209   6.058   0.506   3.335  1.5423  0.7451 -0.8429
   71SAPC   H7Y 6210   5.906   0.573   3.385  0.7519 -1.4048  0.8187
   71SAPC   C38 6211   6.081   0.655   3.491 -0.2463  0.7844  0.7983
   71SAPC   H8X 6212   6.028   0.736   3.545  0.3008  1.2237  0.6831
   71SAPC   H8Y 6213   6.177   0.699   3.457 -0.7917 -0.3082 -2.2705
   71SAPC   C39 6214   6.117   0.540   3.583  1.0639  0.4975 -0.6446
   71SAPC   H9X 6215   6.219   0.551   3.626  1.6331 -2.6264 -1.0408
   71SAPC   H9Y 6216   6.105   0.452   3.517 -2.7139  1.9807 -2.0794
   71SAPC  C310 6217   6.017   0.532   3.700 -0.0787 -0.1809  0.1651
   71SAPC  H10X 6218   5.914   0.513   3.661  0.5420 -2.2731 -0.5521
   71SAPC  H10Y 6219   6.018   0.628   3.755  0.8334  0.4817 -0.9791
   71SAPC  C311 6220   6.045   0.413   3.794  0.3974 -0.3195 -0.9062
   71SAPC  H11X 6221   6.143   0.427   3.846 -0.1491  2.6294 -0.5810
   71SAPC  H11Y 6222   6.051   0.321   3.732  2.0460 -1.9335  1.5308
   71SAPC  C312 6223   5.948   0.401   3.910  0.1966  0.3870 -0.1611
   71SAPC  H12X 6224   5.853   0.364   3.866 -1.1475  3.4352  0.0399
   71SAPC  H12Y 6225   5.927   0.500   3.956 -0.4410 -0.0685  0.5523
   71SAPC  C313 6226   5.987   0.289   4.008  0.3298 -0.4339  0.8638
   71SAPC  H13X 6227   6.081   0.310   4.063  1.4270 -0.7654 -0.8294
   71SAPC  H13Y 6228   6.010   0.203   3.942  1.9401  1.3515 -1.0006
   71SAPC  C314 6229   5.875   0.252   4.107 -0.5111  0.2386  0.1679
   71SAPC  H14X 6230   5.911   0.156   4.150  0.8343 -0.4302 -2.3615
   71SAPC  H14Y 6231   5.781   0.231   4.052 -0.6045  1.2958 -0.0772
   71SAPC  C315 6232   5.844   0.362   4.210  0.1256  0.0474  0.3585
   71SAPC  H15X 6233   5.795   0.444   4.153  0.6865  0.9840  1.1904
   71SAPC  H15Y 6234   5.943   0.383   4.258  0.8265 -0.2614 -0.9390
   71SAPC  C316 6235   5.751   0.312   4.322 -0.7984 -0.0193  0.1576
   71SAPC  H16X 6236   5.744   0.401   4.388 -0.5670 -1.4575  2.1371
   71SAPC  H16Y 6237   5.799   0.236   4.387 -0.5200 -0.4575 -0.5442
   71SAPC  C317 6238   5.614   0.283   4.265 -0.3129 -0.3983  0.2589
   71SAPC  H17X 6239   5.619   0.198   4.193 -0.5680  0.9608 -1.3821
   71SAPC  H17Y 6240   5.574   0.368   4.206 -1.2508 -0.1955  1.1583
   71SAPC  C318 6241   5.530   0.241   4.383  0.8942 -0.5808  0.5236
   71SAPC  H18X 6242   5.446   0.174   4.353  0.0057  0.3501  0.9053
   71SAPC  H18Y 6243   5.496   0.329   4.441 -1.8325 -4.1700  4.7112
   71SAPC  H18Z 6244   5.590   0.183   4.456  0.8086  0.3378  1.3362
   72SAPC     N 6245   5.415   7.318   2.204 -0.3155  0.0525  0.4272
   72SAPC   C12 6246   5.452   7.372   2.339  0.3962 -0.7091 -0.1332
   72SAPC  H12A 6247   5.448   7.296   2.416 -1.3883 -0.1189  0.3797
   72SAPC  H12B 6248   5.388   7.457   2.358  1.0151 -0.1862 -0.3846
   72SAPC   C13 6249   5.475   7.403   2.092 -0.0887  0.8870 -0.9489
   72SAPC  H13A 6250   5.578   7.431   2.111 -0.4451  0.9795  0.9183
   72SAPC  H13B 6251   5.472   7.347   2.000 -1.1449 -0.4310 -0.1212
   72SAPC  H13C 6252   5.414   7.491   2.077  0.1814  1.1137 -0.7288
   72SAPC   C14 6253   5.462   7.183   2.189  0.7947 -0.2737  0.9784
   72SAPC  H14A 6254   5.432   7.111   2.263  0.4111 -1.9111 -0.7453
   72SAPC  H14B 6255   5.443   7.145   2.090  0.2656  1.9815  0.1744
   72SAPC  H14C 6256   5.570   7.174   2.199  1.0121 -2.0126 -2.4323
   72SAPC   C15 6257   5.265   7.318   2.185  0.0828  0.0913  0.3296
   72SAPC  H15A 6258   5.222   7.242   2.248 -1.6559 -0.2446 -1.2193
   72SAPC  H15B 6259   5.217   7.412   2.208 -1.9352 -0.6426 -0.7118
   72SAPC  H15C 6260   5.232   7.298   2.084  3.6944  3.4443 -1.6539
   72SAPC   C11 6261   5.602   7.410   2.361 -0.1401 -0.1011  0.0202
   72SAPC  H11A 6262   5.614   7.476   2.450 -4.4827  1.6055 -0.5623
   72SAPC  H11B 6263   5.644   7.476   2.282  1.4096  0.6937  1.4559
   72SAPC     P 6264   5.837   7.302   2.371 -0.0267 -0.3249  0.3462
   72SAPC   O13 6265   5.895   7.164   2.386 -0.1576  0.1576  0.2609
   72SAPC   O14 6266   5.876   7.362   2.242 -0.0756  0.1226  0.4417
   72SAPC   O12 6267   5.674   7.294   2.369  0.1601 -0.6113  0.4225
   72SAPC   O11 6268   5.869   7.400   2.485 -0.0237 -0.0216 -0.6344
   72SAPC    C1 6269   5.902   7.367   2.619  0.1490 -0.6029  0.8104
   72SAPC    HA 6270   5.903   7.464   2.674 -2.4439  0.3855 -0.7774
   72SAPC    HB 6271   5.827   7.304   2.672 -0.5235  0.3147  0.9528
   72SAPC    C2 6272   6.027   7.286   2.635  0.5325  1.0367  0.5667
   72SAPC    HS 6273   6.019   7.191   2.578  1.3295 -0.0888  2.2659
   72SAPC   O21 6274   6.031   7.248   2.777  0.3501 -0.1128  0.1179
   72SAPC   C21 6275   6.110   7.143   2.804  0.1395  0.3747 -0.3944
   72SAPC   O22 6276   6.174   7.078   2.725  0.0159 -0.2182  0.0116
   72SAPC   C22 6277   6.096   7.107   2.956  0.9890 -0.5800 -0.0052
   72SAPC   H2R 6278   6.113   7.194   3.023  1.4179 -1.6071  1.2524
   72SAPC   H2S 6279   5.997   7.059   2.973  0.1707  1.5443  1.4034
   72SAPC    C3 6280   6.155   7.364   2.585  0.0448  0.3391  0.4405
   72SAPC    HX 6281   6.151   7.392   2.478 -2.7055  0.5332  0.5461
   72SAPC    HY 6282   6.243   7.298   2.597 -0.0545  0.2361  0.5998
   72SAPC   O31 6283   6.178   7.490   2.660 -0.6601 -0.3787 -0.4836
   72SAPC   C31 6284   6.300   7.520   2.701  0.6693  0.0217  0.1613
   72SAPC   O32 6285   6.400   7.457   2.681  0.4775 -0.2934  0.4544
   72SAPC   C32 6286   6.298   7.643   2.794 -0.7948 -0.1341 -0.1810
   72SAPC   H2X 6287   6.211   7.706   2.765 -1.5242 -0.3557  1.4391
   72SAPC   H2Y 6288   6.386   7.703   2.763  0.3194 -1.1062  1.0402
   72SAPC   C23 6289   6.200   7.003   3.004  0.4579  0.1203 -0.0797
   72SAPC   H3R 6290   6.201   6.917   2.934  0.6098  0.7566 -0.8590
   72SAPC   H3S 6291   6.150   6.989   3.103  1.1729  1.8632  0.5518
   72SAPC   C24 6292   6.344   7.065   3.020  0.0406 -0.0355  0.0460
   72SAPC   H4R 6293   6.325   7.174   3.031 -0.2995 -0.2328  1.6235
   72SAPC   H4S 6294   6.394   7.049   2.922  1.1457  2.6379  0.1553
   72SAPC   C25 6295   6.425   7.003   3.134  0.4819 -0.3352 -0.6069
   72SAPC   H5R 6296   6.480   6.915   3.099 -1.4217 -1.5820 -0.5367
   72SAPC   C26 6297   6.428   7.046   3.257 -0.2735  0.1401 -0.4398
   72SAPC   H6R 6298   6.488   6.996   3.334  0.4770 -0.0585 -1.1504
   72SAPC   C27 6299   6.356   7.163   3.318 -0.0481 -0.8302 -0.4281
   72SAPC   H7R 6300   6.282   7.199   3.244 -0.2464 -0.5801 -0.1126
   72SAPC   H7S 6301   6.437   7.239   3.328  0.1335 -1.2363  1.4670
   72SAPC   C28 6302   6.294   7.146   3.456 -0.1300 -0.6281 -0.1657
   72SAPC   H8R 6303   6.223   7.062   3.453 -1.0032  0.1452 -1.8032
   72SAPC   C29 6304   6.305   7.223   3.571 -0.6258 -0.1986  0.2668
   72SAPC   H9R 6305   6.248   7.182   3.656 -0.7180  1.4048  0.9936
   72SAPC  C210 6306   6.380   7.360   3.591 -0.0808  0.9351 -0.4039
   72SAPC  H10R 6307   6.434   7.400   3.502  1.2374 -0.1439 -0.1112
   72SAPC  H10S 6308   6.466   7.348   3.660  0.4169  1.1166 -0.9880
   72SAPC  C211 6309   6.284   7.464   3.656  0.6427  0.1556  0.1533
   72SAPC  H11R 6310   6.183   7.491   3.622  1.2303  2.6327  0.2892
   72SAPC  C212 6311   6.320   7.530   3.766 -0.3139 -0.5167  0.0186
   72SAPC  H12R 6312   6.251   7.603   3.812 -0.6161 -1.1201  0.5412
   72SAPC  C213 6313   6.439   7.523   3.853  0.2862 -0.4290  0.5707
   72SAPC  H13R 6314   6.493   7.619   3.841  0.6934 -0.3698  2.6696
   72SAPC  H13S 6315   6.510   7.446   3.818 -0.9671 -2.1402  1.7044
   72SAPC  C214 6316   6.402   7.489   3.997 -0.2613 -0.2256  0.1044
   72SAPC  H14R 6317   6.388   7.381   4.004 -0.5975 -0.3142 -1.7234
   72SAPC  C215 6318   6.380   7.577   4.098 -0.2153  0.2541  0.1285
   72SAPC  H15R 6319   6.356   7.537   4.197  0.8068  0.3478  0.4164
   72SAPC  C216 6320   6.389   7.731   4.094 -0.3764  0.0888  0.9974
   72SAPC  H16R 6321   6.307   7.768   4.159 -1.0468  1.8297 -0.7618
   72SAPC  H16S 6322   6.354   7.759   3.992 -1.3947 -0.5303  1.1669
   72SAPC  C217 6323   6.527   7.785   4.133 -0.2319 -0.2703 -0.2133
   72SAPC  H17R 6324   6.546   7.890   4.103  0.3272 -0.5292 -0.7534
   72SAPC  H17S 6325   6.608   7.744   4.070  1.0374 -0.2712  1.3946
   72SAPC  C218 6326   6.566   7.781   4.281 -0.5007 -0.0516 -0.8281
   72SAPC  H18R 6327   6.575   7.676   4.317  2.2079  0.2931 -0.4228
   72SAPC  H18S 6328   6.487   7.835   4.338 -1.0946 -1.1882 -0.5407
   72SAPC  C219 6329   6.698   7.844   4.309  0.4871  0.3921  0.1516
   72SAPC  H19R 6330   6.694   7.950   4.275 -2.3241  1.5997  3.9342
   72SAPC  H19S 6331   6.775   7.786   4.253  1.9688  2.5951 -0.1859
   72SAPC  C220 6332   6.760   7.845   4.454  0.2772  0.0216 -0.1586
   72SAPC  H20R 6333   6.867   7.872   4.441  0.4036  1.0997  2.8295
   72SAPC  H20S 6334   6.752   7.749   4.510  2.6606  0.4995  1.0738
   72SAPC  H20T 6335   6.709   7.921   4.517  1.1433  0.4563  0.0282
   72SAPC   C33 6336   6.311   7.617   2.937 -0.2033 -0.3099  1.0522
   72SAPC   H3X 6337   6.324   7.707   3.002 -1.5714  2.2091 -2.0155
   72SAPC   H3Y 6338   6.391   7.548   2.970 -0.2357 -0.0563  1.6783
   72SAPC   C34 6339   6.172   7.566   2.984  0.3493  0.4993  0.1442
   72SAPC   H4X 6340   6.143   7.483   2.916  0.1440  2.1366 -1.8265
   72SAPC   H4Y 6341   6.094   7.645   2.975 -1.6157 -1.3753  0.2419
   72SAPC   C35 6342   6.167   7.518   3.125  0.1831  0.2799 -0.3786
   72SAPC   H5X 6343   6.199   7.607   3.184 -0.5843 -1.3142  2.5501
   72SAPC   H5Y 6344   6.242   7.436   3.133 -1.5401 -1.3866 -1.1567
   72SAPC   C36 6345   6.029   7.473   3.173 -0.9563  0.0017  0.0428
   72SAPC   H6X 6346   6.009   7.369   3.140  1.2418 -1.1208  2.0518
   72SAPC   H6Y 6347   5.953   7.538   3.124  0.4671 -0.8313 -3.3682
   72SAPC   C37 6348   6.025   7.488   3.326  0.7453 -0.0989 -0.2053
   72SAPC   H7X 6349   6.053   7.594   3.340 -2.8014  1.1513 -2.0688
   72SAPC   H7Y 6350   6.110   7.430   3.370 -0.1358 -0.6989  0.7447
   72SAPC   C38 6351   5.886   7.442   3.387 -0.5242 -0.4640  0.1988
   72SAPC   H8X 6352   5.870   7.341   3.342 -1.2018 -0.3579  0.1968
   72SAPC   H8Y 6353   5.813   7.513   3.344 -0.6076 -1.3928 -1.2380
   72SAPC   C39 6354   5.906   7.429   3.538 -0.0750  0.0939  0.7693
   72SAPC   H9X 6355   5.942   7.522   3.587 -1.8517  0.9056  0.5870
   72SAPC   H9Y 6356   5.981   7.350   3.561 -0.6229 -1.2604 -1.9070
   72SAPC  C310 6357   5.772   7.388   3.612  0.0943 -0.1299  0.1539
   72SAPC  H10X 6358   5.790   7.376   3.721 -1.3124 -0.6780  0.3350
   72SAPC  H10Y 6359   5.736   7.297   3.559  1.4072 -0.4334 -0.2575
   72SAPC  C311 6360   5.653   7.477   3.576  0.0047 -0.4055  0.5024
   72SAPC  H11X 6361   5.641   7.490   3.466 -1.7233  1.1422  0.8415
   72SAPC  H11Y 6362   5.675   7.579   3.615  2.2616 -0.6402 -0.1056
   72SAPC  C312 6363   5.523   7.425   3.637  0.6736 -0.7016  0.1440
   72SAPC  H12X 6364   5.502   7.324   3.595 -1.4642 -0.3803  0.4030
   72SAPC  H12Y 6365   5.437   7.490   3.611  1.0019 -0.3324 -0.0375
   72SAPC  C313 6366   5.535   7.425   3.785 -0.1985  0.2981 -0.3610
   72SAPC  H13X 6367   5.602   7.505   3.823  0.7982 -0.0683 -1.3159
   72SAPC  H13Y 6368   5.579   7.331   3.823  0.3404  0.5349 -0.3893
   72SAPC  C314 6369   5.397   7.456   3.845  0.3900  1.0047  0.1629
   72SAPC  H14X 6370   5.318   7.394   3.797 -0.0751  0.3700  1.7161
   72SAPC  H14Y 6371   5.389   7.562   3.811 -1.7951  0.6802 -0.3924
   72SAPC  C315 6372   5.402   7.436   3.997  0.2498  0.5086  0.4265
   72SAPC  H15X 6373   5.477   7.507   4.038 -1.1160  1.8455  0.6279
   72SAPC  H15Y 6374   5.452   7.340   4.022  2.7073  1.4853 -0.5177
   72SAPC  C316 6375   5.279   7.459   4.088 -0.4446 -0.2588  1.0887
   72SAPC  H16X 6376   5.223   7.548   4.054  2.4894  1.6743  1.2025
   72SAPC  H16Y 6377   5.303   7.467   4.196 -0.4987  2.8906  0.8888
   72SAPC  C317 6378   5.195   7.327   4.090  0.3244  0.3914 -0.4128
   72SAPC  H17X 6379   5.255   7.247   4.138 -0.4388  1.8581  3.1643
   72SAPC  H17Y 6380   5.159   7.309   3.986 -2.4262  3.3811 -0.0760
   72SAPC  C318 6381   5.068   7.329   4.174 -0.4523  0.3919 -0.2894
   72SAPC  H18X 6382   5.013   7.233   4.182  1.9129 -1.0478 -0.7830
   72SAPC  H18Y 6383   5.000   7.405   4.131  2.7056  3.6220  0.1954
   72SAPC  H18Z 6384   5.100   7.355   4.277  1.0944 -1.5804 -0.2392
   73SLPC     N 6385   5.089   4.130   6.110 -0.5481  0.5788 -0.1540
   73SLPC   C13 6386   5.137   4.139   5.969 -0.3772  0.0248 -0.4557
   73SLPC  H13A 6387   5.079   4.081   5.899  0.9571 -2.3391  0.3242
   73SLPC  H13B 6388   5.131   4.243   5.942  2.6256  0.6733  1.0504
   73SLPC  H13C 6389   5.244   4.124   5.956 -0.0674  3.0215 -1.7563
   73SLPC   C14 6390   5.181   4.217   6.191  0.0131 -0.0467  0.1298
   73SLPC  H14A 6391   5.159   4.322   6.180  2.3556  0.5991  1.3499
   73SLPC  H14B 6392   5.175   4.184   6.294  2.1178  2.0076  0.9576
   73SLPC  H14C 6393   5.280   4.209   6.148 -0.0179 -1.2963  0.2559
   73SLPC   C15 6394   5.108   3.989   6.169 -0.0157 -0.1070  0.3413
   73SLPC  H15A 6395   5.078   3.992   6.273 -0.1430  1.8382  0.2682
   73SLPC  H15B 6396   5.038   3.926   6.116 -0.8062  1.6353 -0.7169
   73SLPC  H15C 6397   5.211   3.957   6.181  0.4972  1.1225 -0.7165
   73SLPC   C12 6398   4.946   4.176   6.126 -0.9034 -0.2450  0.4795
   73SLPC  H12A 6399   4.932   4.278   6.096  0.8606 -0.2247 -0.3448
   73SLPC  H12B 6400   4.916   4.167   6.230 -0.3789  0.3595  0.6861
   73SLPC   C11 6401   4.837   4.101   6.031  0.3729 -0.0505  0.3227
   73SLPC  H11A 6402   4.841   3.991   6.046 -2.5721  0.1618  3.1784
   73SLPC  H11B 6403   4.860   4.111   5.923 -0.5404 -2.1433 -0.0901
   73SLPC     P 6404   4.663   4.273   6.006  0.2979 -0.1343 -0.0839
   73SLPC   O13 6405   4.519   4.300   6.027 -0.0900 -0.3108 -0.0657
   73SLPC   O14 6406   4.754   4.377   6.054  0.6287 -0.2968 -0.3305
   73SLPC   O12 6407   4.704   4.139   6.065  0.3506 -0.0502 -0.3253
   73SLPC   O11 6408   4.690   4.248   5.856  0.8110  0.1670 -0.3945
   73SLPC    C1 6409   4.658   4.343   5.751 -0.1662 -0.0325 -0.2500
   73SLPC    HA 6410   4.652   4.291   5.653  2.5770  1.1412 -1.0865
   73SLPC    HB 6411   4.555   4.387   5.756 -0.4880 -0.4893 -2.4398
   73SLPC    C2 6412   4.770   4.456   5.736 -0.3286  0.1411  0.7975
   73SLPC    HS 6413   4.768   4.510   5.833  1.6320  0.5067  0.6598
   73SLPC   O21 6414   4.738   4.546   5.624  0.2210  0.3386 -0.6736
   73SLPC   C21 6415   4.804   4.654   5.624  0.3645 -0.3153  0.1977
   73SLPC   O22 6416   4.882   4.691   5.712  0.1818 -0.3296  0.3459
   73SLPC   C22 6417   4.774   4.727   5.497  0.0655 -0.2597 -0.1360
   73SLPC   H2R 6418   4.668   4.759   5.491 -0.6091 -2.0809  1.4968
   73SLPC   H2S 6419   4.834   4.820   5.498 -0.8250  0.3234 -0.5997
   73SLPC    C3 6420   4.910   4.391   5.703  0.5243  0.3612  0.4982
   73SLPC    HX 6421   4.956   4.346   5.794  0.1687  0.0157  0.5081
   73SLPC    HY 6422   4.989   4.464   5.676  1.5770 -0.8331  0.2901
   73SLPC   O31 6423   4.894   4.298   5.593 -0.2918 -0.1707  0.3572
   73SLPC   C31 6424   4.933   4.179   5.613  0.6118  0.0258  0.3189
   73SLPC   O32 6425   4.999   4.142   5.708  0.1730  0.0467 -0.2262
   73SLPC   C32 6426   4.871   4.078   5.508 -0.2117 -0.1216 -0.2945
   73SLPC   H2X 6427   4.906   3.976   5.538 -4.0572 -1.7697 -1.0307
   73SLPC   H2Y 6428   4.925   4.105   5.415 -0.1532 -1.0331 -0.5365
   73SLPC   C23 6429   4.819   4.642   5.373  0.1923  0.2412  0.0736
   73SLPC   H3R 6430   4.803   4.704   5.282 -3.6402 -1.5321 -0.5741
   73SLPC   H3S 6431   4.763   4.551   5.342  0.2459  0.2213  0.0351
   73SLPC   C24 6432   4.964   4.605   5.369 -0.3059  0.3096 -0.6044
   73SLPC   H4R 6433   5.007   4.548   5.455  2.3154  0.8157 -1.5455
   73SLPC   H4S 6434   5.024   4.698   5.357 -0.3722  0.4479  0.0741
   73SLPC   C25 6435   5.007   4.548   5.232 -0.0485 -0.4386 -0.1443
   73SLPC   H5R 6436   5.118   4.549   5.234 -0.0418  0.2586 -0.4008
   73SLPC   H5S 6437   4.967   4.615   5.152  0.4061 -0.3604 -0.3071
   73SLPC   C26 6438   4.953   4.402   5.190  0.1343  0.1965  0.5229
   73SLPC   H6R 6439   4.844   4.403   5.169  0.3213 -2.2365 -0.7000
   73SLPC   H6S 6440   4.983   4.342   5.279 -1.9504 -2.0785 -0.2510
   73SLPC   C27 6441   5.018   4.351   5.065 -0.6215  0.7747  0.2225
   73SLPC   H7R 6442   5.128   4.367   5.076 -0.4824 -1.4852  2.6593
   73SLPC   H7S 6443   4.984   4.415   4.982  0.7910  0.1095 -0.9023
   73SLPC   C28 6444   4.983   4.202   5.027 -0.8701 -0.3233 -0.7493
   73SLPC   H8R 6445   5.010   4.195   4.920  0.1171 -1.4110 -0.4400
   73SLPC   H8S 6446   4.873   4.194   5.012 -0.9510 -0.0387 -0.3073
   73SLPC   C29 6447   5.049   4.090   5.107  0.2476 -0.1578 -0.2436
   73SLPC   H9R 6448   5.039   4.102   5.216 -1.7242 -2.1517 -0.1709
   73SLPC  C210 6449   5.122   3.984   5.065 -0.3212 -0.1228 -0.3053
   73SLPC  H10R 6450   5.155   3.916   5.145 -0.7772 -2.1685 -1.8285
   73SLPC  C211 6451   5.152   3.944   4.921 -0.4517  0.1376  0.2222
   73SLPC  H11R 6452   5.262   3.931   4.920 -0.4345  0.2932 -0.0634
   73SLPC  H11S 6453   5.134   4.029   4.852  1.7528 -0.4215 -1.0655
   73SLPC  C212 6454   5.066   3.822   4.889 -0.4465 -0.4007 -0.3430
   73SLPC  H12R 6455   4.974   3.844   4.833 -0.7309  0.9804  0.6499
   73SLPC  C213 6456   5.100   3.694   4.913 -0.5106  0.2607  0.1845
   73SLPC  H13R 6457   5.020   3.621   4.897  0.6050 -1.0743  0.6473
   73SLPC  C214 6458   5.231   3.652   4.975 -0.2802  0.9965 -0.4062
   73SLPC  H14R 6459   5.216   3.548   5.010  1.0694  0.5540 -1.0806
   73SLPC  H14S 6460   5.263   3.718   5.059  1.3039 -0.2224 -0.0246
   73SLPC  C215 6461   5.347   3.654   4.877  0.1265  0.3051 -0.3567
   73SLPC  H15R 6462   5.440   3.648   4.938 -0.8540  3.3345  1.5385
   73SLPC  H15S 6463   5.361   3.743   4.812  0.8868  0.2990 -0.2045
   73SLPC  C216 6464   5.352   3.521   4.793  0.8923  0.8203 -0.4812
   73SLPC  H16R 6465   5.258   3.517   4.734 -0.3674 -0.7868  1.5887
   73SLPC  H16S 6466   5.354   3.443   4.872  0.7147  1.3894  0.0901
   73SLPC  C217 6467   5.469   3.499   4.690 -0.0698 -0.2626 -0.0020
   73SLPC  H17R 6468   5.567   3.487   4.742  0.4474  0.0209 -0.8913
   73SLPC  H17S 6469   5.469   3.600   4.642  2.5754  0.1006  0.6487
   73SLPC  C218 6470   5.441   3.391   4.585 -0.4417 -0.3733 -0.3270
   73SLPC  H18R 6471   5.512   3.398   4.500 -1.8574 -1.9096 -1.6503
   73SLPC  H18S 6472   5.336   3.406   4.554 -0.4684 -2.2783 -1.2127
   73SLPC  H18T 6473   5.441   3.287   4.625 -2.3511 -0.0695  0.4784
   73SLPC   C33 6474   4.715   4.077   5.496 -0.7322 -0.2296  0.2776
   73SLPC   H3X 6475   4.692   4.185   5.485  0.4218 -0.0828 -0.8759
   73SLPC   H3Y 6476   4.680   4.034   5.592  0.3290  1.4987  1.4557
   73SLPC   C34 6477   4.659   4.003   5.378  0.1686  0.0252 -0.1585
   73SLPC   H4X 6478   4.553   3.972   5.393  0.4409 -0.3228  1.1536
   73SLPC   H4Y 6479   4.730   3.922   5.352  1.2572  0.9191 -0.0355
   73SLPC   C35 6480   4.658   4.091   5.245  0.7323  0.0110 -0.1578
   73SLPC   H5X 6481   4.634   4.023   5.160  1.1150 -0.4101  0.0705
   73SLPC   H5Y 6482   4.765   4.117   5.230  0.4243  1.5885  0.3806
   73SLPC   C36 6483   4.564   4.210   5.252  0.4950 -0.3166  0.1821
   73SLPC   H6X 6484   4.609   4.287   5.318  0.1277  0.6357 -0.6598
   73SLPC   H6Y 6485   4.465   4.176   5.290  0.4903 -1.1713 -0.5700
   73SLPC   C37 6486   4.541   4.259   5.104 -0.1208 -0.3833  0.1092
   73SLPC   H7X 6487   4.475   4.193   5.044 -0.7016 -1.9707  2.4060
   73SLPC   H7Y 6488   4.640   4.262   5.055 -0.3060 -1.5244 -0.3565
   73SLPC   C38 6489   4.484   4.395   5.100  0.7110 -0.6500  0.1161
   73SLPC   H8X 6490   4.553   4.459   5.159  1.1246  0.6951 -1.7912
   73SLPC   H8Y 6491   4.384   4.393   5.148  1.2229 -0.7273  1.1905
   73SLPC   C39 6492   4.460   4.435   4.958  0.4472  0.3144  0.5967
   73SLPC   H9X 6493   4.367   4.387   4.920  1.2405 -0.7578 -0.0243
   73SLPC   H9Y 6494   4.541   4.401   4.890  0.0152  0.5545 -0.0483
   73SLPC  C310 6495   4.449   4.592   4.933  0.4927  0.4381 -0.1687
   73SLPC  H10X 6496   4.531   4.624   5.000 -0.1497  0.6400  0.5275
   73SLPC  H10Y 6497   4.351   4.625   4.974 -0.3258 -1.7924 -0.2544
   73SLPC  C311 6498   4.449   4.627   4.784 -0.2813  0.0866 -0.3407
   73SLPC  H11X 6499   4.382   4.560   4.726  3.0822 -0.9830 -3.1635
   73SLPC  H11Y 6500   4.548   4.598   4.745 -0.8925  2.3207 -3.7890
   73SLPC  C312 6501   4.407   4.768   4.742 -0.2141  0.3743 -0.7525
   73SLPC  H12X 6502   4.444   4.854   4.802 -0.3222 -0.0880 -0.0240
   73SLPC  H12Y 6503   4.296   4.771   4.746 -0.2584 -0.6331 -1.2552
   73SLPC  C313 6504   4.446   4.783   4.598 -0.4358 -0.1720 -0.7051
   73SLPC  H13X 6505   4.394   4.698   4.549 -0.2489 -0.4476 -0.4221
   73SLPC  H13Y 6506   4.555   4.767   4.582 -0.3489  0.0249 -0.3130
   73SLPC  C314 6507   4.413   4.913   4.534  0.1019  0.1307  0.0213
   73SLPC  H14X 6508   4.469   4.988   4.595 -0.7946  0.6109  0.2605
   73SLPC  H14Y 6509   4.308   4.939   4.559 -0.4544 -2.5084  0.5994
   73SLPC  C315 6510   4.441   4.915   4.382 -0.7722  0.0026  0.1827
   73SLPC  H15X 6511   4.402   5.011   4.341  1.9801  0.8777 -0.4770
   73SLPC  H15Y 6512   4.393   4.833   4.325 -0.3740 -0.2577  0.2232
   73SLPC  C316 6513   4.584   4.902   4.344 -0.7734 -0.2211  0.4752
   73SLPC  H16X 6514   4.588   4.895   4.233  0.8712 -0.1503  0.5149
   73SLPC  H16Y 6515   4.609   4.799   4.377 -0.5391  0.2437  1.7565
   73SLPC  C317 6516   4.684   5.013   4.386  0.2035  0.2042 -0.3261
   73SLPC  H17X 6517   4.679   5.029   4.495  1.6535  0.6800 -0.3153
   73SLPC  H17Y 6518   4.649   5.106   4.336  1.2435  0.5162 -0.4872
   73SLPC  C318 6519   4.829   4.978   4.326  0.5089  0.8444  0.6608
   73SLPC  H18X 6520   4.813   4.950   4.220  0.4586  1.1222  0.5974
   73SLPC  H18Y 6521   4.872   4.902   4.395  3.5488  3.0962  1.3863
   73SLPC  H18Z 6522   4.891   5.070   4.312  0.0232  1.3321  1.6994
   74SLPC     N 6523   2.544   4.322   6.216 -0.6756  0.6960 -0.0154
   74SLPC   C13 6524   2.470   4.398   6.319  0.3676  0.2483 -0.4852
   74SLPC  H13A 6525   2.510   4.498   6.322 -1.6525  1.0345  0.7305
   74SLPC  H13B 6526   2.364   4.403   6.301 -0.2574  0.1076  2.8022
   74SLPC  H13C 6527   2.488   4.349   6.414  0.1177  0.0580 -0.5349
   74SLPC   C14 6528   2.690   4.341   6.252 -0.2126 -0.0290  0.5042
   74SLPC  H14A 6529   2.709   4.440   6.289 -1.0603  0.3704 -0.1328
   74SLPC  H14B 6530   2.706   4.285   6.343 -0.0671 -0.1936  0.3803
   74SLPC  H14C 6531   2.751   4.306   6.169 -2.7057  1.7655 -2.1643
   74SLPC   C15 6532   2.508   4.382   6.085 -0.2144 -0.0035  0.6376
   74SLPC  H15A 6533   2.405   4.358   6.063 -0.1854 -0.0822  0.5868
   74SLPC  H15B 6534   2.532   4.486   6.093 -0.4499  0.4868 -3.7697
   74SLPC  H15C 6535   2.565   4.338   6.004 -5.0811 -2.2668 -1.8286
   74SLPC   C12 6536   2.511   4.171   6.213 -0.2116 -0.1489 -0.3615
   74SLPC  H12A 6537   2.404   4.167   6.212 -0.3009  1.7416 -0.2905
   74SLPC  H12B 6538   2.547   4.122   6.303  1.3641  1.7306  0.0776
   74SLPC   C11 6539   2.570   4.093   6.091 -0.2243 -0.9849 -0.2143
   74SLPC  H11A 6540   2.567   3.985   6.115  0.6412 -0.6079  1.6583
   74SLPC  H11B 6541   2.677   4.110   6.068  0.6895 -3.6910  1.7713
   74SLPC     P 6542   2.376   4.023   5.926 -0.2168 -0.3483 -0.1112
   74SLPC   O13 6543   2.436   3.886   5.923 -0.0748 -0.4465 -0.1503
   74SLPC   O14 6544   2.254   4.051   6.007  0.7253  0.5182  0.0676
   74SLPC   O12 6545   2.495   4.119   5.977 -0.1233  0.0424 -0.4374
   74SLPC   O11 6546   2.348   4.059   5.774 -0.1322  0.0090  0.1047
   74SLPC    C1 6547   2.452   4.035   5.679 -0.2063 -0.7307  0.1363
   74SLPC    HA 6548   2.514   3.945   5.697 -0.3623 -1.2542 -1.8566
   74SLPC    HB 6549   2.415   4.027   5.575  1.2183  1.2509 -0.5694
   74SLPC    C2 6550   2.549   4.165   5.673  0.3708 -0.1985  0.4710
   74SLPC    HS 6551   2.589   4.189   5.774  0.6946 -0.0637  0.3104
   74SLPC   O21 6552   2.465   4.273   5.624  0.2298 -0.2547 -0.0332
   74SLPC   C21 6553   2.464   4.387   5.691  0.2002 -0.0795 -0.6664
   74SLPC   O22 6554   2.537   4.427   5.779 -0.4439 -0.1394 -0.1791
   74SLPC   C22 6555   2.340   4.468   5.646  0.6584 -0.5123  0.1683
   74SLPC   H2R 6556   2.266   4.401   5.597  0.0048  0.1203  0.2687
   74SLPC   H2S 6557   2.284   4.511   5.731  0.3581  0.9663 -0.7442
   74SLPC    C3 6558   2.681   4.141   5.581 -0.6737 -0.3552 -0.5790
   74SLPC    HX 6559   2.735   4.052   5.622  0.6362  0.2788 -0.8912
   74SLPC    HY 6560   2.749   4.227   5.602  0.3636 -0.9664 -1.3634
   74SLPC   O31 6561   2.651   4.119   5.439 -0.4048  0.0388  0.9392
   74SLPC   C31 6562   2.655   4.222   5.362  0.6564 -0.5541  0.2347
   74SLPC   O32 6563   2.691   4.331   5.397 -0.0438 -0.2013 -0.4867
   74SLPC   C32 6564   2.574   4.189   5.231 -0.0946  0.5567 -0.1389
   74SLPC   H2X 6565   2.471   4.230   5.238 -1.3015 -1.9499 -2.2232
   74SLPC   H2Y 6566   2.549   4.081   5.227 -3.3681  1.2771 -0.6684
   74SLPC   C23 6567   2.388   4.585   5.549  0.9886 -0.1217 -0.4345
   74SLPC   H3R 6568   2.469   4.648   5.591  1.2390  0.6201 -2.0084
   74SLPC   H3S 6569   2.298   4.650   5.546  2.7198  2.5197  1.6906
   74SLPC   C24 6570   2.424   4.534   5.411 -0.1874  0.6571  0.0133
   74SLPC   H4R 6571   2.337   4.474   5.376  0.4675 -0.7174  0.6713
   74SLPC   H4S 6572   2.515   4.470   5.409 -0.4723  0.3080 -1.7648
   74SLPC   C25 6573   2.440   4.645   5.312 -0.3598  0.6038  0.9247
   74SLPC   H5R 6574   2.525   4.705   5.350  0.3122 -0.9441  1.9519
   74SLPC   H5S 6575   2.349   4.709   5.315 -1.0972 -0.4901  2.6232
   74SLPC   C26 6576   2.461   4.581   5.175  0.1205 -0.3164  0.0119
   74SLPC   H6R 6577   2.397   4.492   5.159  0.4711 -0.1912 -2.3079
   74SLPC   H6S 6578   2.567   4.546   5.172  1.4605  3.5628 -1.8416
   74SLPC   C27 6579   2.440   4.679   5.060  0.4376  0.1249 -0.1708
   74SLPC   H7R 6580   2.523   4.737   5.015 -1.9080  1.2721 -3.2264
   74SLPC   H7S 6581   2.375   4.760   5.099 -0.6474 -0.2646 -1.1124
   74SLPC   C28 6582   2.378   4.603   4.944  0.1704 -0.2080  0.1049
   74SLPC   H8R 6583   2.287   4.543   4.965  0.9302 -2.5596 -2.9527
   74SLPC   H8S 6584   2.447   4.536   4.890  0.7367  0.4367  0.0239
   74SLPC   C29 6585   2.335   4.710   4.835  0.0845  0.6242  0.6047
   74SLPC   H9R 6586   2.233   4.748   4.852  0.8218  2.2929  1.4293
   74SLPC  C210 6587   2.405   4.745   4.728  0.4456  0.5619  0.0098
   74SLPC  H10R 6588   2.366   4.818   4.655 -0.8981  1.4380  1.5880
   74SLPC  C211 6589   2.538   4.684   4.695 -0.9455 -0.2811 -0.2112
   74SLPC  H11R 6590   2.583   4.643   4.788 -2.5655  0.7467  1.0571
   74SLPC  H11S 6591   2.615   4.757   4.660  0.1718 -2.1518 -1.7034
   74SLPC  C212 6592   2.537   4.559   4.608 -0.3671  0.3312 -0.1950
   74SLPC  H12R 6593   2.477   4.475   4.646  1.5333 -0.9472  0.0583
   74SLPC  C213 6594   2.598   4.556   4.491 -0.1967 -0.3667  0.4327
   74SLPC  H13R 6595   2.588   4.462   4.435 -2.4944  0.0025  0.1418
   74SLPC  C214 6596   2.667   4.679   4.431 -0.6524 -0.3658 -0.8431
   74SLPC  H14R 6597   2.770   4.691   4.471 -0.2005 -0.4139 -1.9748
   74SLPC  H14S 6598   2.609   4.773   4.441 -0.8915 -0.4998 -0.9532
   74SLPC  C215 6599   2.702   4.654   4.284  0.0308 -0.0956 -0.7538
   74SLPC  H15R 6600   2.610   4.635   4.224 -0.1903  2.6120 -1.3646
   74SLPC  H15S 6601   2.763   4.563   4.268 -1.4876 -1.7719  2.5552
   74SLPC  C216 6602   2.772   4.768   4.216 -0.0641 -0.4636 -0.3075
   74SLPC  H16R 6603   2.870   4.776   4.267 -0.2345  0.1810 -0.0878
   74SLPC  H16S 6604   2.719   4.865   4.223  2.3138  0.9642 -1.5654
   74SLPC  C217 6605   2.789   4.731   4.064  0.0539  0.4037 -0.5900
   74SLPC  H17R 6606   2.692   4.742   4.012  1.0279 -0.7927 -2.7531
   74SLPC  H17S 6607   2.829   4.627   4.069  0.2590  0.4963 -0.3142
   74SLPC  C218 6608   2.890   4.817   3.994  0.3253 -0.4521  0.0910
   74SLPC  H18R 6609   2.995   4.796   4.025  0.6822  1.9563  0.6582
   74SLPC  H18S 6610   2.876   4.926   4.012  0.5742 -0.5889  1.1076
   74SLPC  H18T 6611   2.874   4.788   3.888 -0.2064 -1.9725  0.5848
   74SLPC   C33 6612   2.644   4.249   5.109 -0.2948 -0.3289  0.4107
   74SLPC   H3X 6613   2.752   4.223   5.108 -0.1433  0.2765  0.9305
   74SLPC   H3Y 6614   2.653   4.357   5.130 -2.5661 -0.8101  4.2999
   74SLPC   C34 6615   2.579   4.208   4.976  0.3135 -0.3932 -0.6520
   74SLPC   H4X 6616   2.601   4.099   4.964  0.0013 -0.3544 -1.6365
   74SLPC   H4Y 6617   2.637   4.264   4.899  3.7722 -0.5804  1.6903
   74SLPC   C35 6618   2.429   4.228   4.970 -0.5831  0.6931  0.5338
   74SLPC   H5X 6619   2.403   4.329   5.008  0.0634  1.2873 -0.5843
   74SLPC   H5Y 6620   2.367   4.154   5.026  1.9444 -0.6544  1.6544
   74SLPC   C36 6621   2.380   4.224   4.824  0.0676  0.8928 -0.7241
   74SLPC   H6X 6622   2.412   4.128   4.779 -0.3204  0.5287 -0.2302
   74SLPC   H6Y 6623   2.431   4.301   4.762  0.4350  0.7318 -0.6187
   74SLPC   C37 6624   2.228   4.244   4.811  0.0114  0.0833 -0.3068
   74SLPC   H7X 6625   2.174   4.265   4.906  1.6460  0.6006  0.5128
   74SLPC   H7Y 6626   2.178   4.146   4.794 -0.8167  0.3847  0.3023
   74SLPC   C38 6627   2.178   4.341   4.707  0.2514 -0.3669  0.2193
   74SLPC   H8X 6628   2.229   4.440   4.713 -0.4747  0.0120  0.1906
   74SLPC   H8Y 6629   2.070   4.368   4.710  1.2457  4.0008 -0.3942
   74SLPC   C39 6630   2.211   4.281   4.569 -0.2890 -0.2823 -0.2005
   74SLPC   H9X 6631   2.146   4.192   4.557 -0.2168 -0.3928  0.2157
   74SLPC   H9Y 6632   2.315   4.248   4.549  0.0566  0.3724  0.5267
   74SLPC  C310 6633   2.182   4.382   4.454 -0.3595  0.0839 -0.1420
   74SLPC  H10X 6634   2.233   4.477   4.477 -2.7795  1.1731  0.9817
   74SLPC  H10Y 6635   2.075   4.412   4.459 -1.1692 -2.5916 -0.5112
   74SLPC  C311 6636   2.223   4.332   4.314  0.3405 -0.3111  0.4419
   74SLPC  H11X 6637   2.175   4.231   4.309 -2.3935  0.9315  0.5918
   74SLPC  H11Y 6638   2.333   4.331   4.328  0.4336  0.9425 -0.1988
   74SLPC  C312 6639   2.180   4.428   4.202 -0.1811  0.0514 -0.4371
   74SLPC  H12X 6640   2.220   4.527   4.231  1.7593 -1.0756  0.8701
   74SLPC  H12Y 6641   2.069   4.435   4.208  0.0307  2.5059  1.5936
   74SLPC  C313 6642   2.231   4.399   4.056 -0.0841 -0.7357 -0.3695
   74SLPC  H13X 6643   2.190   4.486   4.000  2.9728  1.8757  1.2584
   74SLPC  H13Y 6644   2.186   4.303   4.024  1.1680 -1.6093  0.4576
   74SLPC  C314 6645   2.386   4.387   4.038  0.2601  0.0579  0.1330
   74SLPC  H14X 6646   2.427   4.297   4.088  0.0540  0.3406  0.8195
   74SLPC  H14Y 6647   2.438   4.470   4.091 -0.6940 -0.8943  2.6231
   74SLPC  C315 6648   2.430   4.389   3.889  0.2821  0.5365 -0.3217
   74SLPC  H15X 6649   2.403   4.485   3.841 -0.6031  0.3529 -0.1991
   74SLPC  H15Y 6650   2.389   4.305   3.829  0.3063 -1.5635  2.5282
   74SLPC  C316 6651   2.579   4.366   3.866 -0.5163 -0.0604 -0.1999
   74SLPC  H16X 6652   2.605   4.260   3.888  0.8789 -0.1942 -2.2964
   74SLPC  H16Y 6653   2.631   4.430   3.940 -2.1526  2.2387 -0.9545
   74SLPC  C317 6654   2.611   4.399   3.717  0.1473  0.6406  0.1448
   74SLPC  H17X 6655   2.537   4.361   3.644  1.8393 -1.1683 -0.6697
   74SLPC  H17Y 6656   2.707   4.349   3.690  0.3291  1.2340 -0.3353
   74SLPC  C318 6657   2.626   4.552   3.693 -0.3973 -0.1483  0.5980
   74SLPC  H18X 6658   2.532   4.611   3.689  0.3498  1.0871  1.0120
   74SLPC  H18Y 6659   2.684   4.579   3.602 -0.0807 -0.6361  0.6536
   74SLPC  H18Z 6660   2.692   4.588   3.775  1.8636 -2.0152 -0.3349
   75SLPC     N 6661   5.915   4.360   6.218 -0.0252 -0.0571  0.7221
   75SLPC   C13 6662   5.836   4.357   6.347  0.5958  0.3580 -0.2063
   75SLPC  H13A 6663   5.850   4.457   6.386  0.3587  0.2432  0.1694
   75SLPC  H13B 6664   5.731   4.338   6.337  0.4349  0.9708  0.2724
   75SLPC  H13C 6665   5.883   4.283   6.409 -0.1486  0.0257 -0.0384
   75SLPC   C14 6666   5.909   4.222   6.150  0.5302  0.3170  0.3449
   75SLPC  H14A 6667   5.809   4.183   6.138  0.1005  2.1299 -2.3526
   75SLPC  H14B 6668   5.968   4.210   6.061  0.5615  0.0995  0.3962
   75SLPC  H14C 6669   5.937   4.148   6.224  0.7694 -0.1463 -0.2089
   75SLPC   C15 6670   6.058   4.396   6.252 -0.1885  0.4520  0.3091
   75SLPC  H15A 6671   6.049   4.473   6.326 -2.8574 -1.3512  1.9503
   75SLPC  H15B 6672   6.108   4.318   6.307 -2.9954 -0.8681  1.0925
   75SLPC  H15C 6673   6.124   4.426   6.172 -0.5006  2.6812  0.8618
   75SLPC   C12 6674   5.858   4.469   6.133  0.1681 -0.2464  0.2264
   75SLPC  H12A 6675   5.879   4.570   6.167 -2.0837  0.7515 -1.1795
   75SLPC  H12B 6676   5.750   4.466   6.135  0.0268  2.5669 -0.2984
   75SLPC   C11 6677   5.906   4.469   5.983  1.0244 -0.4652 -0.6800
   75SLPC  H11A 6678   5.826   4.499   5.912  0.0126  1.6577  1.3068
   75SLPC  H11B 6679   5.943   4.368   5.952  0.7179 -1.2728  1.5203
   75SLPC     P 6680   6.157   4.551   5.916  0.2842  0.0726  0.1236
   75SLPC   O13 6681   6.205   4.690   5.880  0.3222  0.1457  0.0154
   75SLPC   O14 6682   6.240   4.485   6.019 -0.1148 -0.6221 -0.5851
   75SLPC   O12 6683   6.009   4.562   5.961  0.0903  0.2537 -0.0588
   75SLPC   O11 6684   6.150   4.463   5.787  0.1931  0.3143 -0.2840
   75SLPC    C1 6685   6.138   4.534   5.660 -0.5747  0.3825 -0.3609
   75SLPC    HA 6686   6.225   4.601   5.642 -2.0912  2.4012 -0.3808
   75SLPC    HB 6687   6.159   4.457   5.583 -2.5728  0.4306 -0.9747
   75SLPC    C2 6688   5.997   4.604   5.639 -0.3723  0.1150 -0.2247
   75SLPC    HS 6689   5.955   4.642   5.735 -0.2897  1.6365 -0.7813
   75SLPC   O21 6690   5.905   4.517   5.561 -0.0933 -0.4193  0.1160
   75SLPC   C21 6691   5.775   4.526   5.586  0.2404 -0.0518  0.4019
   75SLPC   O22 6692   5.725   4.626   5.638 -0.4004  0.3608  0.8820
   75SLPC   C22 6693   5.713   4.392   5.555  0.4058 -0.0381  0.5384
   75SLPC   H2R 6694   5.767   4.318   5.618 -0.9682 -1.5644 -0.0574
   75SLPC   H2S 6695   5.604   4.386   5.573 -0.3888  3.4333 -2.5829
   75SLPC    C3 6696   6.015   4.730   5.552  0.3374  0.3467 -0.5219
   75SLPC    HX 6697   6.059   4.812   5.613  1.6679 -1.0264  0.4000
   75SLPC    HY 6698   5.914   4.762   5.519  0.4863  0.9289 -0.4315
   75SLPC   O31 6699   6.094   4.711   5.436 -0.0335  0.0488  0.2332
   75SLPC   C31 6700   6.041   4.705   5.312  1.0926 -0.2641 -0.3201
   75SLPC   O32 6701   5.927   4.728   5.282  0.3031 -0.7836 -0.0507
   75SLPC   C32 6702   6.147   4.654   5.207 -0.2003  0.0306 -1.0197
   75SLPC   H2X 6703   6.201   4.575   5.263  1.6291  1.9860  0.0232
   75SLPC   H2Y 6704   6.203   4.748   5.190 -1.7289  1.7386  2.8307
   75SLPC   C23 6705   5.737   4.355   5.411 -0.7315 -0.4889 -0.2084
   75SLPC   H3R 6706   5.747   4.247   5.388 -0.2238  0.0211 -2.4564
   75SLPC   H3S 6707   5.840   4.387   5.384  0.0229 -2.0630  0.7174
   75SLPC   C24 6708   5.647   4.420   5.308  0.2098  0.0531  0.8615
   75SLPC   H4R 6709   5.661   4.530   5.312 -1.8913  0.3685  0.1846
   75SLPC   H4S 6710   5.543   4.382   5.321 -1.2763  3.1697 -1.1479
   75SLPC   C25 6711   5.691   4.366   5.173 -0.0505 -0.0409 -0.1821
   75SLPC   H5R 6712   5.668   4.257   5.175  3.3710 -0.8105  1.2448
   75SLPC   H5S 6713   5.801   4.376   5.163  0.0657 -1.5512 -0.4206
   75SLPC   C26 6714   5.624   4.434   5.057  0.2040  0.1982 -0.4337
   75SLPC   H6R 6715   5.625   4.379   4.960  0.2250 -1.4033  0.4629
   75SLPC   H6S 6716   5.667   4.536   5.040 -0.0091  0.5394  1.0477
   75SLPC   C27 6717   5.469   4.449   5.087 -0.7478  0.6187  0.4597
   75SLPC   H7R 6718   5.457   4.517   5.174  2.5946 -0.5679  1.9412
   75SLPC   H7S 6719   5.431   4.349   5.119  0.4800 -0.2641 -0.7716
   75SLPC   C28 6720   5.397   4.505   4.963  0.4226  0.6860 -0.1338
   75SLPC   H8R 6721   5.452   4.594   4.924  0.7114  0.9609  0.8662
   75SLPC   H8S 6722   5.293   4.541   4.975  0.0759 -0.0070 -1.0734
   75SLPC   C29 6723   5.390   4.388   4.869 -0.0129  0.3657  0.6551
   75SLPC   H9R 6724   5.372   4.284   4.900 -0.5484  0.4435  0.5964
   75SLPC  C210 6725   5.403   4.409   4.735 -0.5348  0.2268 -0.1938
   75SLPC  H10R 6726   5.404   4.319   4.672 -1.4034  0.0023  0.1112
   75SLPC  C211 6727   5.429   4.540   4.662  0.0669  0.4646 -0.8514
   75SLPC  H11R 6728   5.457   4.520   4.556 -1.6085 -1.6110 -0.9427
   75SLPC  H11S 6729   5.517   4.596   4.701 -1.8175  1.0418  2.8235
   75SLPC  C212 6730   5.311   4.631   4.675  0.9948 -0.2877 -0.1402
   75SLPC  H12R 6731   5.241   4.610   4.757  1.0342  1.0698  0.2628
   75SLPC  C213 6732   5.278   4.717   4.579 -0.0413 -0.4057 -0.0707
   75SLPC  H13R 6733   5.184   4.772   4.593  0.6974  0.8987 -0.1485
   75SLPC  C214 6734   5.355   4.741   4.450  0.6454 -0.2004 -0.3668
   75SLPC  H14R 6735   5.337   4.657   4.379 -2.4423 -0.4165  0.5725
   75SLPC  H14S 6736   5.463   4.746   4.472  0.2474 -2.2632  2.2608
   75SLPC  C215 6737   5.310   4.859   4.368 -0.2822  0.1201  0.5099
   75SLPC  H15R 6738   5.203   4.850   4.340  0.1555  0.0044 -1.1858
   75SLPC  H15S 6739   5.368   4.858   4.274  0.9902  3.2514  1.2075
   75SLPC  C216 6740   5.334   4.998   4.434  0.7941  0.5772 -0.4589
   75SLPC  H16R 6741   5.436   5.011   4.474  1.0249  1.1103 -1.2164
   75SLPC  H16S 6742   5.260   4.999   4.517  0.9756  1.3075 -0.3106
   75SLPC  C217 6743   5.320   5.117   4.340  0.1457 -0.0421  0.1866
   75SLPC  H17R 6744   5.322   5.207   4.405  0.7093 -0.0431  0.1703
   75SLPC  H17S 6745   5.231   5.108   4.274 -0.7750  0.8827  1.2853
   75SLPC  C218 6746   5.444   5.127   4.250  0.6391  0.0800 -0.1850
   75SLPC  H18R 6747   5.546   5.135   4.295  0.1762  3.1977  0.4516
   75SLPC  H18S 6748   5.440   5.228   4.203 -0.6395  0.6586  1.1494
   75SLPC  H18T 6749   5.439   5.057   4.164  0.0506  2.0374 -1.7991
   75SLPC   C33 6750   6.093   4.600   5.067 -0.0021  0.6119 -0.3810
   75SLPC   H3X 6751   6.067   4.692   5.010 -1.9601  0.1868 -0.2202
   75SLPC   H3Y 6752   6.002   4.538   5.081 -0.7282  1.8701  0.5688
   75SLPC   C34 6753   6.204   4.526   4.990 -0.7146 -0.1837 -0.5593
   75SLPC   H4X 6754   6.217   4.431   5.046 -0.7357  0.7335  1.0642
   75SLPC   H4Y 6755   6.301   4.580   4.988  0.1425 -1.5926  1.4266
   75SLPC   C35 6756   6.167   4.489   4.847  0.3979 -0.9265  0.9152
   75SLPC   H5X 6757   6.104   4.398   4.850 -0.0988 -0.5799  1.1484
   75SLPC   H5Y 6758   6.257   4.462   4.788 -0.5199 -0.7880 -0.5709
   75SLPC   C36 6759   6.095   4.608   4.776 -0.5455  0.2859  0.0886
   75SLPC   H6X 6760   6.133   4.710   4.801  0.9887  0.4619 -2.6992
   75SLPC   H6Y 6761   5.989   4.621   4.805 -0.7076  1.1170 -0.8088
   75SLPC   C37 6762   6.092   4.596   4.622  0.0585  0.1850  0.2325
   75SLPC   H7X 6763   6.196   4.598   4.582 -0.0116 -1.0674 -0.0099
   75SLPC   H7Y 6764   6.031   4.676   4.574  0.0255 -0.1653 -0.3079
   75SLPC   C38 6765   6.036   4.457   4.569 -0.0927  0.0544  0.4015
   75SLPC   H8X 6766   6.077   4.372   4.627  0.3790  1.4013  2.0877
   75SLPC   H8Y 6767   6.064   4.441   4.463  0.9154 -0.5171  0.7509
   75SLPC   C39 6768   5.881   4.437   4.574 -0.5799  0.2217 -0.7594
   75SLPC   H9X 6769   5.838   4.536   4.547 -1.4098  0.0977  0.0726
   75SLPC   H9Y 6770   5.857   4.425   4.682  0.1769  0.1276 -0.5991
   75SLPC  C310 6771   5.825   4.319   4.496  0.2117  0.2338  0.1614
   75SLPC  H10X 6772   5.877   4.225   4.523 -0.4044  0.3056  1.6945
   75SLPC  H10Y 6773   5.848   4.333   4.389  2.8065 -1.1460  0.5090
   75SLPC  C311 6774   5.680   4.294   4.530  0.3619  0.0893  0.0514
   75SLPC  H11X 6775   5.614   4.382   4.519 -0.6421 -0.1933  3.3726
   75SLPC  H11Y 6776   5.687   4.275   4.639  0.3753  0.3903  0.1023
   75SLPC  C312 6777   5.631   4.174   4.444 -0.3242 -0.0771  0.3677
   75SLPC  H12X 6778   5.688   4.079   4.453  0.7755  0.6770  1.4615
   75SLPC  H12Y 6779   5.633   4.207   4.338 -0.9940  1.8641  0.9433
   75SLPC  C313 6780   5.478   4.133   4.457  0.6000  0.1438 -0.1538
   75SLPC  H13X 6781   5.429   4.143   4.358 -1.1529  1.2618  0.8051
   75SLPC  H13Y 6782   5.431   4.205   4.527  0.5543  0.2546 -0.2979
   75SLPC  C314 6783   5.463   3.997   4.518  0.3921  0.6531  0.1916
   75SLPC  H14X 6784   5.513   3.994   4.617 -2.1220 -1.5224  1.4503
   75SLPC  H14Y 6785   5.513   3.919   4.456 -0.2528  1.7412 -1.7331
   75SLPC  C315 6786   5.314   3.953   4.551  0.9443  0.4215 -0.6349
   75SLPC  H15X 6787   5.263   4.040   4.599  1.5233 -0.0502  0.8586
   75SLPC  H15Y 6788   5.302   3.857   4.605  1.4332  0.7136  0.0061
   75SLPC  C316 6789   5.235   3.935   4.414  0.0147 -0.3096  0.3069
   75SLPC  H16X 6790   5.275   3.839   4.375 -0.4995 -0.6903  0.7056
   75SLPC  H16Y 6791   5.251   4.024   4.350 -1.8138  0.1956  0.5239
   75SLPC  C317 6792   5.082   3.937   4.422  0.1302 -0.6493  0.0588
   75SLPC  H17X 6793   5.042   3.905   4.323  0.2377 -2.1034  0.4697
   75SLPC  H17Y 6794   5.047   4.039   4.449 -2.1463 -1.0515 -1.2421
   75SLPC  C318 6795   5.025   3.833   4.523  0.4468  0.2167  1.2573
   75SLPC  H18X 6796   5.066   3.732   4.505  1.3304  0.9714 -1.1056
   75SLPC  H18Y 6797   4.914   3.843   4.526  0.5376  2.4885 -0.8760
   75SLPC  H18Z 6798   5.062   3.863   4.623  3.1651  2.7142 -0.4162
   76SLPC     N 6799   6.999   3.258   6.021 -0.4989  0.0064  0.2199
   76SLPC   C13 6800   6.899   3.203   6.116 -0.2745  0.1206  0.2370
   76SLPC  H13A 6801   6.842   3.285   6.156  0.7044  0.5984  0.6429
   76SLPC  H13B 6802   6.818   3.147   6.070 -0.5222  0.4484  0.2720
   76SLPC  H13C 6803   6.945   3.153   6.200 -0.5761  2.7460  2.0102
   76SLPC   C14 6804   6.917   3.310   5.907  0.4942  0.2960  0.4965
   76SLPC  H14A 6805   6.859   3.396   5.939 -2.2536 -2.1996  2.5713
   76SLPC  H14B 6806   6.979   3.340   5.824 -0.7268 -0.0754 -0.5761
   76SLPC  H14C 6807   6.856   3.229   5.868  2.1827 -0.6214 -0.2761
   76SLPC   C15 6808   7.087   3.150   5.970 -0.0179  0.2403 -0.5642
   76SLPC  H15A 6809   7.180   3.190   5.931 -0.2024  3.9685  2.5889
   76SLPC  H15B 6810   7.112   3.095   6.060  1.0961  1.5151 -0.0811
   76SLPC  H15C 6811   7.033   3.080   5.907  0.1475  0.0935 -0.5433
   76SLPC   C12 6812   7.078   3.372   6.088  0.5852 -0.7078 -0.4242
   76SLPC  H12A 6813   7.150   3.409   6.016  3.1272 -0.6677  2.0556
   76SLPC  H12B 6814   7.137   3.325   6.165  0.6415 -0.7933 -0.5200
   76SLPC   C11 6815   7.000   3.483   6.139 -0.3904 -0.0967 -0.6184
   76SLPC  H11A 6816   7.066   3.540   6.207 -1.7117 -0.1594  0.7364
   76SLPC  H11B 6817   6.925   3.436   6.206 -0.7967 -0.3902 -1.2697
   76SLPC     P 6818   6.999   3.689   5.975 -0.0418  0.1322 -0.2660
   76SLPC   O13 6819   7.028   3.794   6.071  0.3207 -0.0179  0.3981
   76SLPC   O14 6820   7.110   3.636   5.891  0.1994  0.0283  0.1637
   76SLPC   O12 6821   6.932   3.567   6.047 -0.5370  0.6949 -0.6109
   76SLPC   O11 6822   6.874   3.747   5.895  0.0905  0.2999  0.3167
   76SLPC    C1 6823   6.792   3.649   5.825 -0.0305  0.1114  0.0671
   76SLPC    HA 6824   6.815   3.543   5.848  0.8309  0.4254  0.6715
   76SLPC    HB 6825   6.690   3.661   5.866  0.6046 -0.3100  1.7952
   76SLPC    C2 6826   6.792   3.672   5.672 -0.0169  1.1875  0.6124
   76SLPC    HS 6827   6.721   3.598   5.628 -0.8543  0.9821  2.2676
   76SLPC   O21 6828   6.926   3.667   5.622 -0.5233  0.0346  0.1843
   76SLPC   C21 6829   6.983   3.551   5.618  0.6285 -0.6043  0.7920
   76SLPC   O22 6830   6.932   3.445   5.643 -0.1721 -0.0729 -0.4322
   76SLPC   C22 6831   7.117   3.576   5.556  0.1460 -0.5553 -0.1558
   76SLPC   H2R 6832   7.164   3.669   5.596  1.1675 -0.4779 -1.4935
   76SLPC   H2S 6833   7.179   3.495   5.599  0.1757 -0.0955  0.6687
   76SLPC    C3 6834   6.715   3.806   5.636  0.1724  0.2962 -0.2032
   76SLPC    HX 6835   6.762   3.897   5.680 -1.6248  0.6260  1.0881
   76SLPC    HY 6836   6.614   3.797   5.682  0.9819  0.9161  1.7438
   76SLPC   O31 6837   6.681   3.804   5.501  0.4513 -0.3673  0.5626
   76SLPC   C31 6838   6.756   3.875   5.415 -0.2603  0.0278  0.2671
   76SLPC   O32 6839   6.833   3.965   5.449 -0.7036 -0.0927  0.2653
   76SLPC   C32 6840   6.732   3.823   5.270 -0.6343 -0.1373  0.3539
   76SLPC   H2X 6841   6.637   3.867   5.233 -1.4050 -1.6202  0.5158
   76SLPC   H2Y 6842   6.707   3.715   5.275  0.9628 -0.5173  0.4263
   76SLPC   C23 6843   7.123   3.557   5.403  0.5591 -0.6264  0.1829
   76SLPC   H3R 6844   7.028   3.587   5.354  0.7157  1.6391  1.1619
   76SLPC   H3S 6845   7.133   3.451   5.374 -0.5111 -1.1588  1.6743
   76SLPC   C24 6846   7.239   3.634   5.339  0.2341  0.7922 -0.3102
   76SLPC   H4R 6847   7.329   3.623   5.403  0.5586  0.7373 -0.7758
   76SLPC   H4S 6848   7.219   3.743   5.325  0.3064  0.8830  0.2819
   76SLPC   C25 6849   7.277   3.592   5.200  0.8118 -0.0142  0.2376
   76SLPC   H5R 6850   7.306   3.485   5.204  0.9979 -0.1084 -2.6307
   76SLPC   H5S 6851   7.370   3.650   5.183 -0.4699  2.1018  0.1385
   76SLPC   C26 6852   7.173   3.617   5.089 -0.3032 -0.1604 -0.4463
   76SLPC   H6R 6853   7.145   3.725   5.097  0.3471  0.0036 -0.3375
   76SLPC   H6S 6854   7.076   3.566   5.105  0.7407 -1.6920  1.0754
   76SLPC   C27 6855   7.231   3.591   4.949  0.4032 -0.4271  0.9502
   76SLPC   H7R 6856   7.329   3.643   4.943 -0.0011  0.0536 -2.7858
   76SLPC   H7S 6857   7.157   3.628   4.875  0.8634  0.5090  0.9540
   76SLPC   C28 6858   7.245   3.441   4.924  0.6948  0.7129 -0.5166
   76SLPC   H8R 6859   7.145   3.393   4.930  0.1737  1.8603  0.1824
   76SLPC   H8S 6860   7.310   3.420   5.011 -1.3018  1.7983  1.2964
   76SLPC   C29 6861   7.317   3.408   4.801 -0.1913  0.6200 -0.5232
   76SLPC   H9R 6862   7.409   3.467   4.784  0.2434 -0.4041 -1.7339
   76SLPC  C210 6863   7.297   3.308   4.715 -0.7851  0.4760 -0.0050
   76SLPC  H10R 6864   7.371   3.292   4.635  0.5950  1.4030  1.0604
   76SLPC  C211 6865   7.191   3.198   4.722 -0.1570 -0.1220  0.3930
   76SLPC  H11R 6866   7.109   3.233   4.655 -0.0276 -1.4319 -0.4678
   76SLPC  H11S 6867   7.156   3.195   4.828  2.0486  0.0132  1.1439
   76SLPC  C212 6868   7.250   3.068   4.670  0.1180  0.1722  0.8768
   76SLPC  H12R 6869   7.345   3.076   4.614  0.8245 -0.9026  1.9043
   76SLPC  C213 6870   7.192   2.948   4.661  0.1949  0.1132 -0.3318
   76SLPC  H13R 6871   7.240   2.872   4.597 -0.2396  1.0370 -1.7693
   76SLPC  C214 6872   7.057   2.923   4.721  1.2619  0.2265 -0.1115
   76SLPC  H14R 6873   7.012   3.020   4.748  0.6416  0.0095 -0.3726
   76SLPC  H14S 6874   7.073   2.878   4.822  0.3037  0.7536  0.2834
   76SLPC  C215 6875   6.956   2.845   4.641 -0.1190  0.1800  0.3540
   76SLPC  H15R 6876   6.872   2.816   4.708 -1.3193 -1.0779 -1.6457
   76SLPC  H15S 6877   6.997   2.746   4.613 -0.7601  0.0378 -0.0893
   76SLPC  C216 6878   6.900   2.918   4.524 -0.7021 -0.4484  0.1092
   76SLPC  H16R 6879   6.968   2.890   4.441  0.3937  1.1507  0.4374
   76SLPC  H16S 6880   6.918   3.026   4.544 -2.1272 -0.2231  0.2376
   76SLPC  C217 6881   6.751   2.872   4.489 -0.0236  0.2607  0.0720
   76SLPC  H17R 6882   6.689   2.950   4.441 -0.0922 -0.8825 -1.7544
   76SLPC  H17S 6883   6.692   2.862   4.582  0.0137 -1.9830 -0.1202
   76SLPC  C218 6884   6.755   2.744   4.403 -0.2330 -0.4160 -0.8229
   76SLPC  H18R 6885   6.655   2.695   4.400 -0.6998  0.4123  0.3317
   76SLPC  H18S 6886   6.830   2.669   4.436  1.0263  0.5831 -1.3742
   76SLPC  H18T 6887   6.774   2.768   4.296 -1.2473  0.4640 -0.8228
   76SLPC   C33 6888   6.843   3.857   5.167  0.4093 -0.0013  0.5785
   76SLPC   H3X 6889   6.941   3.815   5.199 -1.9899 -5.4212  1.2338
   76SLPC   H3Y 6890   6.838   3.966   5.147 -1.0400  0.1577  1.7340
   76SLPC   C34 6891   6.814   3.794   5.035 -0.3402  0.4291 -0.9985
   76SLPC   H4X 6892   6.893   3.804   4.957 -0.7498  0.8918 -1.3589
   76SLPC   H4Y 6893   6.727   3.836   4.980 -1.4742 -1.1710 -0.4637
   76SLPC   C35 6894   6.769   3.645   5.039 -0.2805  0.2296 -0.1155
   76SLPC   H5X 6895   6.673   3.618   5.088  0.5185 -2.7610 -0.0887
   76SLPC   H5Y 6896   6.836   3.591   5.109  1.5543  0.8362 -1.3654
   76SLPC   C36 6897   6.775   3.586   4.899  0.4166 -0.5022  0.8772
   76SLPC   H6X 6898   6.880   3.585   4.864  0.4496  1.7087  0.8076
   76SLPC   H6Y 6899   6.729   3.654   4.824 -0.5518  0.2062  2.0823
   76SLPC   C37 6900   6.727   3.439   4.883  0.2018  0.2615  0.2336
   76SLPC   H7X 6901   6.624   3.427   4.923 -0.3146  0.5396 -1.0071
   76SLPC   H7Y 6902   6.796   3.366   4.931 -0.7897  0.9226  2.7269
   76SLPC   C38 6903   6.723   3.393   4.736 -0.0711 -0.8575  0.8851
   76SLPC   H8X 6904   6.654   3.456   4.675  4.6645  2.2978 -1.4897
   76SLPC   H8Y 6905   6.691   3.286   4.739  1.2352 -1.2618  0.6714
   76SLPC   C39 6906   6.860   3.385   4.677 -0.3111 -0.2180 -0.4488
   76SLPC   H9X 6907   6.923   3.309   4.727  1.1438  0.7925 -0.6881
   76SLPC   H9Y 6908   6.921   3.478   4.683  0.4729 -0.7191 -0.5761
   76SLPC  C310 6909   6.857   3.352   4.526 -0.0585 -0.3969  0.0753
   76SLPC  H10X 6910   6.767   3.290   4.504 -0.1782 -0.2327  0.0983
   76SLPC  H10Y 6911   6.938   3.280   4.502  0.9635  0.6347  0.4313
   76SLPC  C311 6912   6.853   3.476   4.434  0.4285  0.6489  0.1811
   76SLPC  H11X 6913   6.878   3.570   4.488 -0.5679  1.6768 -1.0970
   76SLPC  H11Y 6914   6.748   3.497   4.403  1.3949  2.7004 -1.8166
   76SLPC  C312 6915   6.932   3.468   4.305  0.1938 -0.2081  0.6955
   76SLPC  H12X 6916   6.873   3.395   4.245  1.9257 -0.7796 -0.3706
   76SLPC  H12Y 6917   7.036   3.435   4.326 -0.5142 -2.0368  1.4324
   76SLPC  C313 6918   6.934   3.603   4.218  0.1045  0.5766  0.1125
   76SLPC  H13X 6919   6.998   3.678   4.270 -0.9146  0.2536  1.8450
   76SLPC  H13Y 6920   6.826   3.624   4.210 -0.3564 -0.8847  2.1370
   76SLPC  C314 6921   7.011   3.583   4.088 -0.3516 -0.3222 -0.2409
   76SLPC  H14X 6922   6.976   3.495   4.031 -0.9484 -0.1759 -0.1054
   76SLPC  H14Y 6923   7.118   3.574   4.118 -0.5584  0.0308  0.6318
   76SLPC  C315 6924   6.985   3.717   4.022  0.2447 -0.7040  0.6839
   76SLPC  H15X 6925   7.022   3.797   4.089  0.8858  0.4550 -1.0260
   76SLPC  H15Y 6926   6.876   3.731   4.005  0.2712 -0.1951  0.9320
   76SLPC  C316 6927   7.068   3.729   3.892  0.6868 -0.3999  0.3967
   76SLPC  H16X 6928   7.084   3.837   3.868  2.2031 -0.3989  1.2639
   76SLPC  H16Y 6929   7.013   3.679   3.811 -1.1748  2.3019 -0.0640
   76SLPC  C317 6930   7.210   3.657   3.891 -0.1920 -0.2647  0.6097
   76SLPC  H17X 6931   7.201   3.547   3.902  0.8576 -0.2811  1.3390
   76SLPC  H17Y 6932   7.268   3.685   3.981  1.6269  1.6869 -1.1062
   76SLPC  C318 6933   7.290   3.689   3.765 -0.4346  0.2060 -0.4850
   76SLPC  H18X 6934   7.366   3.612   3.740  0.3096  0.9175 -0.4382
   76SLPC  H18Y 6935   7.350   3.783   3.762 -2.6263  1.6907  0.6993
   76SLPC  H18Z 6936   7.219   3.696   3.680 -1.9871 -0.7871  0.7133
   77SLPC     N 6937   1.046   4.152   6.224  0.1573 -0.7459 -0.0168
   77SLPC   C13 6938   1.076   4.298   6.249 -0.0721 -0.5071  0.4685
   77SLPC  H13A 6939   1.179   4.321   6.224 -0.7592 -0.4131 -2.5072
   77SLPC  H13B 6940   1.019   4.362   6.182 -0.3743 -0.9749  0.2797
   77SLPC  H13C 6941   1.065   4.330   6.351 -0.5686 -0.1808  0.3174
   77SLPC   C14 6942   1.137   4.069   6.318  0.5165  0.1037 -0.3811
   77SLPC  H14A 6943   1.243   4.077   6.302  0.6799 -0.2557  0.4827
   77SLPC  H14B 6944   1.121   4.105   6.419 -0.8855 -0.1706 -0.4947
   77SLPC  H14C 6945   1.131   3.965   6.288  1.1344 -0.2261  0.6297
   77SLPC   C15 6946   1.098   4.113   6.089  0.6113  0.2186  0.3585
   77SLPC  H15A 6947   1.202   4.140   6.074  0.8026  0.5073  2.1161
   77SLPC  H15B 6948   1.091   4.006   6.075  1.8344  0.2093 -0.2876
   77SLPC  H15C 6949   1.036   4.144   6.006  1.2528 -1.0585 -0.6196
   77SLPC   C12 6950   0.897   4.129   6.245 -0.9238  0.6583 -1.1806
   77SLPC  H12A 6951   0.863   4.149   6.345 -1.5067  0.4621 -1.3393
   77SLPC  H12B 6952   0.872   4.025   6.236 -0.9226  0.7177 -1.9420
   77SLPC   C11 6953   0.806   4.212   6.148  0.3585 -0.3708  0.4836
   77SLPC  H11A 6954   0.809   4.170   6.045  0.0212  0.4016  0.1474
   77SLPC  H11B 6955   0.827   4.321   6.139 -1.5012 -0.1034 -1.1888
   77SLPC     P 6956   0.568   4.086   6.144 -0.4796  0.1731  0.1502
   77SLPC   O13 6957   0.623   3.959   6.186  0.0395 -0.1141 -0.4028
   77SLPC   O14 6958   0.432   4.114   6.202  0.6700  0.1863  0.4657
   77SLPC   O12 6959   0.667   4.200   6.190 -0.6061  0.4068  0.2087
   77SLPC   O11 6960   0.584   4.093   5.991  0.3924 -1.1226  0.0995
   77SLPC    C1 6961   0.557   4.221   5.929 -1.2210  0.0472  0.5897
   77SLPC    HA 6962   0.556   4.297   6.010 -1.1769  1.2777 -0.5456
   77SLPC    HB 6963   0.638   4.254   5.861 -0.3707 -0.8707  1.1526
   77SLPC    C2 6964   0.429   4.225   5.844  0.3293 -0.3198 -0.4605
   77SLPC    HS 6965   0.345   4.238   5.916  1.3264  3.3240  0.1788
   77SLPC   O21 6966   0.406   4.097   5.777  0.6786  0.2616  0.2423
   77SLPC   C21 6967   0.279   4.079   5.726  0.3882  0.5921  1.1325
   77SLPC   O22 6968   0.192   4.161   5.750  0.0002  0.7957  0.2306
   77SLPC   C22 6969   0.274   3.958   5.626 -0.1862  0.0826 -0.3438
   77SLPC   H2R 6970   0.360   3.982   5.559 -0.7090 -0.0241 -1.0545
   77SLPC   H2S 6971   0.304   3.874   5.693 -2.0630 -1.8911 -1.9167
   77SLPC    C3 6972   0.427   4.345   5.742  0.5941  0.5746  0.4607
   77SLPC    HX 6973   0.440   4.434   5.807  0.6657  1.2339 -0.4531
   77SLPC    HY 6974   0.324   4.350   5.702  0.4240  0.7019  0.9086
   77SLPC   O31 6975   0.535   4.325   5.645  0.9109 -0.0900 -0.2471
   77SLPC   C31 6976   0.501   4.295   5.528  0.0952  0.2942  0.5012
   77SLPC   O32 6977   0.398   4.245   5.497 -0.1583  0.9741  0.0118
   77SLPC   C32 6978   0.618   4.323   5.433  0.7167 -0.0348 -0.3043
   77SLPC   H2X 6979   0.706   4.342   5.498  1.1170  1.0814 -1.1453
   77SLPC   H2Y 6980   0.599   4.422   5.386 -0.2198 -0.1345 -0.1451
   77SLPC   C23 6981   0.146   3.939   5.538  0.0077  0.3515 -0.0518
   77SLPC   H3R 6982   0.115   4.044   5.519 -0.9893  0.2798  1.1468
   77SLPC   H3S 6983   0.070   3.881   5.594 -0.4733 -0.0526 -1.1127
   77SLPC   C24 6984   0.180   3.867   5.405 -0.2991 -0.2608 -0.7915
   77SLPC   H4R 6985   0.081   3.851   5.359 -1.1818 -1.4619  1.4260
   77SLPC   H4S 6986   0.211   3.764   5.434  0.8067  0.2255 -0.2003
   77SLPC   C25 6987   0.264   3.940   5.299 -0.4802 -0.8238 -0.0010
   77SLPC   H5R 6988   0.355   3.993   5.335 -0.5395  0.6887 -1.9526
   77SLPC   H5S 6989   0.207   4.020   5.247 -0.7265 -0.8014  0.3067
   77SLPC   C26 6990   0.324   3.851   5.189 -0.2744  0.4706  0.3974
   77SLPC   H6R 6991   0.248   3.773   5.168  0.0906  0.0361  0.6670
   77SLPC   H6S 6992   0.415   3.790   5.210  0.0638  0.5922 -0.6957
   77SLPC   C27 6993   0.348   3.934   5.063 -0.2023  0.2244 -0.2157
   77SLPC   H7R 6994   0.428   4.003   5.096 -0.6413  1.0260 -0.8275
   77SLPC   H7S 6995   0.257   3.996   5.048 -0.2045  0.7270  1.7673
   77SLPC   C28 6996   0.400   3.844   4.946 -0.6862  0.1464  0.2581
   77SLPC   H8R 6997   0.491   3.785   4.968 -0.9569 -0.8261 -1.1748
   77SLPC   H8S 6998   0.425   3.914   4.863 -1.5160  0.6649  0.4461
   77SLPC   C29 6999   0.294   3.751   4.900  0.6329  0.1405 -0.2205
   77SLPC   H9R 7000   0.191   3.779   4.926 -0.3292 -1.1912 -2.4461
   77SLPC  C210 7001   0.322   3.632   4.844  0.4170  0.2670  0.4854
   77SLPC  H10R 7002   0.238   3.566   4.819  1.3430  0.1268 -2.5419
   77SLPC  C211 7003   0.461   3.575   4.825  0.1409  0.2383 -0.0616
   77SLPC  H11R 7004   0.500   3.545   4.925 -0.7642  1.9944  0.8502
   77SLPC  H11S 7005   0.530   3.656   4.791 -0.5541  1.3706  1.1448
   77SLPC  C212 7006   0.456   3.452   4.741 -0.2431 -0.0016  0.8204
   77SLPC  H12R 7007   0.444   3.356   4.793 -0.5295 -0.2894  0.2206
   77SLPC  C213 7008   0.453   3.451   4.607 -0.5771 -0.1419 -0.0589
   77SLPC  H13R 7009   0.436   3.361   4.546 -1.2287  0.0660 -0.1800
   77SLPC  C214 7010   0.465   3.574   4.519 -0.2004  0.5481 -0.0672
   77SLPC  H14R 7011   0.484   3.671   4.570  1.8596 -0.6596  1.5462
   77SLPC  H14S 7012   0.372   3.588   4.460 -0.3796  0.7827  0.2711
   77SLPC  C215 7013   0.587   3.571   4.421 -0.2459 -0.7422  0.4042
   77SLPC  H15R 7014   0.683   3.577   4.476 -0.7887 -1.1004  1.4002
   77SLPC  H15S 7015   0.593   3.667   4.364  0.7345  0.6131  2.7333
   77SLPC  C216 7016   0.589   3.452   4.332 -0.5726 -0.1902 -0.1834
   77SLPC  H16R 7017   0.561   3.476   4.227 -1.1339  1.6084  0.3497
   77SLPC  H16S 7018   0.506   3.382   4.354 -1.0617  0.8150  1.3145
   77SLPC  C217 7019   0.737   3.398   4.314  0.0234  0.2597  0.4808
   77SLPC  H17R 7020   0.784   3.392   4.414 -1.2872 -0.0130  1.0907
   77SLPC  H17S 7021   0.789   3.483   4.266  0.8194 -0.2755  0.3906
   77SLPC  C218 7022   0.766   3.274   4.238 -0.4823 -0.1515 -0.3594
   77SLPC  H18R 7023   0.810   3.284   4.136 -2.3878 -1.4956 -1.3304
   77SLPC  H18S 7024   0.676   3.210   4.241 -0.7707  0.1822 -1.6659
   77SLPC  H18T 7025   0.840   3.211   4.293  0.1942  1.3930  0.5317
   77SLPC   C33 7026   0.640   4.214   5.332  0.1576 -0.3033 -0.6995
   77SLPC   H3X 7027   0.720   4.240   5.259  0.1435 -1.9213 -1.3179
   77SLPC   H3Y 7028   0.549   4.190   5.272  0.1015 -1.0548 -0.3170
   77SLPC   C34 7029   0.675   4.077   5.397  0.1668  0.4094 -0.3617
   77SLPC   H4X 7030   0.604   4.042   5.475  0.3584  0.2719 -0.2490
   77SLPC   H4Y 7031   0.777   4.086   5.440  0.0091  1.7076 -0.2391
   77SLPC   C35 7032   0.696   3.964   5.292  0.5505 -0.7251 -0.7085
   77SLPC   H5X 7033   0.595   3.925   5.266  1.0195 -3.1492  0.9150
   77SLPC   H5Y 7034   0.758   3.878   5.324 -0.6624 -2.0410 -1.7915
   77SLPC   C36 7035   0.758   4.011   5.160 -0.2906  0.4783  0.2017
   77SLPC   H6X 7036   0.850   4.071   5.175 -0.8911  1.1529  1.3041
   77SLPC   H6Y 7037   0.691   4.071   5.095 -1.7464 -0.9317  0.3669
   77SLPC   C37 7038   0.786   3.886   5.069  0.3560  0.9569  0.8073
   77SLPC   H7X 7039   0.702   3.813   5.073 -0.3346  1.6217 -1.1125
   77SLPC   H7Y 7040   0.872   3.833   5.114 -0.9577  0.2983  2.6527
   77SLPC   C38 7041   0.814   3.926   4.918 -0.0765  0.9929 -0.0822
   77SLPC   H8X 7042   0.901   3.995   4.915  0.9117 -0.2877 -1.6549
   77SLPC   H8Y 7043   0.721   3.962   4.869 -0.7493 -2.2745 -1.3842
   77SLPC   C39 7044   0.846   3.798   4.835 -0.2404 -0.5550 -0.4998
   77SLPC   H9X 7045   0.782   3.715   4.872 -1.5004  0.4671 -0.3317
   77SLPC   H9Y 7046   0.949   3.761   4.855 -0.4426 -0.3176  1.0654
   77SLPC  C310 7047   0.843   3.817   4.679 -0.1189 -0.7913  0.9796
   77SLPC  H10X 7048   0.735   3.811   4.653 -0.2973 -0.2775  1.5860
   77SLPC  H10Y 7049   0.892   3.733   4.625  1.6018  0.1553  1.0294
   77SLPC  C311 7050   0.921   3.941   4.630  0.0824  0.2257  0.1171
   77SLPC  H11X 7051   1.007   3.964   4.696 -1.1832  1.4203  1.3646
   77SLPC  H11Y 7052   0.869   4.038   4.630  0.3934  0.3954  0.3670
   77SLPC  C312 7053   0.992   3.918   4.487  0.5258  0.9154 -0.3243
   77SLPC  H12X 7054   1.074   3.843   4.480  0.8760  1.2982 -0.3179
   77SLPC  H12Y 7055   1.048   4.013   4.474  0.3646  1.2768  1.4627
   77SLPC  C313 7056   0.896   3.889   4.367 -0.3814  0.0330  0.4163
   77SLPC  H13X 7057   0.831   3.799   4.372 -2.5203  1.4550 -0.8513
   77SLPC  H13Y 7058   0.967   3.879   4.283 -1.6939  0.7048 -0.7875
   77SLPC  C314 7059   0.797   4.018   4.338  0.3670  0.1413 -0.0355
   77SLPC  H14X 7060   0.851   4.113   4.355 -2.0411  1.0919  2.6685
   77SLPC  H14Y 7061   0.719   4.014   4.417  0.1037 -0.1514 -0.3072
   77SLPC  C315 7062   0.720   4.016   4.204 -1.1356  0.0853  0.1926
   77SLPC  H15X 7063   0.793   4.015   4.119 -0.6117 -0.2708  0.6406
   77SLPC  H15Y 7064   0.673   4.117   4.200  2.7727  1.9987 -0.6685
   77SLPC  C316 7065   0.612   3.906   4.205  0.5354  0.2317  0.4859
   77SLPC  H16X 7066   0.563   3.900   4.305  0.1387 -2.2973  0.1756
   77SLPC  H16Y 7067   0.666   3.811   4.184 -1.8640 -0.8575 -0.9953
   77SLPC  C317 7068   0.513   3.925   4.084 -0.2805  0.5350  0.2986
   77SLPC  H17X 7069   0.575   3.928   3.992  0.5880 -4.9781  0.5311
   77SLPC  H17Y 7070   0.461   4.023   4.086  0.5881  1.0123 -0.1058
   77SLPC  C318 7071   0.419   3.803   4.064 -0.9331  0.0391 -0.1098
   77SLPC  H18X 7072   0.481   3.713   4.042 -0.3927  0.0488  1.3310
   77SLPC  H18Y 7073   0.350   3.823   3.979 -0.7934  0.4930 -0.1166
   77SLPC  H18Z 7074   0.348   3.784   4.147 -1.5589 -2.5804 -1.1774
   78SLPC     N 7075   3.296   0.945   6.269  0.4479 -0.3448  0.1145
   78SLPC   C13 7076   3.207   0.828   6.299 -0.4123 -0.1301  0.9742
   78SLPC  H13A 7077   3.252   0.750   6.359  1.8991  0.5675  0.1930
   78SLPC  H13B 7078   3.118   0.868   6.344  0.5957  2.2654  0.9198
   78SLPC  H13C 7079   3.181   0.777   6.208 -2.7954  1.9378  0.4509
   78SLPC   C14 7080   3.431   0.891   6.241  0.3351 -0.0899 -0.8670
   78SLPC  H14A 7081   3.508   0.966   6.231  0.7892 -0.4412 -0.0526
   78SLPC  H14B 7082   3.468   0.841   6.330 -2.9012 -0.4029  0.3674
   78SLPC  H14C 7083   3.440   0.830   6.153 -1.0882 -2.3059  0.4734
   78SLPC   C15 7084   3.290   1.039   6.379 -0.9053  0.1836 -0.2425
   78SLPC  H15A 7085   3.340   1.135   6.370  0.0638 -0.3420 -0.5018
   78SLPC  H15B 7086   3.187   1.047   6.411 -1.7735  1.5099 -3.2210
   78SLPC  H15C 7087   3.340   1.000   6.467 -1.5517  0.1109  0.0938
   78SLPC   C12 7088   3.241   1.027   6.148  0.0181  0.1153 -0.4555
   78SLPC  H12A 7089   3.320   1.096   6.124 -1.3377  1.5370 -0.8665
   78SLPC  H12B 7090   3.156   1.085   6.180 -0.2807 -0.1537 -0.7496
   78SLPC   C11 7091   3.190   0.954   6.025  0.1435  0.3300 -0.1112
   78SLPC  H11A 7092   3.272   0.882   6.003  0.6965  0.3811  1.7496
   78SLPC  H11B 7093   3.178   1.028   5.943 -3.0538  1.2088  1.0582
   78SLPC     P 7094   3.033   0.756   5.962 -0.0591 -0.3531 -0.1946
   78SLPC   O13 7095   3.133   0.659   6.008  0.3697 -0.2512  0.0584
   78SLPC   O14 7096   2.890   0.727   5.992  0.4602  0.3429 -0.0830
   78SLPC   O12 7097   3.072   0.882   6.047  0.0950  0.6332 -0.2592
   78SLPC   O11 7098   3.045   0.797   5.811 -0.1445 -0.2046 -0.4745
   78SLPC    C1 7099   2.944   0.860   5.730 -0.2105 -0.1717  0.5005
   78SLPC    HA 7100   2.875   0.927   5.786 -0.5906 -0.1899  0.0620
   78SLPC    HB 7101   2.988   0.918   5.646 -2.8161 -1.8749 -2.1609
   78SLPC    C2 7102   2.849   0.758   5.659 -0.3305  0.3115 -0.4189
   78SLPC    HS 7103   2.796   0.697   5.735  0.1145  0.1205 -0.2563
   78SLPC   O21 7104   2.934   0.674   5.577  0.0859  0.0956 -0.2210
   78SLPC   C21 7105   2.915   0.543   5.593  0.5134 -0.4617  0.3257
   78SLPC   O22 7106   2.828   0.492   5.656  0.3386 -0.0722 -0.4063
   78SLPC   C22 7107   3.023   0.467   5.506  0.5562  0.8491 -0.0634
   78SLPC   H2R 7108   3.025   0.492   5.398  0.6201 -2.5355 -0.9151
   78SLPC   H2S 7109   3.120   0.488   5.555  2.7657 -1.2082 -3.3931
   78SLPC    C3 7110   2.747   0.822   5.563 -0.4116 -0.1942 -0.1064
   78SLPC    HX 7111   2.804   0.866   5.478 -0.4933 -3.3735 -1.8693
   78SLPC    HY 7112   2.699   0.912   5.607 -2.3097  0.5766 -3.6345
   78SLPC   O31 7113   2.642   0.735   5.526  0.1021  0.4303  0.2497
   78SLPC   C31 7114   2.621   0.725   5.395  0.9279  0.2609 -0.1048
   78SLPC   O32 7115   2.671   0.800   5.315  0.0429  0.5095 -0.8652
   78SLPC   C32 7116   2.529   0.599   5.368  0.2116  0.0743  0.6773
   78SLPC   H2X 7117   2.449   0.607   5.445 -1.1279 -0.5745 -0.6432
   78SLPC   H2Y 7118   2.590   0.507   5.373  0.5679  0.3640  2.0622
   78SLPC   C23 7119   3.001   0.310   5.510 -0.0782 -0.4039  1.0275
   78SLPC   H3R 7120   2.996   0.283   5.618 -0.7940 -0.3876  0.9999
   78SLPC   H3S 7121   3.090   0.250   5.483  0.8018  1.2759  0.1142
   78SLPC   C24 7122   2.876   0.263   5.423 -0.2897  0.1195 -0.1870
   78SLPC   H4R 7123   2.778   0.289   5.467  1.2046  1.8917  2.2132
   78SLPC   H4S 7124   2.884   0.153   5.440  3.0694  0.2265 -0.5721
   78SLPC   C25 7125   2.892   0.282   5.273 -0.0390  0.6261  0.3089
   78SLPC   H5R 7126   2.870   0.390   5.255 -3.1258 -0.0498 -0.3250
   78SLPC   H5S 7127   2.816   0.220   5.220  2.0673 -1.9729  0.2347
   78SLPC   C26 7128   3.033   0.245   5.224 -0.0530  0.4826 -0.7776
   78SLPC   H6R 7129   3.076   0.175   5.299  0.8118  1.2107 -0.5822
   78SLPC   H6S 7130   3.100   0.333   5.224 -1.0269  1.2352 -0.6865
   78SLPC   C27 7131   3.043   0.207   5.077  0.2033 -0.0278 -0.1714
   78SLPC   H7R 7132   2.977   0.263   5.007 -2.0123 -1.2106  0.9020
   78SLPC   H7S 7133   3.019   0.100   5.062  0.7645 -0.4326  1.7198
   78SLPC   C28 7134   3.189   0.214   5.039 -0.0216 -0.4895  0.2421
   78SLPC   H8R 7135   3.255   0.162   5.112  0.2733  0.3481  0.5839
   78SLPC   H8S 7136   3.225   0.319   5.045  1.6078 -0.8728 -2.1985
   78SLPC   C29 7137   3.217   0.160   4.897 -0.3339  0.3483  0.2105
   78SLPC   H9R 7138   3.200   0.053   4.881 -2.7188  0.4482  1.7799
   78SLPC  C210 7139   3.234   0.235   4.786 -0.4458 -0.0166  0.1014
   78SLPC  H10R 7140   3.245   0.178   4.693  0.0994  0.0248  0.1376
   78SLPC  C211 7141   3.235   0.385   4.783 -0.3770  0.1339  0.1951
   78SLPC  H11R 7142   3.337   0.404   4.742 -0.6161 -3.5426 -2.3502
   78SLPC  H11S 7143   3.225   0.438   4.880  1.7464 -0.9515  1.0279
   78SLPC  C212 7144   3.145   0.438   4.673 -0.0392  0.4509 -0.3989
   78SLPC  H12R 7145   3.102   0.363   4.605 -0.3396 -0.1668  0.4525
   78SLPC  C213 7146   3.089   0.559   4.672  0.1404  0.5414  0.1701
   78SLPC  H13R 7147   3.038   0.596   4.581  0.7707  4.2830  1.2577
   78SLPC  C214 7148   3.114   0.668   4.774 -0.1920 -0.1257 -0.3729
   78SLPC  H14R 7149   3.114   0.769   4.726  0.7394 -0.1666 -0.4652
   78SLPC  H14S 7150   3.213   0.657   4.822  0.1651 -0.2216 -1.1260
   78SLPC  C215 7151   3.018   0.651   4.893  0.2147  0.1405  0.5204
   78SLPC  H15R 7152   3.030   0.716   4.983  0.8146 -0.8321  1.1476
   78SLPC  H15S 7153   3.039   0.552   4.939  0.4544 -0.5551 -1.0884
   78SLPC  C216 7154   2.871   0.645   4.845  0.4981  0.6959  0.0711
   78SLPC  H16R 7155   2.813   0.613   4.934  0.1891 -0.4139 -0.5200
   78SLPC  H16S 7156   2.843   0.568   4.769  0.4528  1.1540 -0.3813
   78SLPC  C217 7157   2.816   0.783   4.800 -0.0207  0.6521 -0.4422
   78SLPC  H17R 7158   2.710   0.778   4.766 -0.1695 -0.2073  0.1303
   78SLPC  H17S 7159   2.881   0.820   4.718 -0.1610  1.8014 -0.0402
   78SLPC  C218 7160   2.815   0.901   4.905  0.0860 -0.4170 -0.2010
   78SLPC  H18R 7161   2.768   0.877   5.003 -1.8854 -0.9992 -1.2459
   78SLPC  H18S 7162   2.751   0.983   4.866 -1.2609 -0.2705  2.1896
   78SLPC  H18T 7163   2.918   0.940   4.920  0.6637 -2.1491  0.5538
   78SLPC   C33 7164   2.448   0.608   5.238 -0.8115 -0.0643  0.5812
   78SLPC   H3X 7165   2.431   0.717   5.232  0.0991  0.0378 -0.4727
   78SLPC   H3Y 7166   2.350   0.558   5.247  0.4940 -2.9977 -0.7162
   78SLPC   C34 7167   2.526   0.546   5.120 -0.8999  0.1145 -0.3105
   78SLPC   H4X 7168   2.552   0.441   5.145 -1.8620  0.0426  0.4189
   78SLPC   H4Y 7169   2.624   0.598   5.111 -1.0662  1.0273  2.6557
   78SLPC   C35 7170   2.458   0.569   4.988  1.3020 -0.2135  0.0356
   78SLPC   H5X 7171   2.440   0.678   4.976  0.2564 -0.6344 -2.4347
   78SLPC   H5Y 7172   2.361   0.516   4.997  0.9820  0.4517  0.5185
   78SLPC   C36 7173   2.532   0.509   4.866 -0.5667  0.9760 -0.7657
   78SLPC   H6X 7174   2.597   0.592   4.832 -1.7897  1.3421 -2.2855
   78SLPC   H6Y 7175   2.454   0.492   4.788  0.6126  1.4911 -2.0621
   78SLPC   C37 7176   2.591   0.369   4.892 -0.3136 -0.5054 -0.0834
   78SLPC   H7X 7177   2.511   0.303   4.933 -0.0799 -0.3815  0.5812
   78SLPC   H7Y 7178   2.672   0.380   4.968  1.3567 -0.7574 -1.7780
   78SLPC   C38 7179   2.641   0.310   4.756  0.1715 -0.1559  0.0450
   78SLPC   H8X 7180   2.690   0.395   4.705 -1.8091  0.4431 -0.8856
   78SLPC   H8Y 7181   2.551   0.287   4.696 -0.4360 -1.4610  1.4306
   78SLPC   C39 7182   2.724   0.186   4.781  0.5041  0.2739 -0.0160
   78SLPC   H9X 7183   2.674   0.107   4.841 -1.1946  0.5211 -1.0694
   78SLPC   H9Y 7184   2.821   0.204   4.831  1.0991  1.1901 -1.4758
   78SLPC  C310 7185   2.763   0.110   4.649 -0.5867 -0.2119  0.5167
   78SLPC  H10X 7186   2.674   0.087   4.587  1.3881 -1.1048 -2.0441
   78SLPC  H10Y 7187   2.808   0.011   4.674 -0.5028 -0.4956 -0.7522
   78SLPC  C311 7188   2.868   0.183   4.563 -0.6167 -0.3576  0.0151
   78SLPC  H11X 7189   2.958   0.200   4.624 -1.8352  0.1606  1.6995
   78SLPC  H11Y 7190   2.827   0.280   4.528  1.9006  1.0920  1.0317
   78SLPC  C312 7191   2.901   0.097   4.443  0.6282 -0.2369  0.4180
   78SLPC  H12X 7192   2.806   0.083   4.388  2.4631 -2.8462 -2.2173
   78SLPC  H12Y 7193   2.932  -0.004   4.476  1.5459 -0.9798 -2.6079
   78SLPC  C313 7194   3.002   0.157   4.345  0.0523 -0.6193 -0.8004
   78SLPC  H13X 7195   3.088   0.210   4.392 -0.3048 -0.3115 -0.4845
   78SLPC  H13Y 7196   2.949   0.239   4.290  0.6131  2.0050  2.4128
   78SLPC  C314 7197   3.056   0.069   4.233 -0.5632  0.2114 -0.3011
   78SLPC  H14X 7198   3.123   0.125   4.165  0.5047 -1.6843 -0.8676
   78SLPC  H14Y 7199   2.976   0.013   4.181 -0.5009 -0.1397 -0.0245
   78SLPC  C315 7200   3.141  -0.042   4.279  0.9528  0.5346  0.0866
   78SLPC  H15X 7201   3.082  -0.105   4.350  0.6303  1.1639  0.3817
   78SLPC  H15Y 7202   3.222  -0.004   4.346  0.5031  0.0861  0.8943
   78SLPC  C316 7203   3.202  -0.134   4.171 -0.6329  0.9770  0.1408
   78SLPC  H16X 7204   3.241  -0.066   4.092  1.6542  0.6419  0.9321
   78SLPC  H16Y 7205   3.117  -0.194   4.132 -0.7082  1.5260 -0.5581
   78SLPC  C317 7206   3.307  -0.231   4.221  0.0262 -0.1543  0.1191
   78SLPC  H17X 7207   3.275  -0.287   4.311  1.0664 -0.8831  0.0382
   78SLPC  H17Y 7208   3.397  -0.182   4.264 -0.5630  0.7961  0.2860
   78SLPC  C318 7209   3.349  -0.319   4.104 -0.2561 -0.2396  0.6853
   78SLPC  H18X 7210   3.260  -0.377   4.070  1.1106 -1.6338 -0.5920
   78SLPC  H18Y 7211   3.431  -0.388   4.135  1.8421  2.0455  0.3445
   78SLPC  H18Z 7212   3.385  -0.258   4.019 -3.0375 -2.9222 -2.5865
   79SLPC     N 7213   7.108   4.034   5.794 -0.1884  0.2932 -0.5503
   79SLPC   C13 7214   7.131   4.173   5.750  0.0298 -0.6382 -0.1191
   79SLPC  H13A 7215   7.188   4.183   5.659  1.7844  1.1951  1.1152
   79SLPC  H13B 7216   7.040   4.229   5.731  1.4806  1.9891  0.3209
   79SLPC  H13C 7217   7.170   4.229   5.834  1.1120  0.3249 -1.2455
   79SLPC   C14 7218   7.240   3.977   5.855 -0.1245 -0.2856  0.5895
   79SLPC  H14A 7219   7.309   3.961   5.774  0.1007 -1.6857  1.0493
   79SLPC  H14B 7220   7.294   4.044   5.921 -0.4552 -1.4316  2.0646
   79SLPC  H14C 7221   7.219   3.884   5.906  1.1332 -0.5048  0.7076
   79SLPC   C15 7222   7.052   3.963   5.676 -0.0873 -0.3343  0.5852
   79SLPC  H15A 7223   6.970   4.019   5.634 -0.7172 -1.8946 -0.2955
   79SLPC  H15B 7224   7.137   3.963   5.608 -0.1348 -0.3201  0.5260
   79SLPC  H15C 7225   7.020   3.863   5.698  1.8713 -1.2728 -0.6399
   79SLPC   C12 7226   7.001   4.045   5.906  0.2038 -0.5001 -0.5534
   79SLPC  H12A 7227   7.053   4.100   5.983  0.3548  0.4687 -1.3460
   79SLPC  H12B 7228   6.981   3.942   5.934  3.9927 -1.1719 -0.0788
   79SLPC   C11 7229   6.863   4.114   5.874 -0.9839 -0.5747 -0.1857
   79SLPC  H11A 7230   6.788   4.084   5.950  1.7227  0.2508  2.9445
   79SLPC  H11B 7231   6.828   4.096   5.770 -0.4557  0.4073 -0.5430
   79SLPC     P 7232   6.935   4.330   6.015 -0.0404 -0.2636 -0.4787
   79SLPC   O13 7233   6.820   4.400   6.077 -0.4928  0.2952 -0.7335
   79SLPC   O14 7234   7.018   4.246   6.099  0.3862  0.4638 -0.3749
   79SLPC   O12 7235   6.889   4.252   5.887  0.5736 -0.1287 -0.2889
   79SLPC   O11 7236   7.030   4.437   5.953 -0.3006  0.3274 -0.2616
   79SLPC    C1 7237   6.988   4.538   5.856  0.5733  0.0240 -0.8659
   79SLPC    HA 7238   6.886   4.519   5.815  0.8306 -1.7603 -0.6966
   79SLPC    HB 7239   6.981   4.636   5.908 -1.5223  0.9842 -2.8548
   79SLPC    C2 7240   7.087   4.552   5.731 -0.2074 -0.3821  0.3206
   79SLPC    HS 7241   7.064   4.652   5.689 -0.9575 -0.8357 -0.3546
   79SLPC   O21 7242   7.061   4.449   5.635 -0.3339  0.1144 -0.7357
   79SLPC   C21 7243   6.952   4.458   5.566  0.0339  0.0306  0.5346
   79SLPC   O22 7244   6.873   4.548   5.561 -0.1713 -0.2961  0.3313
   79SLPC   C22 7245   6.953   4.337   5.474  0.0623  0.4194 -0.4318
   79SLPC   H2R 7246   6.919   4.255   5.541  0.9035 -1.5325 -2.3308
   79SLPC   H2S 7247   6.880   4.348   5.391  0.7742 -1.4849 -1.3555
   79SLPC    C3 7248   7.238   4.562   5.772 -0.0181  0.0336 -0.3772
   79SLPC    HX 7249   7.260   4.464   5.820 -1.7566 -0.4249 -0.4752
   79SLPC    HY 7250   7.250   4.646   5.844  2.9956 -0.9899  0.3892
   79SLPC   O31 7251   7.326   4.597   5.668  0.4522 -0.0820 -0.6848
   79SLPC   C31 7252   7.365   4.489   5.588  0.3951  0.2993 -0.3565
   79SLPC   O32 7253   7.352   4.370   5.611 -0.2509 -0.0388 -0.7481
   79SLPC   C32 7254   7.449   4.548   5.476 -0.2039  0.1763 -0.2112
   79SLPC   H2X 7255   7.555   4.556   5.508  0.3520 -2.2664 -1.3416
   79SLPC   H2Y 7256   7.394   4.640   5.449  1.2707  1.0828 -0.1695
   79SLPC   C23 7257   7.079   4.306   5.394 -0.6772 -0.5067 -0.2952
   79SLPC   H3R 7258   7.159   4.292   5.470  0.5243  2.6750 -0.8832
   79SLPC   H3S 7259   7.113   4.395   5.336 -1.1003 -0.3943 -0.3672
   79SLPC   C24 7260   7.071   4.184   5.308 -0.3003  0.0410 -0.0407
   79SLPC   H4R 7261   7.015   4.205   5.214  1.4762 -1.6903 -1.5369
   79SLPC   H4S 7262   7.013   4.105   5.360 -0.6497  0.8317  0.7834
   79SLPC   C25 7263   7.212   4.126   5.273  0.3623  0.0121  0.1413
   79SLPC   H5R 7264   7.266   4.103   5.367  0.7713 -1.5624 -0.4551
   79SLPC   H5S 7265   7.269   4.210   5.227 -0.7588  0.8648  0.2890
   79SLPC   C26 7266   7.197   4.006   5.184  0.2829 -0.5435  0.6953
   79SLPC   H6R 7267   7.090   3.976   5.185 -0.0419  0.5942  0.7579
   79SLPC   H6S 7268   7.260   3.929   5.231  1.5465  1.8342  3.0102
   79SLPC   C27 7269   7.266   4.026   5.043  1.1657 -0.0861 -0.4125
   79SLPC   H7R 7270   7.352   3.956   5.048  2.0859  1.1247  1.7201
   79SLPC   H7S 7271   7.306   4.130   5.037  0.6245  0.1458 -0.0298
   79SLPC   C28 7272   7.164   4.005   4.929 -0.1903 -0.3786  0.0472
   79SLPC   H8R 7273   7.115   3.905   4.933 -1.5613  0.3453  2.6803
   79SLPC   H8S 7274   7.221   3.999   4.834 -0.4138 -0.5684 -0.0749
   79SLPC   C29 7275   7.048   4.096   4.920  0.3295  0.8041 -0.8501
   79SLPC   H9R 7276   6.969   4.086   4.996  0.3833  0.6621 -0.8136
   79SLPC  C210 7277   7.034   4.196   4.829 -0.5488 -0.5275 -0.1661
   79SLPC  H10R 7278   6.939   4.252   4.823  0.6417  1.4754 -0.9184
   79SLPC  C211 7279   7.127   4.226   4.718  0.1521 -0.9746 -0.4941
   79SLPC  H11R 7280   7.090   4.181   4.623  2.0313  0.2217 -1.8277
   79SLPC  H11S 7281   7.229   4.186   4.736 -0.0005 -0.9077  0.5740
   79SLPC  C212 7282   7.126   4.372   4.685  0.0392  0.5149  0.9613
   79SLPC  H12R 7283   7.146   4.440   4.769  2.1795  1.1272 -0.0006
   79SLPC  C213 7284   7.128   4.431   4.562 -0.3148  0.5135 -0.0502
   79SLPC  H13R 7285   7.146   4.540   4.555 -1.2182  0.6123 -0.9821
   79SLPC  C214 7286   7.123   4.361   4.425 -0.6655 -0.4959  0.3919
   79SLPC  H14R 7287   7.070   4.428   4.354 -0.1799  0.0683  0.5618
   79SLPC  H14S 7288   7.067   4.266   4.436  0.7557 -1.4599 -0.4775
   79SLPC  C215 7289   7.268   4.331   4.379  0.4624  0.7984 -0.0501
   79SLPC  H15R 7290   7.268   4.286   4.277  0.3723  0.6501  0.0144
   79SLPC  H15S 7291   7.304   4.252   4.449  0.5081 -0.7175 -1.7298
   79SLPC  C216 7292   7.364   4.452   4.363  0.1146  0.6026  0.1918
   79SLPC  H16R 7293   7.470   4.422   4.374  0.7669  1.8437 -2.2680
   79SLPC  H16S 7294   7.355   4.526   4.446 -1.5110  1.1590 -0.4587
   79SLPC  C217 7295   7.359   4.538   4.231 -0.2872 -0.6183  0.6247
   79SLPC  H17R 7296   7.429   4.623   4.225 -0.7649 -0.2936 -0.5703
   79SLPC  H17S 7297   7.258   4.584   4.219  0.9687  2.1267  0.3179
   79SLPC  C218 7298   7.388   4.450   4.111  0.2201  0.6871 -0.3001
   79SLPC  H18R 7299   7.378   4.504   4.015 -1.4219  0.3908 -0.3127
   79SLPC  H18S 7300   7.314   4.367   4.102  2.4699 -1.5044  0.6512
   79SLPC  H18T 7301   7.490   4.414   4.136 -1.0762 -0.6691  3.4652
   79SLPC   C33 7302   7.461   4.471   5.343 -0.6244 -0.5465 -0.6142
   79SLPC   H3X 7303   7.359   4.474   5.298 -0.8219  1.5129 -0.0556
   79SLPC   H3Y 7304   7.478   4.364   5.369 -0.3375 -0.1515  0.9179
   79SLPC   C34 7305   7.557   4.523   5.237  0.3386 -0.0101 -0.0878
   79SLPC   H4X 7306   7.649   4.552   5.291 -2.0061 -1.1608  4.8339
   79SLPC   H4Y 7307   7.518   4.612   5.183  1.1132  0.1669 -0.3613
   79SLPC   C35 7308   7.594   4.420   5.136  0.5017  0.2565 -0.2447
   79SLPC   H5X 7309   7.499   4.384   5.092 -1.2167  0.1665  3.3328
   79SLPC   H5Y 7310   7.645   4.341   5.194 -0.4044  0.5897  1.0272
   79SLPC   C36 7311   7.703   4.460   5.037 -0.6966  0.9499 -0.1679
   79SLPC   H6X 7312   7.791   4.508   5.086  0.1001 -1.8750  1.2854
   79SLPC   H6Y 7313   7.659   4.533   4.965  2.0273  1.6444 -1.2133
   79SLPC   C37 7314   7.764   4.345   4.962 -0.6593 -0.4392  0.0806
   79SLPC   H7X 7315   7.815   4.268   5.022  1.9612 -0.0578 -1.5420
   79SLPC   H7Y 7316   7.836   4.408   4.905 -1.2856  0.6894  0.5155
   79SLPC   C38 7317   7.668   4.289   4.863  1.4550 -0.3776  0.0961
   79SLPC   H8X 7318   7.617   4.377   4.818 -0.7648 -1.2405  0.8755
   79SLPC   H8Y 7319   7.588   4.227   4.910  0.7563  1.0201  0.7837
   79SLPC   C39 7320   7.738   4.215   4.741 -0.2524 -0.6952 -0.1909
   79SLPC   H9X 7321   7.811   4.145   4.787  0.8489 -0.9720 -2.2710
   79SLPC   H9Y 7322   7.811   4.286   4.696 -1.1532  1.2710  1.4158
   79SLPC  C310 7323   7.632   4.151   4.646  0.0487 -0.0250 -0.0974
   79SLPC  H10X 7324   7.585   4.232   4.586  3.0069  1.9608  0.1591
   79SLPC  H10Y 7325   7.547   4.111   4.705  0.8811  1.2629  2.0352
   79SLPC  C311 7326   7.704   4.047   4.556  1.0040 -0.1215  0.3164
   79SLPC  H11X 7327   7.715   3.953   4.614  0.6319 -0.2670  0.1441
   79SLPC  H11Y 7328   7.802   4.088   4.522  0.3313  0.6243 -0.7360
   79SLPC  C312 7329   7.620   3.997   4.446  0.2541 -0.6531  0.0765
   79SLPC  H12X 7330   7.674   3.931   4.376  2.8785  0.7775  0.7071
   79SLPC  H12Y 7331   7.577   4.076   4.380  1.5086 -1.1068 -1.2861
   79SLPC  C313 7332   7.495   3.924   4.493  0.4137  0.0247 -0.1233
   79SLPC  H13X 7333   7.439   3.992   4.561  1.8253  1.3616 -0.2574
   79SLPC  H13Y 7334   7.525   3.831   4.545  0.5929  0.2441  0.1634
   79SLPC  C314 7335   7.409   3.882   4.379 -0.1108 -0.0963 -1.0096
   79SLPC  H14X 7336   7.458   3.801   4.321  3.0517  0.3829  0.8918
   79SLPC  H14Y 7337   7.398   3.968   4.310  2.3531  1.1966  0.1489
   79SLPC  C315 7338   7.268   3.836   4.408 -0.4558  0.0378  0.3551
   79SLPC  H15X 7339   7.276   3.742   4.466  2.7703 -0.9070 -1.5239
   79SLPC  H15Y 7340   7.210   3.815   4.315 -1.2886  1.1859  0.5974
   79SLPC  C316 7341   7.168   3.935   4.482  0.3449 -0.7706  0.2420
   79SLPC  H16X 7342   7.174   4.037   4.438 -1.6800 -0.0834  1.5176
   79SLPC  H16Y 7343   7.192   3.944   4.590 -0.0973 -0.6401  0.3287
   79SLPC  C317 7344   7.024   3.874   4.475 -0.3109  0.6601  0.4407
   79SLPC  H17X 7345   7.025   3.766   4.500  0.9794  0.8074  1.0519
   79SLPC  H17Y 7346   6.988   3.883   4.370  1.0092  2.7622  0.1330
   79SLPC  C318 7347   6.920   3.956   4.554 -0.3690  0.2621 -0.0440
   79SLPC  H18X 7348   6.943   3.946   4.662 -3.1134 -0.4784  0.4929
   79SLPC  H18Y 7349   6.822   3.908   4.534  0.2326 -0.1982 -2.0824
   79SLPC  H18Z 7350   6.907   4.062   4.522 -1.1762  0.0121 -0.5636
   80SLPC     N 7351   5.880   7.000   5.977 -0.1668 -0.1265  0.5859
   80SLPC   C13 7352   5.737   6.990   6.018  0.1782 -0.0788 -0.3796
   80SLPC  H13A 7353   5.727   6.930   6.106  0.1037 -0.6926 -0.8059
   80SLPC  H13B 7354   5.683   7.084   6.017 -0.8515 -0.6637 -1.5467
   80SLPC  H13C 7355   5.683   6.926   5.950  1.2443 -0.0162 -1.3061
   80SLPC   C14 7356   5.879   7.057   5.838 -0.5050  0.3741  0.6966
   80SLPC  H14A 7357   5.837   7.156   5.838 -0.3161  0.4550  1.4350
   80SLPC  H14B 7358   5.979   7.052   5.795 -0.7531  4.5572 -0.5524
   80SLPC  H14C 7359   5.812   6.996   5.779 -0.1722 -0.4379  1.1581
   80SLPC   C15 7360   5.928   6.856   5.961 -0.0645  0.0822 -0.0178
   80SLPC  H15A 7361   5.869   6.807   5.885  1.2252 -1.1114 -0.2564
   80SLPC  H15B 7362   6.032   6.846   5.935 -1.0793 -2.1098 -3.5470
   80SLPC  H15C 7363   5.925   6.805   6.056 -0.4393 -1.0138 -0.6105
   80SLPC   C12 7364   5.966   7.070   6.073 -0.4301  0.0707  0.1380
   80SLPC  H12A 7365   6.069   7.043   6.053 -1.5562 -2.5956 -2.3720
   80SLPC  H12B 7366   5.961   7.023   6.170  1.7762  1.0716  0.7618
   80SLPC   C11 7367   5.951   7.219   6.092 -0.0533  0.3179 -0.2448
   80SLPC  H11A 7368   5.987   7.271   6.001 -2.0870  1.6261 -0.3413
   80SLPC  H11B 7369   6.018   7.243   6.178 -0.0067  2.6771 -0.9143
   80SLPC     P 7370   5.750   7.373   6.065  0.3590 -0.0485  0.0836
   80SLPC   O13 7371   5.615   7.377   6.118  0.5094  0.1277  0.2475
   80SLPC   O14 7372   5.838   7.495   6.092 -0.4510 -0.4883 -0.6446
   80SLPC   O12 7373   5.815   7.244   6.123 -0.9081 -0.4983 -0.6463
   80SLPC   O11 7374   5.746   7.334   5.917  0.2671  0.2130  0.0414
   80SLPC    C1 7375   5.758   7.425   5.812 -0.3681  0.2097 -0.7657
   80SLPC    HA 7376   5.838   7.500   5.830  2.0053 -2.3441 -0.4030
   80SLPC    HB 7377   5.787   7.370   5.720 -3.0187 -0.4801 -1.2132
   80SLPC    C2 7378   5.623   7.493   5.783  0.0508  0.6993  1.0710
   80SLPC    HS 7379   5.576   7.549   5.866 -2.0313 -0.5568  0.7925
   80SLPC   O21 7380   5.538   7.387   5.732 -0.2263 -0.4361 -0.2126
   80SLPC   C21 7381   5.406   7.395   5.744 -0.4924 -0.4983  0.6145
   80SLPC   O22 7382   5.341   7.475   5.809  0.2635 -0.0165  0.1996
   80SLPC   C22 7383   5.360   7.280   5.657  0.1736  0.8743  0.8755
   80SLPC   H2R 7384   5.439   7.203   5.660 -1.2610 -0.8039 -1.9045
   80SLPC   H2S 7385   5.262   7.240   5.691  0.5612 -0.0785  0.8637
   80SLPC    C3 7386   5.634   7.594   5.665  0.3581  0.2216 -0.6885
   80SLPC    HX 7387   5.673   7.538   5.577 -0.9425 -2.4951  0.4106
   80SLPC    HY 7388   5.703   7.677   5.693 -0.1566  1.4132 -2.8497
   80SLPC   O31 7389   5.507   7.647   5.615 -0.0569 -0.1338 -0.2645
   80SLPC   C31 7390   5.458   7.743   5.687  0.4097  0.0787 -0.0827
   80SLPC   O32 7391   5.517   7.810   5.772 -0.0013 -0.1231  0.0071
   80SLPC   C32 7392   5.318   7.794   5.641  0.6123 -0.1517 -0.9984
   80SLPC   H2X 7393   5.318   7.905   5.646 -4.6782 -0.0722  1.0031
   80SLPC   H2Y 7394   5.239   7.755   5.709  0.4080  1.2625 -0.4241
   80SLPC   C23 7395   5.342   7.320   5.508  0.3728 -0.5730 -0.1879
   80SLPC   H3R 7396   5.441   7.349   5.467 -0.5067 -0.2012 -2.1281
   80SLPC   H3S 7397   5.280   7.412   5.508 -0.2074 -0.9452  1.2716
   80SLPC   C24 7398   5.270   7.211   5.429  0.0325  0.1306 -0.1759
   80SLPC   H4R 7399   5.176   7.196   5.486  0.5255 -3.8232 -0.2579
   80SLPC   H4S 7400   5.326   7.115   5.428 -1.4811 -0.7614  0.0862
   80SLPC   C25 7401   5.242   7.254   5.286 -0.2432  0.4129 -0.1649
   80SLPC   H5R 7402   5.203   7.169   5.227  0.2197  1.1502 -1.5661
   80SLPC   H5S 7403   5.331   7.285   5.226  1.6781 -0.6785  2.0029
   80SLPC   C26 7404   5.147   7.373   5.268  1.0182 -0.1089 -0.5250
   80SLPC   H6R 7405   5.193   7.471   5.295 -2.4472  1.3513  0.3246
   80SLPC   H6S 7406   5.051   7.366   5.324 -0.2174  3.6311 -2.0280
   80SLPC   C27 7407   5.099   7.367   5.122  0.6180  0.4358  0.3759
   80SLPC   H7R 7408   5.023   7.287   5.109 -0.0395  1.2336 -0.7463
   80SLPC   H7S 7409   5.188   7.340   5.060  1.1925  0.1062  1.3372
   80SLPC   C28 7410   5.029   7.496   5.084 -0.2898 -0.7141 -0.1965
   80SLPC   H8R 7411   4.977   7.530   5.175 -0.0331 -0.6384 -0.0789
   80SLPC   H8S 7412   4.954   7.473   5.004 -0.3605 -2.4029  0.3461
   80SLPC   C29 7413   5.122   7.609   5.047  0.3560  0.0260  0.5758
   80SLPC   H9R 7414   5.135   7.687   5.124 -3.1223  3.3091 -1.9682
   80SLPC  C210 7415   5.184   7.637   4.931  0.0712 -0.0454 -0.2055
   80SLPC  H10R 7416   5.243   7.730   4.937  0.2634 -0.2093  0.4481
   80SLPC  C211 7417   5.178   7.570   4.798  0.0464 -0.6171 -0.2143
   80SLPC  H11R 7418   5.169   7.463   4.827 -0.8985 -0.3178  0.6330
   80SLPC  H11S 7419   5.269   7.576   4.736  0.7033 -3.4690  0.3727
   80SLPC  C212 7420   5.056   7.620   4.720  0.8078 -0.0041  0.4028
   80SLPC  H12R 7421   5.060   7.729   4.709  0.9664  0.1653  1.9543
   80SLPC  C213 7422   4.947   7.547   4.676 -0.9268  0.5703 -0.1210
   80SLPC  H13R 7423   4.872   7.597   4.613 -1.0608  1.3804  0.6700
   80SLPC  C214 7424   4.917   7.399   4.675  0.3089  0.3334  0.0545
   80SLPC  H14R 7425   4.997   7.338   4.722 -0.2813 -1.0316 -0.6896
   80SLPC  H14S 7426   4.913   7.360   4.571 -0.4489  4.2034 -1.4513
   80SLPC  C215 7427   4.784   7.365   4.744 -0.0341  0.3792  0.1425
   80SLPC  H15R 7428   4.795   7.399   4.849  2.7211 -0.1388  0.0420
   80SLPC  H15S 7429   4.768   7.256   4.752 -0.1824  0.5379  2.0613
   80SLPC  C216 7430   4.657   7.433   4.688 -0.7745  0.4161  0.0213
   80SLPC  H16R 7431   4.665   7.544   4.691 -3.6737  0.6207  3.0813
   80SLPC  H16S 7432   4.574   7.407   4.757 -0.3208 -0.5163  0.2286
   80SLPC  C217 7433   4.622   7.394   4.542 -0.3315  0.3240  0.3801
   80SLPC  H17R 7434   4.580   7.292   4.555  0.5852 -0.3326 -1.5105
   80SLPC  H17S 7435   4.721   7.394   4.492 -0.4015  0.9234  0.2438
   80SLPC  C218 7436   4.516   7.475   4.466  0.6732  0.3766  0.1557
   80SLPC  H18R 7437   4.413   7.470   4.508  1.6115  0.5720  2.5853
   80SLPC  H18S 7438   4.509   7.449   4.358  1.1007 -1.0100  0.4441
   80SLPC  H18T 7439   4.544   7.582   4.471 -2.1074  1.1752 -0.7291
   80SLPC   C33 7440   5.275   7.732   5.505 -0.0026 -0.3159  0.6034
   80SLPC   H3X 7441   5.165   7.723   5.496 -0.0335 -0.7253  1.3450
   80SLPC   H3Y 7442   5.316   7.629   5.505 -1.8249 -1.0531  1.5318
   80SLPC   C34 7443   5.333   7.809   5.388  0.0535  0.6679  0.6219
   80SLPC   H4X 7444   5.367   7.727   5.322 -0.1882 -1.2445  2.8027
   80SLPC   H4Y 7445   5.426   7.865   5.409  0.5923 -0.2769  0.7679
   80SLPC   C35 7446   5.239   7.903   5.311 -0.4485  0.0609  0.2269
   80SLPC   H5X 7447   5.232   7.991   5.378  0.3485  2.1951 -2.4179
   80SLPC   H5Y 7448   5.139   7.860   5.293  0.6977 -2.8468  0.5129
   80SLPC   C36 7449   5.287   7.947   5.174  0.4394  0.1107 -0.3433
   80SLPC   H6X 7450   5.281   7.856   5.111 -1.0249 -0.4918  0.6323
   80SLPC   H6Y 7451   5.390   7.988   5.166  0.7987 -0.5476  0.7785
   80SLPC   C37 7452   5.198   8.048   5.107 -0.3739 -0.4589  0.3696
   80SLPC   H7X 7453   5.199   8.147   5.159  0.9248 -1.3401  2.0835
   80SLPC   H7Y 7454   5.091   8.017   5.107 -0.2911 -0.7579 -0.5258
   80SLPC   C38 7455   5.253   8.075   4.961 -0.4593  1.1901 -0.6646
   80SLPC   H8X 7456   5.239   7.975   4.915  1.8613 -0.1312  1.3880
   80SLPC   H8Y 7457   5.362   8.094   4.958  0.3934 -2.7270  1.7773
   80SLPC   C39 7458   5.172   8.183   4.885  0.3846 -0.4665  0.2409
   80SLPC   H9X 7459   5.182   8.282   4.935  0.5421 -0.9842  1.2392
   80SLPC   H9Y 7460   5.066   8.151   4.890  0.8383 -2.5166 -2.2724
   80SLPC  C310 7461   5.225   8.207   4.743 -0.5753 -0.1707  0.2004
   80SLPC  H10X 7462   5.330   8.241   4.739 -1.1386  1.4311 -1.5537
   80SLPC  H10Y 7463   5.170   8.285   4.685 -1.8483 -1.1526  0.0710
   80SLPC  C311 7464   5.198   8.083   4.653  0.1363 -0.1872  0.1920
   80SLPC  H11X 7465   5.088   8.066   4.650  0.0416  0.6379 -1.6651
   80SLPC  H11Y 7466   5.254   7.993   4.686  0.6926  0.9039  2.3186
   80SLPC  C312 7467   5.246   8.093   4.508  0.4958  0.8382  0.3596
   80SLPC  H12X 7468   5.355   8.117   4.501  0.0717  2.4321 -1.4322
   80SLPC  H12Y 7469   5.186   8.171   4.455 -1.1207  0.2247  1.2790
   80SLPC  C313 7470   5.215   7.957   4.436 -0.5226  0.7111 -0.4985
   80SLPC  H13X 7471   5.134   7.896   4.482 -1.6971  1.1509 -1.9544
   80SLPC  H13Y 7472   5.308   7.898   4.444 -0.9100  0.2400  0.5904
   80SLPC  C314 7473   5.182   7.972   4.286  1.0419  0.4851  0.7052
   80SLPC  H14X 7474   5.256   8.042   4.241 -1.4430  1.9896 -1.1789
   80SLPC  H14Y 7475   5.090   8.033   4.272  0.6048 -0.4449 -0.5423
   80SLPC  C315 7476   5.169   7.843   4.202 -0.3325  0.1421 -0.4464
   80SLPC  H15X 7477   5.231   7.761   4.244  1.3356  1.8533  0.5243
   80SLPC  H15Y 7478   5.196   7.878   4.100 -0.0256 -0.1432 -0.4630
   80SLPC  C316 7479   5.026   7.801   4.205  0.0748 -0.0603 -0.0078
   80SLPC  H16X 7480   4.966   7.889   4.172 -0.0116 -0.1733 -0.1538
   80SLPC  H16Y 7481   5.002   7.786   4.312  3.3820  1.1173  0.9353
   80SLPC  C317 7482   4.978   7.684   4.123  0.2191  1.0580  0.9961
   80SLPC  H17X 7483   5.059   7.611   4.146 -2.4314 -2.3427 -0.0103
   80SLPC  H17Y 7484   4.979   7.698   4.013 -0.3605  2.3104  1.1404
   80SLPC  C318 7485   4.839   7.632   4.158  0.2034  0.3358  0.5473
   80SLPC  H18X 7486   4.812   7.594   4.259 -1.8819 -0.3819 -0.2344
   80SLPC  H18Y 7487   4.815   7.547   4.090 -1.1249  1.7101 -0.7223
   80SLPC  H18Z 7488   4.771   7.715   4.127 -0.7116 -0.3202  0.7710
   81SLPC     N 7489   4.562   4.145   2.751 -0.0756  0.1069 -0.3289
   81SLPC   C13 7490   4.680   4.228   2.807 -0.2291  0.2523 -0.0976
   81SLPC  H13A 7491   4.662   4.332   2.783 -1.2977 -0.3862 -2.2464
   81SLPC  H13B 7492   4.694   4.233   2.914  0.3931 -2.6331 -0.0002
   81SLPC  H13C 7493   4.774   4.201   2.761 -0.4266 -1.9993  0.7652
   81SLPC   C14 7494   4.439   4.199   2.803 -0.3302 -0.1636 -0.0258
   81SLPC  H14A 7495   4.441   4.189   2.910  0.9913 -0.0629 -0.0321
   81SLPC  H14B 7496   4.437   4.305   2.782 -1.3086  0.0718  1.2483
   81SLPC  H14C 7497   4.353   4.163   2.748 -1.4418  1.3383  0.7156
   81SLPC   C15 7498   4.579   3.998   2.785  0.6468  1.2528  0.9558
   81SLPC  H15A 7499   4.666   3.956   2.738 -1.2802 -1.2711 -0.4994
   81SLPC  H15B 7500   4.589   3.992   2.893  3.4472 -1.9334  0.5783
   81SLPC  H15C 7501   4.491   3.942   2.757  1.7207 -0.5576  1.1148
   81SLPC   C12 7502   4.557   4.159   2.598  0.2947 -0.1834  0.0837
   81SLPC  H12A 7503   4.496   4.075   2.569 -1.3526  1.0977 -0.2552
   81SLPC  H12B 7504   4.661   4.137   2.577  0.1441 -1.6467  0.8473
   81SLPC   C11 7505   4.535   4.298   2.542  0.1117  0.3379 -0.6476
   81SLPC  H11A 7506   4.549   4.279   2.433  3.6588 -0.6821 -0.0784
   81SLPC  H11B 7507   4.609   4.367   2.587 -0.3124 -0.3037  1.0586
   81SLPC     P 7508   4.367   4.494   2.554  0.4464  0.0831 -0.1135
   81SLPC   O13 7509   4.492   4.576   2.543  0.6063  0.3598  1.0029
   81SLPC   O14 7510   4.260   4.514   2.451 -0.5950  0.2558  0.5385
   81SLPC   O12 7511   4.401   4.345   2.556 -0.2747 -0.1487 -0.9032
   81SLPC   O11 7512   4.313   4.517   2.704 -0.0178  0.2065  0.7896
   81SLPC    C1 7513   4.175   4.488   2.741 -0.2972 -0.8572 -0.0453
   81SLPC    HA 7514   4.107   4.555   2.684  1.2564  0.1108 -0.8109
   81SLPC    HB 7515   4.157   4.379   2.723  4.2863 -1.8930  0.9574
   81SLPC    C2 7516   4.158   4.506   2.893 -0.7712  0.0193 -0.3041
   81SLPC    HS 7517   4.188   4.610   2.916  0.1188 -0.1304 -0.7769
   81SLPC   O21 7518   4.251   4.423   2.963 -0.3225 -0.1620  0.2458
   81SLPC   C21 7519   4.255   4.449   3.093 -0.3183 -0.0409 -0.3221
   81SLPC   O22 7520   4.186   4.531   3.153  0.1469  0.3712 -0.3294
   81SLPC   C22 7521   4.349   4.351   3.160  0.2938 -0.2272 -0.0797
   81SLPC   H2R 7522   4.299   4.251   3.164  0.5450 -0.6065 -3.8489
   81SLPC   H2S 7523   4.434   4.341   3.089 -1.1032 -0.2706 -1.8154
   81SLPC    C3 7524   4.007   4.494   2.933  0.1548 -0.6564  0.0458
   81SLPC    HX 7525   3.942   4.569   2.883  0.8502  0.8631  1.3293
   81SLPC    HY 7526   3.995   4.529   3.038 -0.5996 -2.4079  0.5701
   81SLPC   O31 7527   3.959   4.360   2.926 -0.0717  0.1633  0.1642
   81SLPC   C31 7528   3.894   4.325   2.811 -0.0439 -0.1530 -1.0452
   81SLPC   O32 7529   3.861   4.403   2.721  0.2557 -0.0492  0.0872
   81SLPC   C32 7530   3.858   4.170   2.823 -0.1048  0.1124  0.6257
   81SLPC   H2X 7531   3.929   4.131   2.748 -1.6531  1.8133 -1.7995
   81SLPC   H2Y 7532   3.753   4.169   2.786  0.3816  1.6632 -0.8515
   81SLPC   C23 7533   4.387   4.384   3.302  0.1108  0.2029 -0.5430
   81SLPC   H3R 7534   4.410   4.492   3.317 -1.8299  0.7901 -1.6437
   81SLPC   H3S 7535   4.479   4.323   3.320 -1.2018 -1.2615  1.4140
   81SLPC   C24 7536   4.291   4.342   3.408  0.1840 -0.4688  0.0087
   81SLPC   H4R 7537   4.288   4.231   3.410 -2.0192 -0.4315 -0.6620
   81SLPC   H4S 7538   4.189   4.377   3.384  1.6569  2.0212 -2.9203
   81SLPC   C25 7539   4.333   4.395   3.546  0.0265 -0.6009  0.0922
   81SLPC   H5R 7540   4.314   4.504   3.531 -3.3510 -0.9347  1.6155
   81SLPC   H5S 7541   4.442   4.378   3.560  0.2590  0.6306 -0.0875
   81SLPC   C26 7542   4.251   4.329   3.654 -0.0575  0.0170 -0.1773
   81SLPC   H6R 7543   4.284   4.225   3.677  0.1411  0.3456  1.0151
   81SLPC   H6S 7544   4.144   4.325   3.623  0.0359 -2.2042 -0.2722
   81SLPC   C27 7545   4.285   4.398   3.789 -0.1398  0.4692  0.6671
   81SLPC   H7R 7546   4.269   4.506   3.771  0.8221  0.5409  0.2160
   81SLPC   H7S 7547   4.394   4.386   3.804 -0.0924  1.1936  0.9179
   81SLPC   C28 7548   4.197   4.355   3.911  0.5683  0.2178 -0.1315
   81SLPC   H8R 7549   4.098   4.332   3.866  0.2706  2.9139 -0.9269
   81SLPC   H8S 7550   4.175   4.440   3.979 -3.0913 -1.0078  0.3475
   81SLPC   C29 7551   4.260   4.245   3.990  0.3522  0.3104 -0.6765
   81SLPC   H9R 7552   4.359   4.274   4.029 -0.0381  1.9635 -0.8715
   81SLPC  C210 7553   4.209   4.124   4.027  0.0138 -0.6213 -0.6461
   81SLPC  H10R 7554   4.278   4.059   4.083 -1.7280 -0.0748  2.2357
   81SLPC  C211 7555   4.076   4.067   3.995  0.1853 -0.5339 -0.0269
   81SLPC  H11R 7556   4.082   4.012   3.898  0.6299 -1.4063  0.4861
   81SLPC  H11S 7557   4.006   4.151   3.975 -2.0828 -2.1531  0.8199
   81SLPC  C212 7558   4.037   3.976   4.104 -0.0175 -0.1488 -0.2302
   81SLPC  H12R 7559   4.089   3.880   4.107  0.7597  0.3025  1.4981
   81SLPC  C213 7560   3.940   3.995   4.197 -0.1038 -0.1141 -0.6509
   81SLPC  H13R 7561   3.911   3.909   4.259  1.3721 -1.0978 -1.3164
   81SLPC  C214 7562   3.849   4.111   4.224  0.4160  0.0690 -0.1880
   81SLPC  H14R 7563   3.750   4.066   4.245  1.9038 -2.2951  1.9736
   81SLPC  H14S 7564   3.820   4.159   4.128  0.6929  2.1329  0.7263
   81SLPC  C215 7565   3.871   4.210   4.343  0.2278  0.2166 -0.2531
   81SLPC  H15R 7566   3.858   4.154   4.438  0.8842 -2.0647 -1.4567
   81SLPC  H15S 7567   3.787   4.283   4.343  0.8447  0.9606 -1.6559
   81SLPC  C216 7568   4.006   4.278   4.340  0.1640 -0.4202 -0.8040
   81SLPC  H16R 7569   4.021   4.321   4.239 -0.1444  1.4452 -0.0761
   81SLPC  H16S 7570   4.090   4.206   4.352 -0.7386 -1.1305  1.6259
   81SLPC  C217 7571   4.016   4.391   4.446 -0.1361 -0.5281 -0.0759
   81SLPC  H17R 7572   3.993   4.345   4.544  0.0058 -1.0271 -0.2761
   81SLPC  H17S 7573   3.929   4.453   4.415  0.4254  0.2259 -0.1624
   81SLPC  C218 7574   4.131   4.489   4.451  0.4084 -0.7176 -0.3077
   81SLPC  H18R 7575   4.100   4.576   4.513 -0.9198 -1.8147  0.5806
   81SLPC  H18S 7576   4.160   4.523   4.349 -2.9912  3.4794 -0.0191
   81SLPC  H18T 7577   4.214   4.427   4.491  0.3112  0.3583  1.6248
   81SLPC   C33 7578   3.863   4.112   2.964 -0.1843 -1.0925  0.0683
   81SLPC   H3X 7579   3.958   4.136   3.016  0.4908 -0.6706 -1.3333
   81SLPC   H3Y 7580   3.868   4.003   2.944  1.6968 -0.8910 -0.6902
   81SLPC   C34 7581   3.740   4.154   3.053 -0.0529  0.0504  0.3167
   81SLPC   H4X 7582   3.642   4.126   3.008 -0.1384  1.7463 -0.6045
   81SLPC   H4Y 7583   3.731   4.263   3.069 -1.4251  0.0886 -0.6196
   81SLPC   C35 7584   3.758   4.092   3.187 -0.0211 -0.4903 -0.2637
   81SLPC   H5X 7585   3.782   3.985   3.167  0.4147  0.1089 -3.0930
   81SLPC   H5Y 7586   3.671   4.097   3.255  1.5697  1.3128  1.7033
   81SLPC   C36 7587   3.869   4.173   3.259 -0.4310 -0.9284 -0.0357
   81SLPC   H6X 7588   3.823   4.261   3.308  0.9653  1.0978 -2.2489
   81SLPC   H6Y 7589   3.947   4.217   3.193 -1.7207  0.2921 -0.7941
   81SLPC   C37 7590   3.949   4.095   3.363  0.3725 -0.7756 -0.4551
   81SLPC   H7X 7591   4.019   4.158   3.421 -1.1762  0.6699 -0.1083
   81SLPC   H7Y 7592   4.018   4.029   3.306  0.5143 -0.8527 -0.1930
   81SLPC   C38 7593   3.863   4.012   3.464 -0.3850  0.1160 -0.0993
   81SLPC   H8X 7594   3.787   3.948   3.415  0.7114  0.1995 -1.9410
   81SLPC   H8Y 7595   3.796   4.084   3.515 -1.6252 -0.5276 -0.7925
   81SLPC   C39 7596   3.949   3.924   3.558 -0.5179 -0.4085  0.4822
   81SLPC   H9X 7597   4.011   4.001   3.608 -1.1680  0.8433 -0.5888
   81SLPC   H9Y 7598   4.003   3.847   3.500 -0.0582  0.1163  0.2092
   81SLPC  C310 7599   3.857   3.865   3.667 -0.9185  0.7449  0.1435
   81SLPC  H10X 7600   3.768   3.810   3.629 -0.6166 -0.1953  0.7606
   81SLPC  H10Y 7601   3.816   3.939   3.738 -0.7314  1.2283 -0.2436
   81SLPC  C311 7602   3.929   3.768   3.761  0.3395 -0.2335 -0.8172
   81SLPC  H11X 7603   3.853   3.720   3.826 -1.9102  2.5291 -1.2559
   81SLPC  H11Y 7604   4.008   3.818   3.821 -0.5831 -0.8679  0.9376
   81SLPC  C312 7605   4.003   3.654   3.691 -0.3040  0.3474 -0.4541
   81SLPC  H12X 7606   4.086   3.700   3.632  1.4343 -0.7299  1.0916
   81SLPC  H12Y 7607   3.939   3.603   3.616 -1.0445 -1.3079  1.2718
   81SLPC  C313 7608   4.062   3.556   3.798 -0.4997  0.2048  0.6640
   81SLPC  H13X 7609   4.135   3.484   3.755  1.7803  1.0676  3.0035
   81SLPC  H13Y 7610   3.977   3.494   3.834 -0.8924  0.2872 -0.1074
   81SLPC  C314 7611   4.132   3.634   3.913 -0.2719 -0.9127 -0.5502
   81SLPC  H14X 7612   4.056   3.687   3.974 -1.6718  0.3171 -3.2872
   81SLPC  H14Y 7613   4.203   3.703   3.863 -0.6713 -1.6380 -2.1496
   81SLPC  C315 7614   4.213   3.542   4.002 -0.4555 -0.1345  0.5047
   81SLPC  H15X 7615   4.291   3.494   3.939 -1.7467 -1.0869 -0.4000
   81SLPC  H15Y 7616   4.148   3.461   4.042 -1.4458 -0.2454 -1.2644
   81SLPC  C316 7617   4.277   3.622   4.118  0.3639  0.1681 -0.7212
   81SLPC  H16X 7618   4.198   3.680   4.171 -1.3695 -0.2654 -2.7464
   81SLPC  H16Y 7619   4.349   3.692   4.072  0.5746 -0.5113 -1.4379
   81SLPC  C317 7620   4.343   3.530   4.218 -0.3184  0.2863  0.6961
   81SLPC  H17X 7621   4.269   3.461   4.262  0.7676 -1.0289  0.4975
   81SLPC  H17Y 7622   4.371   3.591   4.307 -0.7008  3.0187 -1.0037
   81SLPC  C318 7623   4.462   3.443   4.169  0.3582  0.1733 -0.7805
   81SLPC  H18X 7624   4.419   3.375   4.092 -0.8388 -0.0410  0.0528
   81SLPC  H18Y 7625   4.493   3.386   4.260 -1.1057  1.5098  0.5871
   81SLPC  H18Z 7626   4.542   3.507   4.127  1.9387 -0.5338  1.0871
   82SLPC     N 7627   3.326   3.519   2.221  0.9679  0.2463 -0.1554
   82SLPC   C13 7628   3.236   3.634   2.171  0.1439  0.9673  0.3600
   82SLPC  H13A 7629   3.159   3.606   2.100  2.0910 -3.2777 -0.2084
   82SLPC  H13B 7630   3.192   3.681   2.258  0.1130  2.2278 -0.3191
   82SLPC  H13C 7631   3.298   3.702   2.115 -0.7425  3.1291  1.9409
   82SLPC   C14 7632   3.438   3.595   2.281  0.7966 -0.0741 -1.1270
   82SLPC  H14A 7633   3.511   3.533   2.331  0.3788 -0.3028 -0.7959
   82SLPC  H14B 7634   3.489   3.648   2.202 -0.9923  1.0013 -1.6039
   82SLPC  H14C 7635   3.401   3.662   2.358  1.1179 -0.4604 -0.6303
   82SLPC   C15 7636   3.375   3.434   2.114  0.0050 -0.0605  0.5036
   82SLPC  H15A 7637   3.444   3.491   2.054  0.7979  0.2680  1.7031
   82SLPC  H15B 7638   3.442   3.356   2.145 -0.5695 -0.3860  0.9413
   82SLPC  H15C 7639   3.301   3.390   2.050 -0.5821  0.7184  0.6376
   82SLPC   C12 7640   3.246   3.435   2.327 -0.2734 -0.2377 -0.9359
   82SLPC  H12A 7641   3.283   3.334   2.337 -2.0120 -0.7240  0.9836
   82SLPC  H12B 7642   3.150   3.400   2.292 -0.1249 -1.5023 -0.1117
   82SLPC   C11 7643   3.212   3.495   2.472 -0.3387  0.0538 -0.1501
   82SLPC  H11A 7644   3.307   3.518   2.526  0.8230  1.1071 -2.5779
   82SLPC  H11B 7645   3.147   3.416   2.517 -1.8188  1.6354  0.5233
   82SLPC     P 7646   3.161   3.752   2.518 -0.5216  0.4082 -0.1706
   82SLPC   O13 7647   3.292   3.793   2.468  0.4771  0.7267 -0.5289
   82SLPC   O14 7648   3.045   3.842   2.482 -0.4309 -0.3680  0.3588
   82SLPC   O12 7649   3.127   3.610   2.457 -0.2656 -0.0516 -0.2781
   82SLPC   O11 7650   3.166   3.741   2.673  0.0225 -0.4853 -0.2356
   82SLPC    C1 7651   3.045   3.772   2.749  0.2386 -0.2927 -0.3297
   82SLPC    HA 7652   3.060   3.866   2.805  0.4528 -1.4945  1.6909
   82SLPC    HB 7653   2.950   3.792   2.695  0.1228 -1.0410 -0.4169
   82SLPC    C2 7654   3.018   3.663   2.848  0.3477  0.1554 -0.4071
   82SLPC    HS 7655   3.006   3.568   2.792  0.9896  0.8080 -1.6676
   82SLPC   O21 7656   2.899   3.697   2.914  0.6602  0.0264 -0.4965
   82SLPC   C21 7657   2.780   3.650   2.867 -0.2204 -0.4919  0.2071
   82SLPC   O22 7658   2.763   3.572   2.773  0.1875 -0.6600 -0.4972
   82SLPC   C22 7659   2.662   3.708   2.948 -0.3341 -0.0888  0.3708
   82SLPC   H2R 7660   2.661   3.819   2.943 -2.1478  0.0193  2.6345
   82SLPC   H2S 7661   2.579   3.657   2.894 -0.4123 -0.3301  0.7218
   82SLPC    C3 7662   3.132   3.647   2.955 -0.6403 -0.1526  0.0865
   82SLPC    HX 7663   3.230   3.647   2.903 -0.7572 -2.7607 -0.1542
   82SLPC    HY 7664   3.109   3.551   3.006 -0.4796 -0.6054 -0.6969
   82SLPC   O31 7665   3.150   3.768   3.036  0.4506 -0.4249 -0.3875
   82SLPC   C31 7666   3.077   3.751   3.150 -0.5460 -0.1725 -0.1552
   82SLPC   O32 7667   3.023   3.648   3.184  0.2805  0.4932  0.3845
   82SLPC   C32 7668   3.075   3.883   3.228  0.2308  0.6354  0.8553
   82SLPC   H2X 7669   3.093   3.961   3.151 -1.0634 -0.6103 -0.7422
   82SLPC   H2Y 7670   3.149   3.881   3.311 -1.2280  0.4765  2.1833
   82SLPC   C23 7671   2.666   3.666   3.098 -0.3429 -0.6714  0.3831
   82SLPC   H3R 7672   2.757   3.714   3.140 -1.1169  1.0025  0.1988
   82SLPC   H3S 7673   2.668   3.555   3.104  1.0650 -0.6310  0.9337
   82SLPC   C24 7674   2.538   3.710   3.175  0.0430  0.5341 -0.0722
   82SLPC   H4R 7675   2.443   3.682   3.124  0.1183 -3.3557  1.7231
   82SLPC   H4S 7676   2.539   3.821   3.173  4.5988  0.5610 -1.5976
   82SLPC   C25 7677   2.535   3.662   3.320 -0.2654  0.2224  0.1497
   82SLPC   H5R 7678   2.446   3.710   3.366  0.7524  1.4146  0.9081
   82SLPC   H5S 7679   2.625   3.694   3.377 -1.5614  2.4231  1.0144
   82SLPC   C26 7680   2.521   3.513   3.339 -0.6683  0.8112 -0.0810
   82SLPC   H6R 7681   2.618   3.472   3.303 -1.0332 -1.0528  0.9795
   82SLPC   H6S 7682   2.437   3.476   3.277 -1.7955  2.0012  0.7314
   82SLPC   C27 7683   2.496   3.449   3.475  0.2910  0.0112 -0.2067
   82SLPC   H7R 7684   2.470   3.342   3.459  1.7945 -0.2357 -1.1053
   82SLPC   H7S 7685   2.408   3.493   3.526 -0.6197 -2.8235  0.7624
   82SLPC   C28 7686   2.615   3.449   3.573  0.0917 -0.7630 -0.5096
   82SLPC   H8R 7687   2.653   3.554   3.575 -0.2112 -0.6239 -1.4818
   82SLPC   H8S 7688   2.702   3.400   3.524 -0.3562 -1.0966 -0.9793
   82SLPC   C29 7689   2.599   3.376   3.698 -0.0501 -0.1539 -0.7156
   82SLPC   H9R 7690   2.607   3.266   3.692  2.1521  0.0890 -2.7859
   82SLPC  C210 7691   2.581   3.437   3.820 -0.0317 -0.4229  0.2097
   82SLPC  H10R 7692   2.578   3.377   3.911 -2.1651 -0.7897 -0.0712
   82SLPC  C211 7693   2.579   3.585   3.841  0.4361  0.7661  0.6406
   82SLPC  H11R 7694   2.489   3.631   3.794  0.4334 -0.4629 -0.6028
   82SLPC  H11S 7695   2.667   3.641   3.804  0.4760  1.6386  2.0312
   82SLPC  C212 7696   2.570   3.605   3.991  0.0212  0.2938  0.0239
   82SLPC  H12R 7697   2.476   3.653   4.023 -1.2597 -1.1345 -1.5329
   82SLPC  C213 7698   2.656   3.585   4.093 -0.2773  0.1655  0.8928
   82SLPC  H13R 7699   2.612   3.597   4.193 -1.7473 -0.4527  0.3470
   82SLPC  C214 7700   2.797   3.544   4.078 -0.2665 -0.2154 -0.4007
   82SLPC  H14R 7701   2.834   3.519   3.976 -4.0342 -1.3821 -1.5485
   82SLPC  H14S 7702   2.814   3.459   4.148 -3.2867 -2.1207 -1.9195
   82SLPC  C215 7703   2.884   3.655   4.144  0.4808 -0.3964 -0.1683
   82SLPC  H15R 7704   2.853   3.757   4.112  0.2816  0.0186  1.3362
   82SLPC  H15S 7705   2.981   3.644   4.092  0.0925  0.6900 -1.1546
   82SLPC  C216 7706   2.897   3.667   4.296  0.8736  0.1285  0.5043
   82SLPC  H16R 7707   2.932   3.569   4.335 -2.2825 -0.0407  3.1265
   82SLPC  H16S 7708   2.797   3.682   4.342  1.4597 -0.8003  2.1378
   82SLPC  C217 7709   2.993   3.781   4.351 -0.0044  0.3273  0.2468
   82SLPC  H17R 7710   2.959   3.877   4.306  0.0839  0.7784  1.1278
   82SLPC  H17S 7711   3.101   3.765   4.329  0.1991  0.7574  0.9178
   82SLPC  C218 7712   2.976   3.797   4.499 -0.5200  0.6981  0.7132
   82SLPC  H18R 7713   3.039   3.717   4.543  0.6428  2.3543  2.1310
   82SLPC  H18S 7714   2.872   3.786   4.537 -0.5643 -1.1294  0.0862
   82SLPC  H18T 7715   3.013   3.895   4.536  3.3917 -0.1704 -0.6555
   82SLPC   C33 7716   2.938   3.909   3.290 -0.8149 -0.1988  0.5955
   82SLPC   H3X 7717   2.926   3.853   3.385  0.9633 -1.0588  0.3392
   82SLPC   H3Y 7718   2.864   3.889   3.210 -0.3319 -0.1784  0.1363
   82SLPC   C34 7719   2.926   4.057   3.329  0.5933  0.2927  0.4783
   82SLPC   H4X 7720   2.949   4.112   3.235  0.7048  0.0803  0.3776
   82SLPC   H4Y 7721   3.010   4.083   3.397  1.1916  1.2417 -0.5937
   82SLPC   C35 7722   2.782   4.092   3.380 -0.7015  0.1053  0.2598
   82SLPC   H5X 7723   2.716   4.076   3.292  0.5433  3.0910 -1.2861
   82SLPC   H5Y 7724   2.782   4.203   3.390  1.2874  0.1371  0.1330
   82SLPC   C36 7725   2.743   4.022   3.508  0.4395 -0.1354  0.8494
   82SLPC   H6X 7726   2.801   4.051   3.597  0.4152  0.8597  0.5440
   82SLPC   H6Y 7727   2.742   3.911   3.511 -1.1119 -0.1177  1.8238
   82SLPC   C37 7728   2.597   4.066   3.544 -0.8058  0.0578 -0.1692
   82SLPC   H7X 7729   2.544   4.034   3.452 -0.6363 -1.6735  0.3202
   82SLPC   H7Y 7730   2.583   4.176   3.554  1.2154  0.3247  0.0460
   82SLPC   C38 7731   2.546   3.990   3.666 -0.6214 -0.4567 -0.7287
   82SLPC   H8X 7732   2.607   4.023   3.753 -0.4927  0.8036 -1.2907
   82SLPC   H8Y 7733   2.583   3.886   3.652  0.8640  0.0313 -0.4803
   82SLPC   C39 7734   2.391   3.989   3.684 -0.5131  0.2358 -0.3816
   82SLPC   H9X 7735   2.351   3.928   3.600 -0.0612 -0.5998 -0.0020
   82SLPC   H9Y 7736   2.355   4.094   3.678 -0.0763  0.4857  1.1866
   82SLPC  C310 7737   2.346   3.938   3.822 -0.3697  0.6977  0.5488
   82SLPC  H10X 7738   2.359   3.828   3.825 -1.4178  0.6036  3.4688
   82SLPC  H10Y 7739   2.235   3.950   3.822 -0.5195 -0.6164 -0.6927
   82SLPC  C311 7740   2.398   4.008   3.947 -0.8921 -0.2877  0.3523
   82SLPC  H11X 7741   2.418   4.114   3.924  0.8586 -0.7471 -0.2836
   82SLPC  H11Y 7742   2.492   3.955   3.974  0.2732  1.8246  0.5641
   82SLPC  C312 7743   2.307   3.991   4.071 -0.7154  0.2279  0.2984
   82SLPC  H12X 7744   2.203   4.001   4.034 -1.3584  0.6352  2.1625
   82SLPC  H12Y 7745   2.337   4.070   4.143  0.7622 -0.7751  0.8154
   82SLPC  C313 7746   2.322   3.851   4.131  0.0388 -0.7355 -0.0037
   82SLPC  H13X 7747   2.429   3.821   4.128  0.6554  1.1245  1.8072
   82SLPC  H13Y 7748   2.279   3.780   4.058 -2.0067  1.6322 -1.1946
   82SLPC  C314 7749   2.262   3.825   4.278 -0.6173 -0.6440  0.4857
   82SLPC  H14X 7750   2.280   3.723   4.319  2.1890 -0.7428 -0.8655
   82SLPC  H14Y 7751   2.153   3.837   4.263 -0.5712 -0.7119  0.0806
   82SLPC  C315 7752   2.312   3.926   4.378 -0.2308  0.3588 -0.2887
   82SLPC  H15X 7753   2.271   3.898   4.478 -0.7935 -0.4821 -0.7532
   82SLPC  H15Y 7754   2.274   4.030   4.366 -0.3794  0.2299 -0.9532
   82SLPC  C316 7755   2.466   3.925   4.384  0.3789 -0.6825  0.0106
   82SLPC  H16X 7756   2.503   3.978   4.294  0.7732  3.3271  2.3699
   82SLPC  H16Y 7757   2.494   3.818   4.384  0.4302 -0.6737 -0.9388
   82SLPC  C317 7758   2.514   3.995   4.511  0.0857 -0.4423 -0.3527
   82SLPC  H17X 7759   2.480   3.943   4.603  1.5152 -0.0952  0.3811
   82SLPC  H17Y 7760   2.471   4.097   4.502 -0.3300 -0.5477  0.3826
   82SLPC  C318 7761   2.658   4.031   4.533  0.4988 -0.1996  0.4929
   82SLPC  H18X 7762   2.677   4.072   4.635  1.3831 -0.7292  0.5523
   82SLPC  H18Y 7763   2.692   4.099   4.453 -0.2389  0.4840  0.7567
   82SLPC  H18Z 7764   2.719   3.938   4.536 -1.7599 -1.6846  1.9530
   83SLPC     N 7765   4.185   5.739   2.564  0.8138  0.7091  0.5503
   83SLPC   C13 7766   4.285   5.642   2.506  0.4467 -0.1937 -0.2143
   83SLPC  H13A 7767   4.273   5.649   2.399 -2.9273 -2.9178 -0.0904
   83SLPC  H13B 7768   4.386   5.674   2.527  0.7756  0.6432 -2.8599
   83SLPC  H13C 7769   4.269   5.539   2.535 -1.4200 -0.1025 -0.9149
   83SLPC   C14 7770   4.234   5.882   2.543 -0.9493 -0.4584 -0.2073
   83SLPC  H14A 7771   4.221   5.915   2.441 -1.9169 -1.0691 -0.2907
   83SLPC  H14B 7772   4.161   5.945   2.592  0.1536 -0.9985  2.2085
   83SLPC  H14C 7773   4.335   5.899   2.578  0.0254 -1.2485 -2.5533
   83SLPC   C15 7774   4.175   5.712   2.713 -0.4757  0.3866  0.6151
   83SLPC  H15A 7775   4.257   5.753   2.769 -0.3878  0.6936  0.2602
   83SLPC  H15B 7776   4.085   5.761   2.747  0.0801  0.8321  1.4387
   83SLPC  H15C 7777   4.147   5.607   2.719 -0.3825  0.1112 -2.6844
   83SLPC   C12 7778   4.044   5.735   2.509 -0.7678 -0.0532  0.6313
   83SLPC  H12A 7779   4.054   5.763   2.405  0.9500 -0.0845  0.7682
   83SLPC  H12B 7780   3.986   5.812   2.557 -1.0913  2.0474 -2.9264
   83SLPC   C11 7781   3.977   5.598   2.496  0.2537 -0.0603  0.2950
   83SLPC  H11A 7782   4.048   5.540   2.433  1.4058  0.5910  0.9661
   83SLPC  H11B 7783   3.879   5.607   2.445 -0.7784  1.0464  2.4375
   83SLPC     P 7784   3.841   5.561   2.708 -0.1370 -0.0440  0.1107
   83SLPC   O13 7785   3.784   5.693   2.668 -0.1662 -0.3061 -0.1769
   83SLPC   O14 7786   3.750   5.448   2.695  1.2823 -0.0044  0.2053
   83SLPC   O12 7787   3.973   5.538   2.626 -0.1977 -0.5611 -0.0126
   83SLPC   O11 7788   3.889   5.566   2.855  0.3261  0.2734  0.3101
   83SLPC    C1 7789   3.998   5.478   2.901 -0.7166 -0.6028 -0.0332
   83SLPC    HA 7790   4.086   5.472   2.834 -0.3854  3.6039 -0.0922
   83SLPC    HB 7791   4.040   5.518   2.996  0.2035  0.5332 -0.9036
   83SLPC    C2 7792   3.944   5.335   2.924  0.5824  0.0710  0.0334
   83SLPC    HS 7793   3.921   5.298   2.822 -0.7648  1.9385 -0.3633
   83SLPC   O21 7794   3.838   5.337   3.019 -0.3367 -0.2965  0.3125
   83SLPC   C21 7795   3.782   5.217   3.039  0.4368  0.3346  0.1823
   83SLPC   O22 7796   3.785   5.118   2.966 -0.3737 -0.5580 -0.8038
   83SLPC   C22 7797   3.718   5.213   3.175  0.1379 -0.1808  0.0213
   83SLPC   H2R 7798   3.676   5.316   3.186  2.0955  0.5709  0.5863
   83SLPC   H2S 7799   3.632   5.146   3.154 -1.2728  1.1592  1.3187
   83SLPC    C3 7800   4.064   5.239   2.971 -0.6434  0.5609  0.2745
   83SLPC    HX 7801   4.138   5.224   2.890  1.1248 -0.5995  2.0408
   83SLPC    HY 7802   4.028   5.137   2.996 -0.5008  1.0925  2.8457
   83SLPC   O31 7803   4.121   5.288   3.092  0.3319  0.1411 -0.4471
   83SLPC   C31 7804   4.228   5.364   3.084  0.3355 -0.2257  0.2023
   83SLPC   O32 7805   4.281   5.400   2.978 -0.1110  0.4324 -0.3302
   83SLPC   C32 7806   4.281   5.408   3.212  0.1183 -0.2276 -0.4221
   83SLPC   H2X 7807   4.369   5.472   3.192 -0.0579 -0.6913 -2.7247
   83SLPC   H2Y 7808   4.317   5.319   3.268  0.8904  1.7120  2.3059
   83SLPC   C23 7809   3.814   5.177   3.286 -0.1586  0.3911  0.2343
   83SLPC   H3R 7810   3.882   5.264   3.294  2.3820 -1.7539  3.0885
   83SLPC   H3S 7811   3.886   5.094   3.267  1.9539  1.8883  1.4068
   83SLPC   C24 7812   3.732   5.138   3.418  0.1157  0.3315 -0.1485
   83SLPC   H4R 7813   3.676   5.046   3.392  1.0345 -0.6674  1.3500
   83SLPC   H4S 7814   3.669   5.228   3.436 -0.9671 -0.8179  1.8693
   83SLPC   C25 7815   3.825   5.100   3.536 -0.1621  0.5223  0.0704
   83SLPC   H5R 7816   3.869   5.000   3.515  2.0587  1.9097 -2.1966
   83SLPC   H5S 7817   3.766   5.091   3.629 -0.7568 -1.0583 -0.4370
   83SLPC   C26 7818   3.949   5.184   3.565  0.5203 -0.2583  0.2523
   83SLPC   H6R 7819   3.917   5.289   3.582  1.4339 -0.1170  1.1713
   83SLPC   H6S 7820   4.012   5.195   3.474 -1.1721 -1.2572 -1.0528
   83SLPC   C27 7821   4.036   5.125   3.674  0.0096 -0.0623  1.3062
   83SLPC   H7R 7822   4.103   5.047   3.634  2.9636  1.7832  2.4929
   83SLPC   H7S 7823   3.967   5.084   3.752 -0.3235  0.2784  1.1953
   83SLPC   C28 7824   4.122   5.234   3.743 -0.7153  0.6787 -0.0485
   83SLPC   H8R 7825   4.052   5.321   3.750 -1.5884 -0.1662  1.8345
   83SLPC   H8S 7826   4.194   5.255   3.660 -1.3848  1.2081 -0.5076
   83SLPC   C29 7827   4.175   5.200   3.880  0.1377  0.3109 -0.8016
   83SLPC   H9R 7828   4.100   5.184   3.959  0.2710  0.8765 -0.5551
   83SLPC  C210 7829   4.303   5.178   3.914 -0.5467  0.1145  0.1805
   83SLPC  H10R 7830   4.343   5.154   4.013 -0.1127 -0.8041 -0.2123
   83SLPC  C211 7831   4.416   5.187   3.805  0.5907  0.1052 -0.1236
   83SLPC  H11R 7832   4.436   5.295   3.787 -1.3116  0.7942  1.5990
   83SLPC  H11S 7833   4.379   5.146   3.709  1.1390 -1.2664  0.2474
   83SLPC  C212 7834   4.546   5.117   3.842 -0.1258 -0.6215  0.1993
   83SLPC  H12R 7835   4.566   5.028   3.781  0.5437 -1.2877  1.3693
   83SLPC  C213 7836   4.626   5.147   3.940 -0.6222 -0.1884 -0.2799
   83SLPC  H13R 7837   4.717   5.089   3.960  0.2124  0.9689 -0.5913
   83SLPC  C214 7838   4.608   5.260   4.030 -0.5357  0.3385 -0.5457
   83SLPC  H14R 7839   4.549   5.235   4.121  0.2367 -0.8567 -0.3710
   83SLPC  H14S 7840   4.546   5.337   3.978 -0.8868 -0.0817 -0.7452
   83SLPC  C215 7841   4.745   5.327   4.079  0.0586  0.0650 -0.5969
   83SLPC  H15R 7842   4.808   5.357   3.993 -1.9730  0.6869 -1.8942
   83SLPC  H15S 7843   4.794   5.256   4.150  0.7019 -2.0273 -3.0781
   83SLPC  C216 7844   4.726   5.455   4.170 -0.3467  0.4921  0.0998
   83SLPC  H16R 7845   4.704   5.428   4.275 -1.2042  0.1328 -0.1628
   83SLPC  H16S 7846   4.633   5.500   4.127 -0.4879 -0.3410 -0.4766
   83SLPC  C217 7847   4.856   5.540   4.158  0.6457  0.0591  0.3386
   83SLPC  H17R 7848   4.895   5.540   4.054  2.5074  1.3915  1.0082
   83SLPC  H17S 7849   4.931   5.505   4.232  0.0251 -1.2346  0.3785
   83SLPC  C218 7850   4.841   5.694   4.195  0.4270 -0.0513 -0.6343
   83SLPC  H18R 7851   4.759   5.743   4.138  1.1940  0.6120 -1.1862
   83SLPC  H18S 7852   4.938   5.745   4.177  1.0312 -0.8571  0.3147
   83SLPC  H18T 7853   4.825   5.705   4.304 -1.2899  1.4318 -0.9936
   83SLPC   C33 7854   4.173   5.477   3.290 -0.2328 -0.9351  0.2139
   83SLPC   H3X 7855   4.080   5.417   3.298  1.2235 -3.2582  0.1857
   83SLPC   H3Y 7856   4.142   5.574   3.247 -1.1286 -0.6520  1.4743
   83SLPC   C34 7857   4.219   5.500   3.433  1.2608 -0.4563 -0.2491
   83SLPC   H4X 7858   4.283   5.590   3.451  0.7312 -0.5550  2.4422
   83SLPC   H4Y 7859   4.280   5.415   3.471  0.4252 -0.4935  1.0269
   83SLPC   C35 7860   4.102   5.527   3.523 -0.3909 -0.6843 -0.6326
   83SLPC   H5X 7861   4.060   5.432   3.563 -1.3273  0.0639  0.1957
   83SLPC   H5Y 7862   4.020   5.568   3.460 -0.1168  2.4817  0.9643
   83SLPC   C36 7863   4.129   5.617   3.644  0.3266  0.3622 -0.2724
   83SLPC   H6X 7864   4.172   5.713   3.608  0.2781  0.2424 -0.6511
   83SLPC   H6Y 7865   4.204   5.567   3.709  0.3878 -0.6400 -1.0963
   83SLPC   C37 7866   3.999   5.647   3.721  0.4323 -0.5288  0.3583
   83SLPC   H7X 7867   3.966   5.557   3.776  1.4605 -0.3816  1.2247
   83SLPC   H7Y 7868   3.925   5.675   3.642  2.6518 -2.2447 -2.4305
   83SLPC   C38 7869   4.010   5.768   3.820  0.0860  1.0437  0.0538
   83SLPC   H8X 7870   4.041   5.861   3.769  1.2361 -0.8761 -2.8708
   83SLPC   H8Y 7871   4.096   5.735   3.882  0.8866  0.4476 -1.3573
   83SLPC   C39 7872   3.882   5.795   3.897  0.1434  0.3305 -0.6518
   83SLPC   H9X 7873   3.838   5.699   3.931  0.7760  0.7660  1.4422
   83SLPC   H9Y 7874   3.803   5.844   3.836 -2.3370  0.1399  2.2927
   83SLPC  C310 7875   3.899   5.874   4.025  0.1921 -0.1075  0.1967
   83SLPC  H10X 7876   3.806   5.851   4.081  0.4697  1.9443  1.5763
   83SLPC  H10Y 7877   3.909   5.982   4.003 -0.7742 -0.4355 -1.9703
   83SLPC  C311 7878   4.020   5.838   4.121 -0.2968 -0.5783 -0.0520
   83SLPC  H11X 7879   3.993   5.900   4.209 -2.2056 -1.4001 -0.0302
   83SLPC  H11Y 7880   4.108   5.881   4.068 -0.5346  2.8494  2.2201
   83SLPC  C312 7881   4.025   5.687   4.153  0.9317  0.2692 -0.0137
   83SLPC  H12X 7882   4.054   5.644   4.055  1.9740  0.0916  0.3628
   83SLPC  H12Y 7883   3.930   5.648   4.196 -0.5145  2.2244 -1.4293
   83SLPC  C313 7884   4.145   5.670   4.245 -0.1933 -0.1008  0.1943
   83SLPC  H13X 7885   4.165   5.562   4.262  3.3076  0.4920  0.2292
   83SLPC  H13Y 7886   4.119   5.724   4.339  1.5132  0.1557  0.5322
   83SLPC  C314 7887   4.281   5.712   4.178  0.9058  0.3130 -0.1780
   83SLPC  H14X 7888   4.278   5.823   4.181 -2.4110  0.2158  2.8481
   83SLPC  H14Y 7889   4.293   5.668   4.077 -1.9327 -0.9294 -0.0428
   83SLPC  C315 7890   4.395   5.668   4.266 -0.1330 -0.4752  0.2031
   83SLPC  H15X 7891   4.490   5.684   4.211  0.1384  1.0681  1.0918
   83SLPC  H15Y 7892   4.388   5.558   4.282 -0.3498 -0.4944 -0.0352
   83SLPC  C316 7893   4.399   5.757   4.395  0.0481  0.0416 -0.8115
   83SLPC  H16X 7894   4.310   5.734   4.456 -0.3421 -0.2739 -1.4948
   83SLPC  H16Y 7895   4.389   5.866   4.382 -1.7916  0.0202  0.2557
   83SLPC  C317 7896   4.517   5.734   4.488  0.1155  0.2326 -0.7033
   83SLPC  H17X 7897   4.503   5.786   4.585  0.9170  0.1174 -0.5272
   83SLPC  H17Y 7898   4.608   5.774   4.440  0.5304  1.3999  0.9952
   83SLPC  C318 7899   4.528   5.588   4.533 -0.3588 -0.0394  0.8473
   83SLPC  H18X 7900   4.604   5.582   4.614  0.8841  0.0635 -0.2896
   83SLPC  H18Y 7901   4.565   5.534   4.442  1.2656  1.3765  0.6569
   83SLPC  H18Z 7902   4.426   5.552   4.558 -0.8488  0.8806  0.2138
   84SLPC     N 7903   0.443   2.069   2.258 -0.2626 -0.3434  0.2480
   84SLPC   C13 7904   0.312   2.048   2.339  0.3022  0.5031 -0.3633
   84SLPC  H13A 7905   0.307   2.118   2.421 -1.1097  0.3292 -0.2841
   84SLPC  H13B 7906   0.220   2.066   2.286  0.4715  1.7493 -0.2614
   84SLPC  H13C 7907   0.306   1.944   2.369  0.2949 -0.1766 -2.6557
   84SLPC   C14 7908   0.454   2.209   2.223 -0.5401 -0.0080 -0.3298
   84SLPC  H14A 7909   0.372   2.250   2.166 -2.3737 -1.8387  0.9048
   84SLPC  H14B 7910   0.471   2.268   2.312  3.0861  1.9402 -2.2012
   84SLPC  H14C 7911   0.545   2.225   2.167  0.2918 -0.1561  0.9473
   84SLPC   C15 7912   0.434   1.999   2.127  0.2906  0.0281 -0.1068
   84SLPC  H15A 7913   0.519   2.026   2.065 -1.0031  0.9768 -1.5278
   84SLPC  H15B 7914   0.433   1.893   2.144  1.4580  0.2267  1.3438
   84SLPC  H15C 7915   0.340   2.029   2.083 -0.2451  0.3139  1.2257
   84SLPC   C12 7916   0.563   2.021   2.330  0.4956  0.3311 -0.1480
   84SLPC  H12A 7917   0.652   2.052   2.277  0.9226  0.0437  0.3993
   84SLPC  H12B 7918   0.571   1.914   2.334 -1.5404  0.1611 -0.1656
   84SLPC   C11 7919   0.593   2.087   2.472 -0.4980 -0.2324 -0.0030
   84SLPC  H11A 7920   0.664   2.020   2.525 -2.0455 -1.2098  0.8746
   84SLPC  H11B 7921   0.496   2.089   2.526  0.1903  0.6857  1.2442
   84SLPC     P 7922   0.578   2.351   2.524 -0.2631 -0.0113 -0.1296
   84SLPC   O13 7923   0.612   2.469   2.439 -0.5493  0.9021  0.1966
   84SLPC   O14 7924   0.434   2.334   2.551 -0.2186 -0.0311 -0.3757
   84SLPC   O12 7925   0.642   2.219   2.456 -0.4338  0.1638  0.3951
   84SLPC   O11 7926   0.646   2.375   2.666 -0.1195 -0.1884 -0.7206
   84SLPC    C1 7927   0.583   2.363   2.789  0.3650  0.4417 -0.7266
   84SLPC    HA 7928   0.561   2.465   2.828 -1.4401 -0.7544  1.4825
   84SLPC    HB 7929   0.486   2.311   2.778 -0.0183  0.3248  2.7318
   84SLPC    C2 7930   0.676   2.288   2.891 -0.5494  0.1595  0.2159
   84SLPC    HS 7931   0.611   2.267   2.979  1.8827  1.4133  2.3938
   84SLPC   O21 7932   0.792   2.376   2.914 -0.0514 -0.1295  0.0150
   84SLPC   C21 7933   0.829   2.388   3.038 -0.4445  0.2370  0.7103
   84SLPC   O22 7934   0.796   2.314   3.128  0.0716  0.1439  0.4057
   84SLPC   C22 7935   0.916   2.511   3.051  0.1507 -0.5591  0.3322
   84SLPC   H2R 7936   1.002   2.504   2.981 -0.3532  0.6892 -0.4099
   84SLPC   H2S 7937   0.853   2.598   3.024 -0.7891 -0.7017  1.9923
   84SLPC    C3 7938   0.725   2.152   2.842  0.4959  0.3824  0.5788
   84SLPC    HX 7939   0.803   2.176   2.767  0.5155 -0.4522  0.3275
   84SLPC    HY 7940   0.638   2.100   2.797 -0.1722 -0.2071  2.4773
   84SLPC   O31 7941   0.777   2.074   2.947  0.0758 -0.5489 -0.4166
   84SLPC   C31 7942   0.689   1.997   3.015  0.2301 -0.2687  0.5331
   84SLPC   O32 7943   0.570   1.998   2.996 -0.2926 -0.1304 -0.7609
   84SLPC   C32 7944   0.763   1.910   3.124 -0.1493  0.1774 -0.0076
   84SLPC   H2X 7945   0.851   1.971   3.154 -0.3040  1.8676 -2.8571
   84SLPC   H2Y 7946   0.806   1.822   3.072  0.3466  0.3617  0.0869
   84SLPC   C23 7947   0.981   2.534   3.197 -0.6146 -0.6335  0.1060
   84SLPC   H3R 7948   1.072   2.597   3.205 -0.5302 -1.0472  2.5644
   84SLPC   H3S 7949   1.019   2.433   3.223 -0.7143 -1.5875 -3.1826
   84SLPC   C24 7950   0.881   2.564   3.308 -0.7499 -0.2215 -0.4671
   84SLPC   H4R 7951   0.817   2.474   3.324  2.5954 -2.5681  0.3608
   84SLPC   H4S 7952   0.801   2.632   3.275 -0.7189  0.2687  0.4460
   84SLPC   C25 7953   0.942   2.593   3.443 -0.2431  0.0503 -0.4785
   84SLPC   H5R 7954   1.020   2.672   3.437 -0.6144  0.6615  1.9992
   84SLPC   H5S 7955   1.002   2.501   3.460 -1.6009 -0.8976 -0.7538
   84SLPC   C26 7956   0.842   2.613   3.558  0.1905 -0.7279 -0.0433
   84SLPC   H6R 7957   0.755   2.544   3.551  1.0647 -1.7566 -0.9580
   84SLPC   H6S 7958   0.810   2.719   3.566 -1.5411 -1.3304  1.2315
   84SLPC   C27 7959   0.908   2.593   3.696 -0.1399  0.1862  0.2975
   84SLPC   H7R 7960   0.992   2.665   3.682 -0.9145  1.1294  0.4413
   84SLPC   H7S 7961   0.940   2.488   3.716  0.4552  0.1037 -1.0561
   84SLPC   C28 7962   0.837   2.667   3.805  0.3798 -0.3781  0.3379
   84SLPC   H8R 7963   0.849   2.775   3.785 -1.8698  0.2065  1.9342
   84SLPC   H8S 7964   0.904   2.653   3.893  0.8058  0.2406  0.1093
   84SLPC   C29 7965   0.696   2.624   3.841  0.0168 -0.4738 -0.3361
   84SLPC   H9R 7966   0.619   2.652   3.768  2.1407  1.1122 -2.0282
   84SLPC  C210 7967   0.664   2.536   3.936 -0.3794 -0.1650  0.3329
   84SLPC  H10R 7968   0.556   2.520   3.952 -0.2602 -4.1395 -2.1936
   84SLPC  C211 7969   0.751   2.471   4.034 -0.1957 -0.1515  0.6877
   84SLPC  H11R 7970   0.795   2.548   4.101  0.9325  0.2488 -0.5014
   84SLPC  H11S 7971   0.835   2.423   3.980 -0.2090 -0.3837  0.8717
   84SLPC  C212 7972   0.674   2.369   4.123 -0.2769 -0.1568 -0.1904
   84SLPC  H12R 7973   0.565   2.363   4.112 -0.1702 -2.4367 -0.4260
   84SLPC  C213 7974   0.741   2.295   4.209  0.6567  0.2081 -0.5394
   84SLPC  H13R 7975   0.672   2.237   4.272  0.4224 -1.9034 -2.6705
   84SLPC  C214 7976   0.883   2.297   4.248 -0.1277  0.4560 -0.2339
   84SLPC  H14R 7977   0.935   2.389   4.213  4.1237 -0.5324  3.0351
   84SLPC  H14S 7978   0.938   2.206   4.214  0.9132  0.8478  0.3915
   84SLPC  C215 7979   0.911   2.305   4.400  0.0679 -0.1648  0.0648
   84SLPC  H15R 7980   0.867   2.398   4.442  1.6515  0.0649  1.2625
   84SLPC  H15S 7981   1.022   2.312   4.406  0.0825  0.9040 -1.2900
   84SLPC  C216 7982   0.879   2.174   4.478 -0.5006  0.0144  0.1477
   84SLPC  H16R 7983   0.771   2.147   4.471 -0.5073 -0.5115  1.9061
   84SLPC  H16S 7984   0.885   2.213   4.582  1.6679  0.3459 -0.0969
   84SLPC  C217 7985   0.986   2.062   4.468 -0.4661  0.3061 -0.3576
   84SLPC  H17R 7986   1.044   2.048   4.374  0.1793 -0.1967  0.1126
   84SLPC  H17S 7987   0.942   1.963   4.493  1.6625 -0.1587  1.6665
   84SLPC  C218 7988   1.091   2.084   4.574  0.0663 -0.1831 -0.3575
   84SLPC  H18R 7989   1.062   2.097   4.681 -1.6598 -1.9450 -0.5861
   84SLPC  H18S 7990   1.147   2.178   4.553 -2.2927  0.8955 -2.0147
   84SLPC  H18T 7991   1.163   2.001   4.561 -1.3356 -2.0146  2.8658
   84SLPC   C33 7992   0.673   1.851   3.237 -0.9447  0.3050  0.2985
   84SLPC   H3X 7993   0.728   1.777   3.298  1.3363  1.5671 -0.1847
   84SLPC   H3Y 7994   0.579   1.807   3.197  0.4463 -1.5487 -0.9728
   84SLPC   C34 7995   0.646   1.969   3.346 -0.0078  0.9193  0.3682
   84SLPC   H4X 7996   0.567   1.920   3.407  0.6154  0.5998  0.9200
   84SLPC   H4Y 7997   0.611   2.058   3.290 -0.7252  0.2177 -0.3188
   84SLPC   C35 7998   0.774   1.991   3.438  0.1838 -0.4783  0.6183
   84SLPC   H5X 7999   0.842   2.067   3.394 -0.4550 -1.3953 -2.0088
   84SLPC   H5Y 8000   0.825   1.893   3.438 -1.0887 -1.1671 -1.7055
   84SLPC   C36 8001   0.742   2.028   3.585 -0.4155 -0.4470 -0.1235
   84SLPC   H6X 8002   0.840   2.017   3.636 -0.8248  0.6328  0.8991
   84SLPC   H6Y 8003   0.676   1.950   3.628  0.1059  0.2069  1.9247
   84SLPC   C37 8004   0.702   2.172   3.616  0.5453  0.6594  0.7019
   84SLPC   H7X 8005   0.609   2.193   3.559  1.3205 -2.5305 -1.8561
   84SLPC   H7Y 8006   0.782   2.239   3.579  1.2844  0.1125  1.3038
   84SLPC   C38 8007   0.692   2.188   3.762  0.1740  0.1942 -0.3847
   84SLPC   H8X 8008   0.672   2.297   3.776 -0.3753  0.0688 -0.1965
   84SLPC   H8Y 8009   0.791   2.167   3.807 -1.1496 -1.5390  1.7869
   84SLPC   C39 8010   0.584   2.106   3.835 -0.2044 -0.5574 -0.3915
   84SLPC   H9X 8011   0.582   2.107   3.946  0.2809 -1.1019 -0.3816
   84SLPC   H9Y 8012   0.599   1.999   3.809  3.2427 -0.4328  0.9207
   84SLPC  C310 8013   0.442   2.135   3.794  0.0182 -0.2102  0.2356
   84SLPC  H10X 8014   0.439   2.139   3.683 -0.8296  3.0613  0.3361
   84SLPC  H10Y 8015   0.414   2.239   3.822  0.0341  0.1718 -1.1737
   84SLPC  C311 8016   0.342   2.030   3.844 -0.4456 -0.3676 -0.8690
   84SLPC  H11X 8017   0.396   1.943   3.887 -2.1817 -1.0461  0.0043
   84SLPC  H11Y 8018   0.284   1.991   3.758 -0.7459 -2.9940  0.4912
   84SLPC  C312 8019   0.238   2.097   3.933  0.4862  0.2263  0.6248
   84SLPC  H12X 8020   0.145   2.038   3.944  1.1434 -1.0333 -0.4318
   84SLPC  H12Y 8021   0.218   2.186   3.868  1.0960  1.2015  1.7584
   84SLPC  C313 8022   0.301   2.142   4.063  0.3323  0.4655 -0.1478
   84SLPC  H13X 8023   0.384   2.214   4.046 -0.2101  1.5826  1.7537
   84SLPC  H13Y 8024   0.340   2.048   4.108  0.3771  0.9993  0.9627
   84SLPC  C314 8025   0.205   2.217   4.151 -0.1157 -0.1727  0.3543
   84SLPC  H14X 8026   0.249   2.219   4.253  1.2158 -2.6260 -0.1258
   84SLPC  H14Y 8027   0.113   2.159   4.171 -0.4541  1.0486  2.5550
   84SLPC  C315 8028   0.173   2.355   4.112  0.0529  0.1426  0.1909
   84SLPC  H15X 8029   0.092   2.399   4.174 -0.4893  1.0126 -1.1110
   84SLPC  H15Y 8030   0.147   2.352   4.004  0.8120  3.1385 -0.1173
   84SLPC  C316 8031   0.274   2.468   4.120 -0.5341 -0.1607  0.8062
   84SLPC  H16X 8032   0.202   2.552   4.111 -1.4908 -0.5899  3.7882
   84SLPC  H16Y 8033   0.343   2.474   4.033 -0.8985 -0.2762  0.5138
   84SLPC  C317 8034   0.364   2.479   4.241 -0.1451 -0.5821 -0.1031
   84SLPC  H17X 8035   0.426   2.387   4.246 -2.3572 -2.0765  0.6179
   84SLPC  H17Y 8036   0.300   2.474   4.332  1.3246 -0.5782  0.9654
   84SLPC  C318 8037   0.447   2.606   4.233 -0.1317  0.2614  0.1706
   84SLPC  H18X 8038   0.369   2.686   4.238 -0.3557 -0.0868  3.1377
   84SLPC  H18Y 8039   0.505   2.621   4.139 -0.4877 -0.0796 -0.1044
   84SLPC  H18Z 8040   0.528   2.617   4.309 -0.0107 -0.0487  0.0882
   85SLPC     N 8041   6.971   4.592   2.251  0.0280 -0.3253  0.4731
   85SLPC   C13 8042   6.860   4.522   2.186  0.7661  0.3590  0.1733
   85SLPC  H13A 8043   6.879   4.481   2.088 -0.1121 -0.1904  0.2216
   85SLPC  H13B 8044   6.822   4.448   2.255  0.1566  1.4112  0.9781
   85SLPC  H13C 8045   6.768   4.578   2.173 -0.1602 -1.3137 -0.6442
   85SLPC   C14 8046   6.991   4.727   2.191  0.0158  0.0399 -0.3353
   85SLPC  H14A 8047   7.076   4.762   2.248  0.7556 -1.9515 -0.1816
   85SLPC  H14B 8048   7.006   4.722   2.084 -2.2597 -0.1573 -0.6616
   85SLPC  H14C 8049   6.913   4.797   2.217  0.5327  0.0921  1.0899
   85SLPC   C15 8050   7.103   4.512   2.237  0.1639  0.0816 -0.3724
   85SLPC  H15A 8051   7.180   4.573   2.281  0.2109 -1.1047  1.2657
   85SLPC  H15B 8052   7.107   4.416   2.287 -1.6711  0.2526  0.1087
   85SLPC  H15C 8053   7.126   4.497   2.133  1.5538 -0.8883  0.0528
   85SLPC   C12 8054   6.956   4.597   2.405 -0.6050 -0.7438  0.0745
   85SLPC  H12A 8055   7.043   4.646   2.444 -0.8917 -0.0775 -0.1215
   85SLPC  H12B 8056   6.957   4.493   2.434  3.0446 -1.3347 -1.8818
   85SLPC   C11 8057   6.831   4.666   2.465  0.1125  0.0852 -0.2227
   85SLPC  H11A 8058   6.836   4.643   2.574 -2.1621  0.0056 -0.1032
   85SLPC  H11B 8059   6.739   4.627   2.416  0.2913 -1.2981  0.4942
   85SLPC     P 8060   6.719   4.889   2.522 -0.4656  0.0093  0.0608
   85SLPC   O13 8061   6.765   5.024   2.530  0.3922  0.1164 -0.0298
   85SLPC   O14 8062   6.588   4.871   2.456  0.3964  0.1195 -0.1760
   85SLPC   O12 8063   6.830   4.807   2.443  1.2417 -0.7971 -0.6300
   85SLPC   O11 8064   6.725   4.820   2.663 -0.2423  0.1458 -0.0387
   85SLPC    C1 8065   6.784   4.882   2.776 -0.2938  0.5622 -0.2018
   85SLPC    HA 8066   6.737   4.978   2.808 -4.0535 -1.1683 -0.2247
   85SLPC    HB 8067   6.765   4.816   2.863  0.6733 -1.0918 -1.2283
   85SLPC    C2 8068   6.936   4.899   2.768  0.6240 -0.2101  0.4151
   85SLPC    HS 8069   6.953   4.928   2.662 -0.1131 -0.3574  0.2539
   85SLPC   O21 8070   6.993   4.764   2.803  0.1633  0.3270 -0.3309
   85SLPC   C21 8071   7.117   4.749   2.765  0.8559  0.2519  0.4621
   85SLPC   O22 8072   7.178   4.829   2.699 -0.3907  0.8870  0.2832
   85SLPC   C22 8073   7.181   4.620   2.815 -0.2583 -1.2343 -0.2955
   85SLPC   H2R 8074   7.162   4.538   2.743 -3.3264  0.3751 -1.4223
   85SLPC   H2S 8075   7.289   4.645   2.805 -0.8782  2.1753  0.7003
   85SLPC    C3 8076   6.977   4.998   2.873 -0.0786 -0.0389 -0.5816
   85SLPC    HX 8077   6.973   5.101   2.831  1.2293 -0.2429 -1.2457
   85SLPC    HY 8078   7.087   4.988   2.889 -0.2546  0.1656  0.8051
   85SLPC   O31 8079   6.905   4.980   2.999  0.6887  0.1295 -0.0825
   85SLPC   C31 8080   6.896   5.082   3.079 -0.4908 -0.8780 -0.7517
   85SLPC   O32 8081   6.933   5.196   3.052 -0.1089  0.6279 -0.8181
   85SLPC   C32 8082   6.811   5.037   3.199  0.5774  0.1325  0.2725
   85SLPC   H2X 8083   6.789   4.928   3.188 -0.0523  0.3945 -1.1923
   85SLPC   H2Y 8084   6.715   5.091   3.190  0.1565 -0.5381  0.6741
   85SLPC   C23 8085   7.143   4.572   2.955  0.3383 -1.2748  0.4103
   85SLPC   H3R 8086   7.180   4.467   2.958  1.3320 -1.0236 -2.1389
   85SLPC   H3S 8087   7.032   4.578   2.966  0.3008  1.1712 -0.9892
   85SLPC   C24 8088   7.210   4.654   3.070 -0.4577  0.0142 -0.3538
   85SLPC   H4R 8089   7.181   4.605   3.165  0.9794  0.5085  0.3620
   85SLPC   H4S 8090   7.184   4.762   3.070  0.0722  0.1521  0.9889
   85SLPC   C25 8091   7.368   4.655   3.082 -0.2952 -0.4578 -0.4754
   85SLPC   H5R 8092   7.403   4.552   3.060  1.5038 -0.2874  1.4313
   85SLPC   H5S 8093   7.412   4.717   3.001 -1.5751  1.5732  0.3338
   85SLPC   C26 8094   7.422   4.720   3.212 -0.0038 -0.2991 -0.6887
   85SLPC   H6R 8095   7.532   4.711   3.204  0.0720  0.6710 -0.6895
   85SLPC   H6S 8096   7.394   4.649   3.293 -0.2307 -0.9112 -1.2941
   85SLPC   C27 8097   7.373   4.864   3.239 -0.2507 -0.4685  0.5437
   85SLPC   H7R 8098   7.408   4.893   3.340 -1.4506  0.2305  0.7620
   85SLPC   H7S 8099   7.263   4.851   3.238 -0.7224  3.1363 -0.2864
   85SLPC   C28 8100   7.426   4.968   3.133 -0.5278  0.4173 -0.4114
   85SLPC   H8R 8101   7.420   4.931   3.029  1.5242  1.0757 -0.7897
   85SLPC   H8S 8102   7.535   4.993   3.141 -0.1830 -0.9216 -0.8306
   85SLPC   C29 8103   7.329   5.086   3.149 -0.4279 -0.0683 -0.0117
   85SLPC   H9R 8104   7.236   5.094   3.091 -1.3595 -1.1042  1.3028
   85SLPC  C210 8105   7.354   5.183   3.235  0.2186 -0.9655 -0.7452
   85SLPC  H10R 8106   7.275   5.259   3.248  1.7134  1.0966 -3.3157
   85SLPC  C211 8107   7.475   5.197   3.324 -1.0235  0.6094 -0.3425
   85SLPC  H11R 8108   7.551   5.269   3.287 -0.1627  0.1386  0.4935
   85SLPC  H11S 8109   7.529   5.100   3.328  0.2469  1.3545  1.3934
   85SLPC  C212 8110   7.443   5.224   3.471 -0.2616 -0.5518  0.6132
   85SLPC  H12R 8111   7.374   5.308   3.490  0.7960 -0.1997  3.0855
   85SLPC  C213 8112   7.506   5.166   3.575 -0.2241 -0.1613  0.8338
   85SLPC  H13R 8113   7.479   5.207   3.673 -0.6640  0.6850  0.3705
   85SLPC  C214 8114   7.620   5.067   3.566  0.3211  0.6427  0.5044
   85SLPC  H14R 8115   7.682   5.096   3.478 -2.6328  1.9545 -1.2486
   85SLPC  H14S 8116   7.590   4.964   3.536  0.7075  0.6049  0.2576
   85SLPC  C215 8117   7.709   5.070   3.682  0.1523 -0.6601  0.1732
   85SLPC  H15R 8118   7.744   5.174   3.703 -0.3513 -0.6027  0.7191
   85SLPC  H15S 8119   7.804   5.018   3.656  0.3409  0.8638 -2.4056
   85SLPC  C216 8120   7.653   5.025   3.821 -0.0739  0.0711 -0.0253
   85SLPC  H16R 8121   7.666   4.915   3.830  0.6694  0.0598 -1.1548
   85SLPC  H16S 8122   7.543   5.039   3.825  0.0297  0.5771  1.4546
   85SLPC  C217 8123   7.738   5.083   3.935  0.3930 -0.5157 -0.6438
   85SLPC  H17R 8124   7.755   5.192   3.928 -0.9199 -0.3859 -2.0425
   85SLPC  H17S 8125   7.837   5.033   3.936  0.3050 -0.6979 -0.8773
   85SLPC  C218 8126   7.682   5.058   4.071 -0.1317 -0.0231  0.4657
   85SLPC  H18R 8127   7.643   4.954   4.070 -0.0711 -0.0878  2.1722
   85SLPC  H18S 8128   7.606   5.138   4.088  0.2666  0.4485  0.0499
   85SLPC  H18T 8129   7.757   5.067   4.153 -0.7082 -1.9792  1.2328
   85SLPC   C33 8130   6.887   5.066   3.333 -0.4530 -0.7773 -0.4577
   85SLPC   H3X 8131   6.822   5.028   3.415 -3.5623 -0.1884 -2.5631
   85SLPC   H3Y 8132   6.900   5.176   3.338 -1.9970 -0.5893 -0.3591
   85SLPC   C34 8133   7.020   4.991   3.352 -0.3758  0.1835  0.2291
   85SLPC   H4X 8134   7.094   4.994   3.269  0.8150 -0.7524  1.2220
   85SLPC   H4Y 8135   6.997   4.882   3.351 -1.2409  0.3685  0.4017
   85SLPC   C35 8136   7.098   5.016   3.481 -0.4258  1.0103 -0.4071
   85SLPC   H5X 8137   7.124   5.124   3.480  3.7049  0.1243  1.9263
   85SLPC   H5Y 8138   7.197   4.966   3.486 -0.7414  0.3074 -1.0552
   85SLPC   C36 8139   7.017   4.998   3.610 -0.1742 -0.1843 -0.3020
   85SLPC   H6X 8140   6.962   4.902   3.603  0.5388 -0.5992 -0.2491
   85SLPC   H6Y 8141   6.947   5.084   3.617  1.4318  1.1146 -0.0459
   85SLPC   C37 8142   7.101   4.985   3.740 -0.7116  0.6772  0.3985
   85SLPC   H7X 8143   7.170   4.900   3.722  1.2084  2.1713  0.6224
   85SLPC   H7Y 8144   7.034   4.962   3.825 -0.0837 -3.7406 -0.1982
   85SLPC   C38 8145   7.185   5.110   3.762  0.6544  0.3077  0.0967
   85SLPC   H8X 8146   7.131   5.206   3.752 -1.7200 -0.9160  0.7940
   85SLPC   H8Y 8147   7.271   5.107   3.692  0.5329 -3.2094 -0.0086
   85SLPC   C39 8148   7.254   5.113   3.896 -0.0879  0.0407  0.2099
   85SLPC   H9X 8149   7.356   5.157   3.899 -0.2013  0.6386 -3.3746
   85SLPC   H9Y 8150   7.278   5.011   3.933 -0.5268  0.0255  0.4586
   85SLPC  C310 8151   7.187   5.197   4.008 -0.7426  0.2326  1.0387
   85SLPC  H10X 8152   7.187   5.299   3.964  0.5497  0.6230  1.9427
   85SLPC  H10Y 8153   7.261   5.200   4.091  0.0016  0.1979  0.3861
   85SLPC  C311 8154   7.046   5.163   4.051 -0.1913  0.8501 -0.1962
   85SLPC  H11X 8155   7.049   5.065   4.102 -0.6905  1.3268  0.7718
   85SLPC  H11Y 8156   6.982   5.159   3.960 -0.2425  2.1745 -0.2291
   85SLPC  C312 8157   6.996   5.271   4.147  0.7308  0.5009  0.2282
   85SLPC  H12X 8158   6.892   5.243   4.175  0.8747  0.6499  0.9233
   85SLPC  H12Y 8159   6.982   5.359   4.080 -1.1945  0.5766  0.7044
   85SLPC  C313 8160   7.080   5.329   4.266 -0.4632 -0.4722 -0.5018
   85SLPC  H13X 8161   7.184   5.357   4.241 -0.7076  1.8528  0.9411
   85SLPC  H13Y 8162   7.084   5.253   4.347  2.3092  0.6360  0.4581
   85SLPC  C314 8163   7.026   5.458   4.329 -0.2599  0.4405  0.4128
   85SLPC  H14X 8164   7.016   5.524   4.240  4.2858 -0.0659 -0.6018
   85SLPC  H14Y 8165   7.100   5.520   4.384  1.2911 -1.2062  0.2307
   85SLPC  C315 8166   6.895   5.452   4.403 -0.4289  0.2177  0.6133
   85SLPC  H15X 8167   6.837   5.361   4.376 -0.2822  0.0419  0.8907
   85SLPC  H15Y 8168   6.829   5.538   4.377  0.4451  1.0036  0.9530
   85SLPC  C316 8169   6.903   5.472   4.563  0.5382 -0.5359  0.0925
   85SLPC  H16X 8170   6.970   5.396   4.609  0.5286 -1.2958 -1.1295
   85SLPC  H16Y 8171   6.801   5.446   4.600  1.1068 -0.1294  2.0153
   85SLPC  C317 8172   6.932   5.621   4.610 -0.2026 -0.3041 -0.2352
   85SLPC  H17X 8173   6.904   5.691   4.528  0.9739  0.8725  0.3580
   85SLPC  H17Y 8174   7.040   5.624   4.634 -0.3541  0.8305  0.3345
   85SLPC  C318 8175   6.861   5.645   4.741  0.3392 -0.1935 -0.3077
   85SLPC  H18X 8176   6.903   5.586   4.825  0.8038  2.8165  1.6660
   85SLPC  H18Y 8177   6.754   5.614   4.731  1.3578 -4.2101  0.5177
   85SLPC  H18Z 8178   6.872   5.751   4.773  1.1293 -0.6630  1.0226
   86SLPC     N 8179   0.147   3.317   2.238  0.1239  0.2357  0.5538
   86SLPC   C13 8180   0.049   3.381   2.149  0.0752 -0.1062 -0.1905
   86SLPC  H13A 8181   0.014   3.477   2.184  1.0582  0.0182  0.4465
   86SLPC  H13B 8182   0.101   3.394   2.055  0.5639  1.4286  0.2802
   86SLPC  H13C 8183  -0.038   3.320   2.129 -0.4195  0.2406  0.8664
   86SLPC   C14 8184   0.261   3.413   2.260 -0.7707 -0.2200  0.1230
   86SLPC  H14A 8185   0.222   3.509   2.291 -2.5136 -1.1686  0.9448
   86SLPC  H14B 8186   0.341   3.386   2.328 -2.0290  2.2161  2.6764
   86SLPC  H14C 8187   0.310   3.422   2.165  0.8367 -4.4063  0.4523
   86SLPC   C15 8188   0.199   3.188   2.192 -0.5858  0.5251  1.0058
   86SLPC  H15A 8189   0.239   3.196   2.092 -3.4922 -0.0959 -0.2412
   86SLPC  H15B 8190   0.279   3.152   2.256 -1.4792 -0.4042  1.6097
   86SLPC  H15C 8191   0.129   3.107   2.203  0.9655 -1.1074 -0.6991
   86SLPC   C12 8192   0.077   3.299   2.369  0.2872  0.6430 -0.4818
   86SLPC  H12A 8193   0.009   3.217   2.349 -1.3167  1.0549  2.9552
   86SLPC  H12B 8194   0.016   3.387   2.382 -0.4106 -0.2070  2.3293
   86SLPC   C11 8195   0.165   3.249   2.489  0.1194  0.8319  0.9203
   86SLPC  H11A 8196   0.108   3.253   2.584 -0.4729  0.3541  0.5908
   86SLPC  H11B 8197   0.261   3.302   2.507 -0.2608  1.2849  1.6442
   86SLPC     P 8198   0.083   3.002   2.486 -0.2825  0.1742 -0.1651
   86SLPC   O13 8199  -0.013   3.022   2.373  0.3263 -0.1121  0.0132
   86SLPC   O14 8200   0.146   2.869   2.516 -0.0852 -0.3015 -0.0644
   86SLPC   O12 8201   0.206   3.111   2.469  0.2590 -0.0688 -0.1555
   86SLPC   O11 8202   0.016   3.054   2.623 -0.3762  0.1640  0.1571
   86SLPC    C1 8203  -0.095   2.989   2.677 -0.6636 -0.5419 -0.1709
   86SLPC    HA 8204  -0.104   2.879   2.659  2.1531 -0.8698  0.1377
   86SLPC    HB 8205  -0.094   2.994   2.788 -3.4839  2.5850 -0.2196
   86SLPC    C2 8206  -0.221   3.057   2.631 -0.4834 -1.2738  0.5031
   86SLPC    HS 8207  -0.213   3.085   2.523 -1.6024 -1.5987  0.3333
   86SLPC   O21 8208  -0.239   3.167   2.726  0.0861 -0.3071  0.2114
   86SLPC   C21 8209  -0.207   3.280   2.682 -0.1545  0.4808 -0.1590
   86SLPC   O22 8210  -0.181   3.309   2.564  0.6878 -0.3287  0.5631
   86SLPC   C22 8211  -0.199   3.383   2.800 -0.0084  0.0190  0.8945
   86SLPC   H2R 8212  -0.176   3.327   2.893 -0.1273 -1.5426  0.0077
   86SLPC   H2S 8213  -0.117   3.453   2.775  0.1124 -0.0630  1.0648
   86SLPC    C3 8214  -0.340   2.959   2.626 -0.2708 -0.5588  0.1423
   86SLPC    HX 8215  -0.302   2.888   2.550 -0.5690  0.4949 -0.9996
   86SLPC    HY 8216  -0.431   3.011   2.590 -0.1553  0.0421  0.6997
   86SLPC   O31 8217  -0.349   2.889   2.752 -0.0307 -0.4824  0.2391
   86SLPC   C31 8218  -0.352   2.765   2.751 -0.2040 -0.4939  0.0495
   86SLPC   O32 8219  -0.354   2.683   2.662  0.3710  0.0219 -0.0498
   86SLPC   C32 8220  -0.343   2.713   2.899  0.0476  0.5454 -0.0619
   86SLPC   H2X 8221  -0.275   2.625   2.895  1.6705  1.7636  0.2338
   86SLPC   H2Y 8222  -0.446   2.686   2.933  0.1145 -1.2391 -1.2280
   86SLPC   C23 8223  -0.324   3.477   2.814 -0.3773 -0.3512  0.5909
   86SLPC   H3R 8224  -0.341   3.529   2.717 -3.5468 -0.6281  0.9437
   86SLPC   H3S 8225  -0.302   3.556   2.889 -1.7716  0.0645  0.5835
   86SLPC   C24 8226  -0.455   3.415   2.858  0.3372  0.7559 -0.1765
   86SLPC   H4R 8227  -0.469   3.323   2.796 -1.3322  1.2527 -0.5731
   86SLPC   H4S 8228  -0.542   3.477   2.828  2.0534  2.3601 -2.0416
   86SLPC   C25 8229  -0.470   3.394   3.012 -0.4309 -0.7212  0.2957
   86SLPC   H5R 8230  -0.444   3.490   3.059 -1.9249 -0.2192  0.1429
   86SLPC   H5S 8231  -0.407   3.313   3.054  1.2798  0.8718  0.8273
   86SLPC   C26 8232  -0.618   3.375   3.045 -0.1518  0.1993 -0.3623
   86SLPC   H6R 8233  -0.659   3.285   2.994 -4.3654  1.1626  1.1440
   86SLPC   H6S 8234  -0.673   3.465   3.011 -1.6321 -0.3611  0.5107
   86SLPC   C27 8235  -0.642   3.360   3.201  0.3040 -0.2140 -0.0156
   86SLPC   H7R 8236  -0.586   3.267   3.227  2.3220  1.3060  1.2796
   86SLPC   H7S 8237  -0.749   3.341   3.227  0.4725 -2.5140 -0.8997
   86SLPC   C28 8238  -0.583   3.480   3.286  0.3019 -0.0133  0.3259
   86SLPC   H8R 8239  -0.475   3.486   3.258  0.2905 -0.8393  0.0926
   86SLPC   H8S 8240  -0.583   3.449   3.393  4.3998 -2.9135 -0.3540
   86SLPC   C29 8241  -0.640   3.615   3.253 -0.0797 -0.4744  0.1576
   86SLPC   H9R 8242  -0.605   3.655   3.157 -2.1134  0.5282 -0.1949
   86SLPC  C210 8243  -0.738   3.678   3.326 -0.2208  0.3476  0.4689
   86SLPC  H10R 8244  -0.771   3.777   3.290 -2.2440  0.2739  2.0737
   86SLPC  C211 8245  -0.805   3.624   3.447 -0.2694  0.4477  0.4083
   86SLPC  H11R 8246  -0.748   3.650   3.539 -1.5811  1.2848  1.0005
   86SLPC  H11S 8247  -0.820   3.514   3.441  1.4134  0.2722 -1.0791
   86SLPC  C212 8248  -0.950   3.673   3.464 -0.6957  0.9498  0.1034
   86SLPC  H12R 8249  -1.024   3.609   3.413  0.0095  0.9362 -0.9119
   86SLPC  C213 8250  -0.986   3.782   3.541 -0.5385  0.8456  0.3521
   86SLPC  H13R 8251  -1.091   3.814   3.541 -0.4371  1.2690 -1.7714
   86SLPC  C214 8252  -0.899   3.873   3.614 -0.3841  0.5445  0.1978
   86SLPC  H14R 8253  -0.946   3.973   3.599 -0.9323 -0.0751 -2.4082
   86SLPC  H14S 8254  -0.796   3.875   3.573 -0.2468 -0.5396  0.4733
   86SLPC  C215 8255  -0.909   3.832   3.760  0.2692  0.7155 -0.0529
   86SLPC  H15R 8256  -0.888   3.724   3.779  0.8331  0.9250  0.5295
   86SLPC  H15S 8257  -1.005   3.850   3.813 -0.3523  0.2958 -1.0058
   86SLPC  C216 8258  -0.802   3.917   3.839 -0.2466 -1.6116  0.5085
   86SLPC  H16R 8259  -0.837   4.021   3.856 -0.7363 -1.7241  0.2047
   86SLPC  H16S 8260  -0.707   3.926   3.781 -1.0979 -0.4273 -0.7294
   86SLPC  C217 8261  -0.793   3.863   3.978  0.1362  0.1563  0.7532
   86SLPC  H17R 8262  -0.767   3.756   3.963 -0.3389 -0.0447  1.3423
   86SLPC  H17S 8263  -0.891   3.873   4.029 -0.4100 -0.1142 -0.2380
   86SLPC  C218 8264  -0.685   3.927   4.070  0.2218  0.0786 -0.5040
   86SLPC  H18R 8265  -0.713   4.023   4.118  2.4485  0.4672  0.0762
   86SLPC  H18S 8266  -0.592   3.961   4.020  0.5441 -1.4880 -1.0082
   86SLPC  H18T 8267  -0.674   3.872   4.166 -2.4050  0.1891 -0.0811
   86SLPC   C33 8268  -0.297   2.822   3.001 -0.5625 -0.4643 -0.0633
   86SLPC   H3X 8269  -0.219   2.887   2.954  0.3195 -0.4595  1.3609
   86SLPC   H3Y 8270  -0.245   2.775   3.087 -0.1354  1.5411  0.8093
   86SLPC   C34 8271  -0.408   2.924   3.039 -0.4185  0.6224 -0.7138
   86SLPC   H4X 8272  -0.487   2.875   3.101 -1.3577  1.0900 -1.5234
   86SLPC   H4Y 8273  -0.443   2.969   2.943  0.7625  3.6302  0.1912
   86SLPC   C35 8274  -0.358   3.046   3.118  0.2573 -0.5081 -0.4124
   86SLPC   H5X 8275  -0.440   3.120   3.127 -0.4948 -0.8785 -3.4435
   86SLPC   H5Y 8276  -0.279   3.108   3.070  0.4074  0.2301  0.7684
   86SLPC   C36 8277  -0.308   3.020   3.260 -0.6485  0.1333 -0.0890
   86SLPC   H6X 8278  -0.203   2.983   3.259 -0.1915  1.3569 -3.5144
   86SLPC   H6Y 8279  -0.371   2.949   3.318  0.1455  0.2027  0.8817
   86SLPC   C37 8280  -0.293   3.151   3.341  0.4842 -0.0789  0.5862
   86SLPC   H7X 8281  -0.394   3.192   3.364  0.6112  1.2797 -1.1505
   86SLPC   H7Y 8282  -0.232   3.227   3.288 -2.7463  2.1283 -0.1309
   86SLPC   C38 8283  -0.235   3.133   3.481  0.0637 -0.4164 -0.7012
   86SLPC   H8X 8284  -0.130   3.098   3.479  0.0914 -0.3438 -0.5309
   86SLPC   H8Y 8285  -0.290   3.048   3.527 -1.6052  2.4146  2.7694
   86SLPC   C39 8286  -0.256   3.261   3.573  0.8188  0.1384 -0.4235
   86SLPC   H9X 8287  -0.365   3.283   3.571  0.4477 -1.6232 -3.5883
   86SLPC   H9Y 8288  -0.201   3.346   3.525  3.5320 -1.7294 -0.7550
   86SLPC  C310 8289  -0.213   3.234   3.716 -0.3096 -0.2619  0.3022
   86SLPC  H10X 8290  -0.231   3.326   3.777 -1.7254  0.6824 -1.4926
   86SLPC  H10Y 8291  -0.105   3.208   3.718 -0.2977 -0.1697  2.7406
   86SLPC  C311 8292  -0.283   3.117   3.781  0.3333  0.4191  0.0429
   86SLPC  H11X 8293  -0.221   3.025   3.764  1.0256  0.8837  0.0227
   86SLPC  H11Y 8294  -0.388   3.109   3.747  0.0065  0.1417  1.1013
   86SLPC  C312 8295  -0.295   3.139   3.934 -0.0303  0.0991  0.0408
   86SLPC  H12X 8296  -0.363   3.058   3.971 -1.9929  0.7314 -2.0447
   86SLPC  H12Y 8297  -0.345   3.235   3.956  2.4497  1.2797  0.6530
   86SLPC  C313 8298  -0.173   3.156   4.020 -0.0807 -1.0219 -0.5556
   86SLPC  H13X 8299  -0.121   3.254   4.018  0.9338 -1.4386  2.3034
   86SLPC  H13Y 8300  -0.093   3.081   3.999 -0.6917 -1.1562 -2.4863
   86SLPC  C314 8301  -0.201   3.151   4.173 -0.0578 -0.2308  0.1049
   86SLPC  H14X 8302  -0.262   3.062   4.199  0.2781 -0.7939 -0.9737
   86SLPC  H14Y 8303  -0.258   3.242   4.201 -1.1271 -0.4054 -1.3762
   86SLPC  C315 8304  -0.076   3.145   4.264 -1.5728  0.3598  0.5339
   86SLPC  H15X 8305  -0.020   3.051   4.243 -2.4521 -0.8230  3.1945
   86SLPC  H15Y 8306  -0.115   3.137   4.367 -0.6046 -0.6278  0.8330
   86SLPC  C316 8307   0.031   3.255   4.238 -0.2181  0.3795  0.2444
   86SLPC  H16X 8308  -0.020   3.352   4.219 -0.7941  0.4817  2.2195
   86SLPC  H16Y 8309   0.101   3.233   4.154  1.4717  1.7021  1.2668
   86SLPC  C317 8310   0.127   3.275   4.352  0.1132 -0.6229 -0.1720
   86SLPC  H17X 8311   0.190   3.183   4.358  1.6336  0.4375  0.3266
   86SLPC  H17Y 8312   0.069   3.283   4.447 -0.4445 -3.1179 -0.2616
   86SLPC  C318 8313   0.192   3.413   4.331 -0.0239  0.4380  0.4789
   86SLPC  H18X 8314   0.260   3.416   4.243 -1.0591 -0.9541 -0.3826
   86SLPC  H18Y 8315   0.244   3.444   4.424  0.6350 -2.5608  1.1646
   86SLPC  H18Z 8316   0.106   3.481   4.313 -1.6089 -1.5555  0.4001
   87SLPC     N 8317   6.790   1.699   2.579  0.0207  0.0128 -0.1600
   87SLPC   C13 8318   6.797   1.718   2.426 -0.2978  0.4429  0.5606
   87SLPC  H13A 8319   6.871   1.657   2.377  0.9593  0.7257  2.0590
   87SLPC  H13B 8320   6.700   1.702   2.383  0.8306 -0.5945 -1.6768
   87SLPC  H13C 8321   6.815   1.822   2.407  0.7871  0.0713 -0.4985
   87SLPC   C14 8322   6.682   1.795   2.639  0.5027  0.4260  1.1753
   87SLPC  H14A 8323   6.586   1.769   2.596  0.2281 -0.5654  2.3544
   87SLPC  H14B 8324   6.659   1.775   2.743 -2.1859  2.3148  1.0023
   87SLPC  H14C 8325   6.712   1.898   2.622  0.3617  0.6789  2.3833
   87SLPC   C15 8326   6.920   1.734   2.637  0.0641 -0.2063 -0.2693
   87SLPC  H15A 8327   6.991   1.674   2.582  1.2429  1.4678 -0.6034
   87SLPC  H15B 8328   6.950   1.837   2.620  2.0358 -0.1691  2.8557
   87SLPC  H15C 8329   6.931   1.724   2.744  0.5465  3.2336  0.0688
   87SLPC   C12 8330   6.759   1.560   2.615 -0.0825 -0.3921 -0.0946
   87SLPC  H12A 8331   6.751   1.551   2.722  0.8228 -0.3726 -0.0264
   87SLPC  H12B 8332   6.839   1.499   2.577  0.3140  1.4196 -2.3578
   87SLPC   C11 8333   6.616   1.501   2.574 -0.4246  0.2834  0.0610
   87SLPC  H11A 8334   6.608   1.390   2.578 -1.9397  0.3946  0.6897
   87SLPC  H11B 8335   6.608   1.518   2.465  0.5898  0.7666  0.0569
   87SLPC     P 8336   6.365   1.567   2.589  0.0514 -0.0690 -0.1610
   87SLPC   O13 8337   6.359   1.706   2.537 -0.3253  0.0388 -0.5538
   87SLPC   O14 8338   6.358   1.459   2.487 -0.2382 -0.3095 -0.0479
   87SLPC   O12 8339   6.506   1.555   2.655  0.0950 -0.4862 -0.2916
   87SLPC   O11 8340   6.271   1.543   2.712 -0.1321 -0.9118 -0.5893
   87SLPC    C1 8341   6.293   1.431   2.801 -0.3642  1.0710 -0.8235
   87SLPC    HA 8342   6.359   1.358   2.750  0.9128  0.5102  1.5654
   87SLPC    HB 8343   6.349   1.466   2.890  0.8990  0.3929 -1.3314
   87SLPC    C2 8344   6.158   1.362   2.851 -0.7254 -0.6750 -0.0647
   87SLPC    HS 8345   6.093   1.446   2.883 -1.0586 -1.3516  1.0440
   87SLPC   O21 8346   6.196   1.274   2.958 -0.8027  0.1002 -0.5256
   87SLPC   C21 8347   6.094   1.221   3.020  0.1353  0.1029  0.1326
   87SLPC   O22 8348   5.975   1.232   2.993 -0.4377 -0.1204 -0.6533
   87SLPC   C22 8349   6.152   1.109   3.114  0.3452 -0.1077  0.3731
   87SLPC   H2R 8350   6.074   1.075   3.186 -3.4424  2.2788 -2.4553
   87SLPC   H2S 8351   6.182   1.027   3.044 -1.2264 -0.7734  0.4596
   87SLPC    C3 8352   6.094   1.278   2.731 -0.2615  0.6664 -0.0066
   87SLPC    HX 8353   6.055   1.350   2.656 -0.6268  0.5203  0.0399
   87SLPC    HY 8354   6.002   1.222   2.759  1.2012 -1.8946 -0.1921
   87SLPC   O31 8355   6.192   1.189   2.670  0.2614 -0.5030 -0.2086
   87SLPC   C31 8356   6.180   1.058   2.668 -0.3369 -0.3649 -0.1165
   87SLPC   O32 8357   6.086   0.998   2.714  0.7512  0.1176 -0.3513
   87SLPC   C32 8358   6.311   0.993   2.609  0.4533 -0.4708  0.7739
   87SLPC   H2X 8359   6.298   0.994   2.499  3.0561 -0.8308  0.4384
   87SLPC   H2Y 8360   6.312   0.884   2.630  1.8274 -0.8004 -0.9389
   87SLPC   C23 8361   6.275   1.160   3.186  0.8010 -0.6816 -0.0426
   87SLPC   H3R 8362   6.245   1.246   3.251  1.1202 -0.0779 -0.6848
   87SLPC   H3S 8363   6.352   1.212   3.125 -2.4552  1.4857 -2.4415
   87SLPC   C24 8364   6.356   1.052   3.268  0.3738  0.3671  0.5223
   87SLPC   H4R 8365   6.402   0.989   3.189  1.7055 -0.7370  2.1358
   87SLPC   H4S 8366   6.285   0.995   3.331 -0.3636 -0.2044 -0.8048
   87SLPC   C25 8367   6.473   1.118   3.351  0.7775  0.2588 -0.0411
   87SLPC   H5R 8368   6.421   1.182   3.425 -2.1926 -0.8820 -1.0572
   87SLPC   H5S 8369   6.531   1.186   3.285 -1.8488  2.3261 -0.2976
   87SLPC   C26 8370   6.567   1.019   3.421 -0.4258 -0.3764  0.3435
   87SLPC   H6R 8371   6.551   0.921   3.372 -0.1660  0.6248 -1.7781
   87SLPC   H6S 8372   6.542   1.003   3.528 -2.2951  0.5210  0.0507
   87SLPC   C27 8373   6.718   1.055   3.420 -0.0415  0.0407 -0.9269
   87SLPC   H7R 8374   6.753   1.073   3.316  2.0752 -0.4101 -0.3078
   87SLPC   H7S 8375   6.777   0.977   3.472  0.8395  1.2840 -0.0311
   87SLPC   C28 8376   6.744   1.191   3.499  0.3088 -0.0287  0.5523
   87SLPC   H8R 8377   6.681   1.175   3.589  0.6167 -0.7058  0.6549
   87SLPC   H8S 8378   6.698   1.268   3.434  1.2591 -0.6430 -0.8744
   87SLPC   C29 8379   6.880   1.214   3.548  0.3531 -0.7851 -0.3328
   87SLPC   H9R 8380   6.962   1.200   3.476 -1.9463 -1.1886 -2.9762
   87SLPC  C210 8381   6.911   1.258   3.670 -0.3042 -0.5882  0.4185
   87SLPC  H10R 8382   7.017   1.285   3.686 -0.2640  0.5113 -1.4624
   87SLPC  C211 8383   6.820   1.290   3.786 -0.3597  0.3915 -0.2243
   87SLPC  H11R 8384   6.731   1.341   3.744 -1.4557 -4.0432 -3.6950
   87SLPC  H11S 8385   6.860   1.361   3.861 -1.2068  0.1593  0.4478
   87SLPC  C212 8386   6.792   1.165   3.871  0.1535 -0.4789 -0.5812
   87SLPC  H12R 8387   6.698   1.114   3.846 -0.1309 -1.3419  2.1482
   87SLPC  C213 8388   6.875   1.104   3.957 -0.0894  0.2271 -0.3714
   87SLPC  H13R 8389   6.834   1.031   4.028  2.3466  1.5783  2.5140
   87SLPC  C214 8390   7.017   1.151   3.987  0.1456 -0.1503  0.3222
   87SLPC  H14R 8391   7.030   1.259   3.964 -2.9920  0.5256  1.3831
   87SLPC  H14S 8392   7.084   1.107   3.911 -1.4712 -0.7337 -0.8043
   87SLPC  C215 8393   7.065   1.124   4.132  0.2822  0.5260  0.0522
   87SLPC  H15R 8394   6.987   1.165   4.199  0.2208  0.4820  0.0069
   87SLPC  H15S 8395   7.158   1.178   4.161  0.3170  0.9484 -0.8333
   87SLPC  C216 8396   7.073   0.979   4.172 -0.1676  0.0890 -0.4167
   87SLPC  H16R 8397   6.978   0.927   4.147  1.4530 -3.0053 -0.3830
   87SLPC  H16S 8398   7.095   0.974   4.281 -0.3214 -0.5087 -0.4082
   87SLPC  C217 8399   7.185   0.909   4.096  0.0694 -0.0911  0.1522
   87SLPC  H17R 8400   7.281   0.965   4.089  1.1250 -1.8337  0.4415
   87SLPC  H17S 8401   7.158   0.885   3.990  0.2250  1.6219 -0.2908
   87SLPC  C218 8402   7.206   0.774   4.161  0.1607 -0.2850  0.4380
   87SLPC  H18R 8403   7.225   0.780   4.271 -0.4684  0.1208  0.5255
   87SLPC  H18S 8404   7.289   0.720   4.110 -0.7011 -0.5687 -0.6756
   87SLPC  H18T 8405   7.114   0.715   4.140  1.1360 -2.0504  1.0152
   87SLPC   C33 8406   6.440   1.070   2.655 -0.2914 -0.0885  0.5916
   87SLPC   H3X 8407   6.440   1.173   2.613 -2.3722  0.4064  1.7077
   87SLPC   H3Y 8408   6.524   1.016   2.608  1.7635  3.5014 -0.0647
   87SLPC   C34 8409   6.468   1.083   2.806 -0.3115  0.0748  0.1341
   87SLPC   H4X 8410   6.490   0.978   2.838  2.5651  0.1677 -1.3208
   87SLPC   H4Y 8411   6.390   1.139   2.862  0.4267 -0.3790  1.6547
   87SLPC   C35 8412   6.593   1.169   2.821  0.1099 -0.6575 -0.2677
   87SLPC   H5X 8413   6.577   1.259   2.759  0.5705 -0.1825  0.2911
   87SLPC   H5Y 8414   6.680   1.120   2.773  2.8246  2.9811  0.7328
   87SLPC   C36 8415   6.640   1.197   2.964 -1.3212 -0.0923  0.1613
   87SLPC   H6X 8416   6.670   1.098   3.003  1.9409 -0.0017 -1.9059
   87SLPC   H6Y 8417   6.554   1.245   3.015 -0.8035  0.7621  0.2359
   87SLPC   C37 8418   6.772   1.284   2.960 -0.0285  0.1757  0.1486
   87SLPC   H7X 8419   6.788   1.302   2.852 -0.6782  1.0608  0.1942
   87SLPC   H7Y 8420   6.859   1.225   2.996  0.9079  0.9103 -0.9003
   87SLPC   C38 8421   6.765   1.432   3.018 -0.2184 -0.1109  0.2099
   87SLPC   H8X 8422   6.864   1.481   3.006 -0.0973 -0.8582 -2.0165
   87SLPC   H8Y 8423   6.756   1.420   3.128 -0.3641 -1.0464  0.1024
   87SLPC   C39 8424   6.648   1.515   2.967  0.3782 -0.3919 -0.3436
   87SLPC   H9X 8425   6.554   1.461   2.988 -0.1265  0.1042 -1.3060
   87SLPC   H9Y 8426   6.652   1.524   2.856  1.5204 -3.3644 -0.5965
   87SLPC  C310 8427   6.641   1.656   3.035  1.0699  0.0319 -0.5354
   87SLPC  H10X 8428   6.701   1.718   2.966 -2.5705  0.1937 -3.7034
   87SLPC  H10Y 8429   6.687   1.651   3.136  0.1593  1.3118 -0.0439
   87SLPC  C311 8430   6.501   1.724   3.047  0.2750 -0.0677  0.1472
   87SLPC  H11X 8431   6.449   1.725   2.948  0.8657 -4.5534 -0.3140
   87SLPC  H11Y 8432   6.521   1.826   3.085 -1.9327  0.3946  0.1246
   87SLPC  C312 8433   6.408   1.647   3.149  0.0765  0.0873  0.1968
   87SLPC  H12X 8434   6.462   1.643   3.247  1.6856 -1.1213 -0.7079
   87SLPC  H12Y 8435   6.391   1.541   3.119 -1.3814 -0.6333  3.3379
   87SLPC  C313 8436   6.266   1.707   3.150 -0.2275 -0.3523 -0.0240
   87SLPC  H13X 8437   6.237   1.724   3.044 -0.0972  1.2132  0.1798
   87SLPC  H13Y 8438   6.268   1.805   3.202 -1.8705  0.8332 -2.1350
   87SLPC  C314 8439   6.174   1.619   3.232 -0.2324 -0.6384  0.1162
   87SLPC  H14X 8440   6.156   1.525   3.177  1.9298 -0.8139 -0.3539
   87SLPC  H14Y 8441   6.073   1.664   3.244 -0.3702 -0.1597 -2.5647
   87SLPC  C315 8442   6.240   1.594   3.370  0.2721  0.2762  0.0343
   87SLPC  H15X 8443   6.281   1.694   3.396  0.5349 -0.2211  1.5916
   87SLPC  H15Y 8444   6.328   1.528   3.384  0.9456  1.5742  2.0822
   87SLPC  C316 8445   6.136   1.565   3.475 -0.7494 -0.3014  0.4505
   87SLPC  H16X 8446   6.039   1.604   3.438 -0.3680  1.1854  0.9868
   87SLPC  H16Y 8447   6.154   1.623   3.568 -0.2620  0.9802 -0.4315
   87SLPC  C317 8448   6.121   1.415   3.497  0.1713 -0.1947 -0.3229
   87SLPC  H17X 8449   6.223   1.376   3.518  1.1179  1.6490 -1.4079
   87SLPC  H17Y 8450   6.079   1.381   3.400  0.6698 -0.3597 -0.4817
   87SLPC  C318 8451   6.011   1.377   3.597 -0.3801 -0.4301  0.1762
   87SLPC  H18X 8452   5.909   1.396   3.555 -0.1794 -0.3365 -0.2705
   87SLPC  H18Y 8453   6.039   1.423   3.694 -0.4395 -1.4603  0.6952
   87SLPC  H18Z 8454   6.015   1.270   3.627 -1.2871 -0.9370 -1.4596
   88SLPC     N 8455   0.240   7.115   2.157 -0.3601 -0.0973  0.0873
   88SLPC   C13 8456   0.207   6.977   2.216 -0.0479 -0.2674  0.5456
   88SLPC  H13A 8457   0.100   6.966   2.213  0.0087 -0.6346 -0.1290
   88SLPC  H13B 8458   0.248   6.906   2.146 -1.2228 -0.0550 -0.3743
   88SLPC  H13C 8459   0.256   6.970   2.313  0.3763  1.8254  0.5195
   88SLPC   C14 8460   0.191   7.122   2.008 -0.4055  0.5832 -0.0136
   88SLPC  H14A 8461   0.223   7.217   1.969 -0.9228  0.4800 -0.6942
   88SLPC  H14B 8462   0.245   7.052   1.946 -1.9539 -0.8975  0.2631
   88SLPC  H14C 8463   0.085   7.102   2.009 -0.5071  0.2798  6.1724
   88SLPC   C15 8464   0.389   7.131   2.150 -0.3178 -0.5124 -0.3275
   88SLPC  H15A 8465   0.430   7.056   2.084 -1.2533 -1.1967 -0.1415
   88SLPC  H15B 8466   0.413   7.227   2.107  1.9839 -1.2092 -0.6544
   88SLPC  H15C 8467   0.425   7.112   2.250  0.7244 -2.4104 -1.0331
   88SLPC   C12 8468   0.175   7.227   2.240 -0.0842 -0.5762 -0.3271
   88SLPC  H12A 8469   0.067   7.227   2.230 -0.2855  0.6809  1.7173
   88SLPC  H12B 8470   0.206   7.323   2.202  0.9232  0.6821  3.4304
   88SLPC   C11 8471   0.199   7.242   2.385  0.1216  0.4807 -0.4392
   88SLPC  H11A 8472   0.166   7.147   2.432  1.4733 -0.5412 -1.4763
   88SLPC  H11B 8473   0.144   7.332   2.418 -0.8196 -0.5043  0.7323
   88SLPC     P 8474   0.404   7.397   2.465  0.0675 -0.1017  0.2109
   88SLPC   O13 8475   0.542   7.378   2.515  0.4352 -0.2896 -0.1575
   88SLPC   O14 8476   0.360   7.509   2.377 -1.2497  0.0681  0.2884
   88SLPC   O12 8477   0.339   7.268   2.404 -0.0331 -0.1873  0.0431
   88SLPC   O11 8478   0.314   7.413   2.585  0.6849 -0.1195 -0.0104
   88SLPC    C1 8479   0.302   7.529   2.666 -0.0750  0.4099  0.0274
   88SLPC    HA 8480   0.371   7.605   2.623 -0.4919 -0.7953 -2.9021
   88SLPC    HB 8481   0.203   7.577   2.653  0.7631  2.2217  0.1479
   88SLPC    C2 8482   0.333   7.493   2.821  0.5933  0.0055  0.1858
   88SLPC    HS 8483   0.331   7.592   2.871  0.0787  0.5312 -0.8374
   88SLPC   O21 8484   0.454   7.419   2.825 -0.2306 -0.0544 -0.0399
   88SLPC   C21 8485   0.565   7.491   2.817 -0.5053 -0.4328  0.5075
   88SLPC   O22 8486   0.574   7.613   2.800  0.4057 -0.7503 -0.8821
   88SLPC   C22 8487   0.679   7.398   2.866 -0.0306 -0.1082  0.0946
   88SLPC   H2R 8488   0.641   7.296   2.888 -0.2397 -0.6332 -2.4930
   88SLPC   H2S 8489   0.747   7.394   2.778  1.5928 -3.2208  1.4035
   88SLPC    C3 8490   0.213   7.419   2.873  0.0186  0.1303  0.5913
   88SLPC    HX 8491   0.185   7.344   2.797  1.0051  0.3583 -0.0154
   88SLPC    HY 8492   0.130   7.489   2.895 -0.1322  0.4163 -0.8553
   88SLPC   O31 8493   0.247   7.338   2.989  0.0374 -0.4830  0.0273
   88SLPC   C31 8494   0.244   7.407   3.105 -0.0430 -0.6819 -0.2402
   88SLPC   O32 8495   0.230   7.529   3.108  0.9795 -0.0143  0.0248
   88SLPC   C32 8496   0.279   7.319   3.229 -0.2093 -0.0639 -0.1925
   88SLPC   H2X 8497   0.382   7.279   3.222 -0.3249 -0.5869  1.0329
   88SLPC   H2Y 8498   0.202   7.239   3.232 -0.9369  0.6208 -0.3353
   88SLPC   C23 8499   0.749   7.456   2.988 -0.0583 -0.1181  0.5693
   88SLPC   H3R 8500   0.763   7.566   2.977  0.1262  0.3522  4.7002
   88SLPC   H3S 8501   0.850   7.412   3.002 -0.6309 -0.7616  2.9273
   88SLPC   C24 8502   0.659   7.432   3.114 -0.7396  0.1034  0.3141
   88SLPC   H4R 8503   0.653   7.322   3.117 -0.7805  0.1290  1.2592
   88SLPC   H4S 8504   0.557   7.469   3.091 -1.2446 -0.9310  0.8601
   88SLPC   C25 8505   0.713   7.490   3.243  0.1009  0.1293  0.3032
   88SLPC   H5R 8506   0.632   7.479   3.319 -0.9393  0.2366 -0.7790
   88SLPC   H5S 8507   0.724   7.601   3.238 -0.4312  0.1229 -1.3482
   88SLPC   C26 8508   0.844   7.429   3.285  0.0414  0.7417  0.3420
   88SLPC   H6R 8509   0.915   7.459   3.205  0.1073 -2.0177 -0.7107
   88SLPC   H6S 8510   0.830   7.319   3.277  0.9521  0.7345 -1.2042
   88SLPC   C27 8511   0.891   7.458   3.427 -0.5173 -0.8029 -0.1141
   88SLPC   H7R 8512   0.899   7.569   3.432 -1.6049 -0.8048  2.3930
   88SLPC   H7S 8513   0.989   7.411   3.450 -1.2503 -0.5710  3.9626
   88SLPC   C28 8514   0.799   7.413   3.539 -0.5079 -0.2277  0.4639
   88SLPC   H8R 8515   0.769   7.307   3.528 -2.0693  0.3085 -0.4934
   88SLPC   H8S 8516   0.707   7.474   3.527  0.4710  1.0653 -0.6745
   88SLPC   C29 8517   0.857   7.446   3.675  0.0246 -0.7194  0.0248
   88SLPC   H9R 8518   0.908   7.543   3.668  0.2489 -0.7521  1.1278
   88SLPC  C210 8519   0.851   7.367   3.789 -0.0661  0.3602 -0.6904
   88SLPC  H10R 8520   0.893   7.392   3.887 -1.3315  0.3385 -0.1239
   88SLPC  C211 8521   0.790   7.231   3.785 -0.1456 -0.4613  0.9569
   88SLPC  H11R 8522   0.811   7.178   3.689 -0.6793 -0.7519  0.9987
   88SLPC  H11S 8523   0.679   7.237   3.790 -0.1058  2.3613 -0.5003
   88SLPC  C212 8524   0.841   7.153   3.898  0.2744  0.0916 -0.3527
   88SLPC  H12R 8525   0.925   7.092   3.861  1.4940  0.4690  1.7455
   88SLPC  C213 8526   0.811   7.160   4.031 -0.2001  0.4594  0.3878
   88SLPC  H13R 8527   0.859   7.088   4.099  0.7774  1.2843  0.5791
   88SLPC  C214 8528   0.709   7.252   4.082  0.3999  0.6698 -0.0343
   88SLPC  H14R 8529   0.630   7.268   4.005  1.8342  1.3074 -1.4239
   88SLPC  H14S 8530   0.761   7.350   4.098  3.3849 -0.3267 -2.9622
   88SLPC  C215 8531   0.664   7.190   4.216  0.3986  0.0970  0.2693
   88SLPC  H15R 8532   0.592   7.261   4.263  0.8998  0.4513  0.4974
   88SLPC  H15S 8533   0.756   7.181   4.276  1.2374 -1.5891 -1.1880
   88SLPC  C216 8534   0.588   7.054   4.210  0.0961 -0.4947 -0.1806
   88SLPC  H16R 8535   0.579   7.018   4.315  0.7046  1.3806  0.5360
   88SLPC  H16S 8536   0.647   6.972   4.163  1.9107 -0.3044  1.6933
   88SLPC  C217 8537   0.449   7.044   4.140 -0.5568 -0.5604  0.2638
   88SLPC  H17R 8538   0.467   7.088   4.039 -1.0990 -0.9573 -0.0055
   88SLPC  H17S 8539   0.370   7.098   4.196  0.5168 -0.1522  1.4096
   88SLPC  C218 8540   0.404   6.899   4.122 -0.4082  0.3814 -0.0374
   88SLPC  H18R 8541   0.476   6.842   4.060  0.6959  1.0324  0.6238
   88SLPC  H18S 8542   0.300   6.894   4.082 -0.9560 -1.4034  1.5025
   88SLPC  H18T 8543   0.411   6.863   4.227 -0.1173  0.7440  0.0671
   88SLPC   C33 8544   0.286   7.404   3.353 -0.0397 -0.1163 -0.8293
   88SLPC   H3X 8545   0.196   7.469   3.365  0.5477  0.4438  0.6042
   88SLPC   H3Y 8546   0.360   7.486   3.348  0.3052 -0.4267 -0.7663
   88SLPC   C34 8547   0.311   7.319   3.477  0.5856 -0.2168  0.0950
   88SLPC   H4X 8548   0.404   7.259   3.464  0.2446 -1.1798  1.9092
   88SLPC   H4Y 8549   0.225   7.255   3.507  0.3839 -0.6138 -1.2746
   88SLPC   C35 8550   0.333   7.419   3.592 -0.4463  0.3522 -0.1525
   88SLPC   H5X 8551   0.246   7.488   3.595 -0.6135  0.1171  0.5111
   88SLPC   H5Y 8552   0.421   7.482   3.569 -0.7277  0.8689  0.1900
   88SLPC   C36 8553   0.355   7.354   3.725  0.0115  0.2652  0.0698
   88SLPC   H6X 8554   0.444   7.289   3.705 -0.0943 -0.1380  0.8721
   88SLPC   H6Y 8555   0.271   7.286   3.748  0.0264 -0.1868 -1.1558
   88SLPC   C37 8556   0.380   7.446   3.850  0.7045 -0.0245  0.2787
   88SLPC   H7X 8557   0.415   7.378   3.931 -1.2011  1.7981  2.6988
   88SLPC   H7Y 8558   0.287   7.498   3.879  1.9377  1.6724  1.2569
   88SLPC   C38 8559   0.499   7.540   3.828 -0.3209  0.3000 -0.5167
   88SLPC   H8X 8560   0.471   7.618   3.754 -1.1151 -0.7437 -1.3527
   88SLPC   H8Y 8561   0.577   7.477   3.780 -0.9334 -1.9529  1.3354
   88SLPC   C39 8562   0.565   7.612   3.949 -0.2331 -0.0677  0.2591
   88SLPC   H9X 8563   0.633   7.688   3.906  1.3000 -0.8050  1.3542
   88SLPC   H9Y 8564   0.636   7.551   4.009 -1.5790 -3.1489 -1.1547
   88SLPC  C310 8565   0.468   7.679   4.050 -0.0317 -0.0344 -0.0004
   88SLPC  H10X 8566   0.375   7.720   4.004  0.3515  2.9871  1.7478
   88SLPC  H10Y 8567   0.513   7.772   4.092  0.0325 -0.5193  1.0143
   88SLPC  C311 8568   0.444   7.582   4.167  0.2298  0.8232  0.2733
   88SLPC  H11X 8569   0.537   7.558   4.222  1.1129 -1.4625 -2.0849
   88SLPC  H11Y 8570   0.404   7.488   4.123  0.7842  1.1468 -0.9415
   88SLPC  C312 8571   0.348   7.652   4.271 -0.2247  0.8667  0.0960
   88SLPC  H12X 8572   0.400   7.737   4.322  0.4848 -1.0944  2.7879
   88SLPC  H12Y 8573   0.349   7.569   4.345 -1.5875  0.2160 -0.6138
   88SLPC  C313 8574   0.211   7.693   4.224 -0.0383  0.7230 -0.4839
   88SLPC  H13X 8575   0.158   7.604   4.185  1.8936  0.1742 -1.9100
   88SLPC  H13Y 8576   0.220   7.775   4.149 -0.3187  1.1062 -0.0976
   88SLPC  C314 8577   0.119   7.739   4.338  0.1593  0.4252  0.0504
   88SLPC  H14X 8578   0.172   7.811   4.404  0.7793 -0.0991  0.1291
   88SLPC  H14Y 8579   0.101   7.660   4.414 -0.6544  1.9064  1.4202
   88SLPC  C315 8580  -0.018   7.792   4.288 -0.3622  0.4506  0.3613
   88SLPC  H15X 8581  -0.070   7.724   4.216  0.1426 -0.7223  1.0990
   88SLPC  H15Y 8582   0.000   7.883   4.226 -0.4559  1.7375  2.2011
   88SLPC  C316 8583  -0.114   7.828   4.398 -0.1677  0.0392  0.0795
   88SLPC  H16X 8584  -0.209   7.874   4.362 -1.1362 -2.2157 -0.3173
   88SLPC  H16Y 8585  -0.066   7.884   4.481  0.3040 -0.8356  0.4043
   88SLPC  C317 8586  -0.172   7.705   4.466 -0.4480 -0.3689  0.1956
   88SLPC  H17X 8587  -0.213   7.740   4.563  2.1792 -2.1245  1.9916
   88SLPC  H17Y 8588  -0.089   7.636   4.492  0.0996  1.3953  3.4717
   88SLPC  C318 8589  -0.283   7.625   4.396  0.8595 -0.7420  0.6947
   88SLPC  H18X 8590  -0.365   7.696   4.374  1.9323  0.3484  0.1836
   88SLPC  H18Y 8591  -0.319   7.540   4.457 -0.6440 -0.0567  0.7837
   88SLPC  H18Z 8592  -0.249   7.582   4.299  1.4717  1.8869 -0.2998
   89SAPE     N 8593   4.516   2.502   6.378 -0.4079 -0.0802 -0.1924
   89SAPE   HN1 8594   4.520   2.539   6.475 -0.5588  0.2092 -0.2980
   89SAPE   HN2 8595   4.602   2.444   6.370 -2.4605 -3.2917 -0.1002
   89SAPE   HN3 8596   4.524   2.580   6.310 -0.2796 -0.2796 -0.4065
   89SAPE   C12 8597   4.403   2.401   6.350 -0.7451 -0.5170  0.1632
   89SAPE  H12A 8598   4.430   2.316   6.415  0.6371 -1.2766 -1.3622
   89SAPE  H12B 8599   4.414   2.367   6.245  0.0589  3.4375 -1.1299
   89SAPE   C11 8600   4.265   2.461   6.374  0.1053  0.5243  0.4967
   89SAPE  H11A 8601   4.246   2.479   6.482 -1.6273  3.0992 -0.1823
   89SAPE  H11B 8602   4.205   2.371   6.349  1.0526 -0.2008  0.8206
   89SAPE     P 8603   4.130   2.683   6.318 -0.3210 -0.0317  0.4192
   89SAPE   O13 8604   4.086   2.665   6.459 -0.3241 -0.1651  0.1006
   89SAPE   O14 8605   4.174   2.821   6.289  0.8824 -0.2762  0.7382
   89SAPE   O12 8606   4.242   2.571   6.287 -0.3922 -0.2599 -0.2265
   89SAPE   O11 8607   4.019   2.642   6.213  0.6224  0.3968 -0.2718
   89SAPE    C1 8608   4.037   2.654   6.068 -0.3413  0.0754 -0.4635
   89SAPE    HA 8609   4.142   2.625   6.047  0.6024  2.5390  0.7174
   89SAPE    HB 8610   3.979   2.573   6.017 -1.6550  1.4704 -1.2336
   89SAPE    C2 8611   4.002   2.791   6.007 -0.4407 -0.2657  0.3350
   89SAPE    HS 8612   4.076   2.864   6.047 -0.9736 -0.1904  1.1924
   89SAPE   O21 8613   3.880   2.851   6.042  0.3303  0.2614  0.2647
   89SAPE   C21 8614   3.773   2.780   6.058  0.6145 -0.4925 -0.3396
   89SAPE   O22 8615   3.748   2.664   6.024 -0.1210 -0.0672 -0.0240
   89SAPE   C22 8616   3.680   2.870   6.137 -1.0225 -0.5646 -0.5096
   89SAPE   H2R 8617   3.674   2.828   6.240 -1.0727  0.2979 -0.1571
   89SAPE   H2S 8618   3.736   2.962   6.164 -1.0219 -0.2052 -1.7161
   89SAPE    C3 8619   4.016   2.788   5.849 -0.6880  0.0036  0.4843
   89SAPE    HX 8620   4.116   2.754   5.812 -0.7810 -1.6123  1.6791
   89SAPE    HY 8621   4.009   2.893   5.813  0.6764 -0.1490 -0.2851
   89SAPE   O31 8622   3.904   2.724   5.786  0.4891 -0.0471 -0.0415
   89SAPE   C31 8623   3.928   2.608   5.729  0.2060  0.6989  0.2422
   89SAPE   O32 8624   4.039   2.556   5.719 -0.2688 -0.5674  0.6519
   89SAPE   C32 8625   3.791   2.558   5.671  0.8570  0.3602 -0.0620
   89SAPE   H2X 8626   3.719   2.572   5.755  1.0497  5.0375 -0.5280
   89SAPE   H2Y 8627   3.818   2.453   5.652  0.8459 -0.0380  1.9578
   89SAPE   C23 8628   3.540   2.885   6.079 -0.0603  0.6379  0.0694
   89SAPE   H3R 8629   3.469   2.930   6.151 -0.8755  0.1719 -0.4350
   89SAPE   H3S 8630   3.504   2.783   6.055 -1.8505  1.5047 -1.0600
   89SAPE   C24 8631   3.533   2.981   5.958 -0.7785 -0.2377 -0.1201
   89SAPE   H4R 8632   3.561   3.085   5.984 -0.2362 -0.5826  0.6964
   89SAPE   H4S 8633   3.424   2.991   5.939 -0.7185 -0.5089 -0.6306
   89SAPE   C25 8634   3.604   2.929   5.834 -1.4205 -0.6479 -0.0212
   89SAPE   H5R 8635   3.566   2.838   5.786  0.8195 -0.8349 -1.4709
   89SAPE   C26 8636   3.699   2.988   5.764 -0.3748  0.0670 -0.1672
   89SAPE   H6R 8637   3.753   2.918   5.699 -1.8275 -1.7584  0.5470
   89SAPE   C27 8638   3.758   3.120   5.794  0.2013 -0.4496  0.1380
   89SAPE   H7R 8639   3.761   3.137   5.904 -0.3007 -2.2346  0.4497
   89SAPE   H7S 8640   3.683   3.197   5.768 -0.1095 -1.1257 -0.9937
   89SAPE   C28 8641   3.887   3.161   5.727  0.3125  0.2730 -0.6245
   89SAPE   H8R 8642   3.955   3.209   5.799  1.2563 -3.1805  0.9132
   89SAPE   C29 8643   3.918   3.161   5.592 -0.6414 -0.9954 -0.2190
   89SAPE   H9R 8644   4.023   3.175   5.564 -0.5038  1.9144  1.5401
   89SAPE  C210 8645   3.821   3.123   5.482  0.4565  0.7131  0.9955
   89SAPE  H10R 8646   3.820   3.199   5.401  0.8872 -1.4483 -1.1237
   89SAPE  H10S 8647   3.714   3.118   5.513 -0.0219  0.9295 -0.5858
   89SAPE  C211 8648   3.840   2.990   5.422 -0.2436  0.2983  0.2750
   89SAPE  H11R 8649   3.852   2.903   5.487  0.9033  0.8007  0.7500
   89SAPE  C212 8650   3.860   2.972   5.289  0.1206  0.6962  0.3001
   89SAPE  H12R 8651   3.872   2.869   5.253  1.5359  1.1099 -0.4463
   89SAPE  C213 8652   3.855   3.071   5.172 -0.5527 -0.2064  0.2966
   89SAPE  H13R 8653   3.889   3.169   5.212  2.9085 -1.9629  1.8926
   89SAPE  H13S 8654   3.756   3.070   5.123 -0.1303  2.4118 -0.6960
   89SAPE  C214 8655   3.965   3.031   5.073 -1.0200 -0.4272 -0.3598
   89SAPE  H14R 8656   4.067   3.015   5.110 -0.9313 -1.5256 -1.0824
   89SAPE  C215 8657   3.964   3.018   4.941  0.2357 -0.8742  0.4230
   89SAPE  H15R 8658   4.056   2.982   4.892  0.8181  0.5852  0.4025
   89SAPE  C216 8659   3.840   3.045   4.862 -0.1904  0.3963 -0.3051
   89SAPE  H16R 8660   3.749   3.051   4.925  1.5690  0.0422  2.3834
   89SAPE  H16S 8661   3.823   2.962   4.789 -1.8565  0.1065  0.3843
   89SAPE  C217 8662   3.845   3.177   4.777 -0.8518 -0.2601 -0.8143
   89SAPE  H17R 8663   3.869   3.268   4.836  2.0863 -1.8618  0.5482
   89SAPE  H17S 8664   3.739   3.188   4.744 -0.5530  0.4313 -1.5433
   89SAPE  C218 8665   3.914   3.182   4.641 -1.1042  0.2749  0.3201
   89SAPE  H18R 8666   3.896   3.083   4.593  1.4968 -0.0039 -0.1849
   89SAPE  H18S 8667   4.023   3.188   4.661 -0.9008  0.1898 -0.6964
   89SAPE  C219 8668   3.861   3.286   4.546  0.1633  0.4932 -0.9873
   89SAPE  H19R 8669   3.877   3.380   4.603  0.8153 -1.8811  2.9228
   89SAPE  H19S 8670   3.754   3.265   4.524  0.2635 -0.8494 -0.2428
   89SAPE  C220 8671   3.932   3.297   4.415  0.2403  0.3910 -0.0136
   89SAPE  H20R 8672   4.041   3.296   4.434  0.1706 -1.5060  0.3929
   89SAPE  H20S 8673   3.908   3.386   4.353  2.1562  0.0909 -1.2258
   89SAPE  H20T 8674   3.913   3.202   4.361 -0.6826  0.1166  0.7666
   89SAPE   C33 8675   3.737   2.616   5.538 -0.7070 -0.4066  0.3578
   89SAPE   H3X 8676   3.742   2.727   5.547  2.0255 -0.3979 -0.7843
   89SAPE   H3Y 8677   3.631   2.584   5.526 -1.5717  1.7853  1.7351
   89SAPE   C34 8678   3.829   2.565   5.421  0.2477  0.1394  0.4530
   89SAPE   H4X 8679   3.860   2.462   5.448 -1.2641 -0.0414  1.5932
   89SAPE   H4Y 8680   3.921   2.627   5.424  0.4123  0.0531 -1.8546
   89SAPE   C35 8681   3.754   2.569   5.284  0.0939  0.2925  0.9514
   89SAPE   H5X 8682   3.718   2.672   5.268 -2.8483 -0.8754 -0.2265
   89SAPE   H5Y 8683   3.663   2.505   5.285 -0.0865  0.5259  0.0614
   89SAPE   C36 8684   3.872   2.543   5.181 -0.5613 -0.1270 -0.0591
   89SAPE   H6X 8685   3.950   2.481   5.232  0.2484  0.9393  0.0088
   89SAPE   H6Y 8686   3.909   2.646   5.164 -2.5514  1.1076  2.7925
   89SAPE   C37 8687   3.811   2.474   5.057 -0.1288  0.4579 -0.0655
   89SAPE   H7X 8688   3.701   2.489   5.049  0.0925  2.8688  1.0538
   89SAPE   H7Y 8689   3.824   2.364   5.071 -2.5504  0.0527 -0.7963
   89SAPE   C38 8690   3.869   2.521   4.921 -0.5584  0.5675 -0.2031
   89SAPE   H8X 8691   3.978   2.501   4.921 -0.6215  0.1791  2.0999
   89SAPE   H8Y 8692   3.862   2.632   4.926  1.1205  0.5543  3.9347
   89SAPE   C39 8693   3.792   2.464   4.796 -0.0322 -0.4078  0.7806
   89SAPE   H9X 8694   3.682   2.458   4.814  0.0921 -2.7006  0.9150
   89SAPE   H9Y 8695   3.826   2.363   4.765 -2.0185 -0.1825 -2.4444
   89SAPE  C310 8696   3.821   2.556   4.676  0.5440  0.3336  0.2335
   89SAPE  H10X 8697   3.931   2.575   4.683  0.8442 -1.4638  0.8035
   89SAPE  H10Y 8698   3.773   2.656   4.685  2.6176  1.4180 -0.4206
   89SAPE  C311 8699   3.801   2.488   4.540  0.4851  0.6011 -0.3454
   89SAPE  H11X 8700   3.859   2.393   4.539  0.1780  0.4098  0.0148
   89SAPE  H11Y 8701   3.842   2.548   4.456 -1.0760  0.5296 -1.1877
   89SAPE  C312 8702   3.656   2.465   4.520 -0.0680  0.1214  0.0519
   89SAPE  H12X 8703   3.608   2.548   4.576  0.1874 -0.4695  1.1524
   89SAPE  H12Y 8704   3.618   2.376   4.574  0.1539 -0.7684 -1.2367
   89SAPE  C313 8705   3.619   2.464   4.373  1.0159 -0.1908 -0.1474
   89SAPE  H13X 8706   3.607   2.566   4.329  1.5069 -0.7633 -1.6089
   89SAPE  H13Y 8707   3.516   2.424   4.378  0.1133  2.2689  3.1659
   89SAPE  C314 8708   3.702   2.377   4.280 -0.3242 -0.1665  0.0666
   89SAPE  H14X 8709   3.675   2.270   4.294  0.5521 -0.3175  0.6227
   89SAPE  H14Y 8710   3.808   2.379   4.313 -0.1207  1.8049 -0.6226
   89SAPE  C315 8711   3.692   2.398   4.128  0.3818 -0.3839 -0.1412
   89SAPE  H15X 8712   3.735   2.495   4.096 -1.1024  0.7613  1.2908
   89SAPE  H15Y 8713   3.585   2.411   4.101  0.0471  0.2734  1.5126
   89SAPE  C316 8714   3.769   2.302   4.037  0.3644  1.1762  0.2688
   89SAPE  H16X 8715   3.863   2.262   4.082 -0.4712 -1.0588  0.1212
   89SAPE  H16Y 8716   3.802   2.353   3.944  2.5942  0.3229  0.5554
   89SAPE  C317 8717   3.686   2.173   4.013  0.5574 -0.1931  0.1689
   89SAPE  H17X 8718   3.577   2.191   4.001  0.6863  0.4468 -0.0660
   89SAPE  H17Y 8719   3.706   2.115   4.106  2.0553 -1.2316 -0.7749
   89SAPE  C318 8720   3.742   2.089   3.898 -0.0149  0.2229  0.6337
   89SAPE  H18X 8721   3.849   2.068   3.914 -0.0746  1.3052  2.6056
   89SAPE  H18Y 8722   3.731   2.143   3.801  0.1700 -1.5869 -0.4372
   89SAPE  H18Z 8723   3.680   1.996   3.898 -0.6912  0.6667  0.4504
   90SAPE     N 8724   5.433   2.796   6.425  0.7555 -0.0970 -0.2934
   90SAPE   HN1 8725   5.437   2.890   6.469 -0.3009  1.3590 -3.1483
   90SAPE   HN2 8726   5.434   2.719   6.494 -0.0226  1.0440  1.0274
   90SAPE   HN3 8727   5.521   2.794   6.369  0.4831  0.6800 -0.7578
   90SAPE   C12 8728   5.300   2.794   6.345 -0.9088 -0.3623 -0.4035
   90SAPE  H12A 8729   5.219   2.813   6.418  0.2997  1.0027  0.6111
   90SAPE  H12B 8730   5.279   2.704   6.283 -2.5330 -0.1088 -0.2384
   90SAPE   C11 8731   5.285   2.922   6.250  0.4573  0.4891 -1.2794
   90SAPE  H11A 8732   5.175   2.940   6.244  0.6005  1.3155 -1.4885
   90SAPE  H11B 8733   5.330   2.902   6.150  0.1280 -0.2896 -1.2734
   90SAPE     P 8734   5.283   3.179   6.316 -0.2429  0.3690 -0.1836
   90SAPE   O13 8735   5.163   3.177   6.401 -0.3517  0.4033 -0.5488
   90SAPE   O14 8736   5.391   3.276   6.351 -0.1087  0.3718  0.0178
   90SAPE   O12 8737   5.348   3.033   6.315 -0.2978  0.5592 -0.0292
   90SAPE   O11 8738   5.239   3.198   6.170  0.2409  0.0283  0.0335
   90SAPE    C1 8739   5.324   3.220   6.058  0.9160 -0.1998  0.0869
   90SAPE    HA 8740   5.414   3.156   6.070  1.0195  0.0533  0.7001
   90SAPE    HB 8741   5.264   3.205   5.966  0.1409  2.7885  0.0344
   90SAPE    C2 8742   5.376   3.368   6.045  0.2902 -0.1597  0.8228
   90SAPE    HS 8743   5.361   3.433   6.134 -0.1105 -0.3023  0.8597
   90SAPE   O21 8744   5.300   3.441   5.940 -0.3255  0.0417 -0.2318
   90SAPE   C21 8745   5.302   3.574   5.940 -0.3494  1.1085  0.3354
   90SAPE   O22 8746   5.355   3.646   6.025 -0.1003 -0.0298 -0.4195
   90SAPE   C22 8747   5.216   3.620   5.820 -0.7916 -0.0008  0.1537
   90SAPE   H2R 8748   5.297   3.659   5.754  0.4344 -0.4457  1.3586
   90SAPE   H2S 8749   5.166   3.537   5.766  0.4607 -0.9004  0.3406
   90SAPE    C3 8750   5.529   3.371   6.013  0.2335  0.5397  0.8111
   90SAPE    HX 8751   5.577   3.315   6.096  1.1933 -0.4417 -0.3977
   90SAPE    HY 8752   5.575   3.471   6.015  0.9224  0.2898 -1.6768
   90SAPE   O31 8753   5.581   3.291   5.906 -0.3368 -1.0607  0.0472
   90SAPE   C31 8754   5.579   3.358   5.791  0.5069 -0.6122 -0.1825
   90SAPE   O32 8755   5.542   3.472   5.781  0.4371 -0.2920  0.5429
   90SAPE   C32 8756   5.634   3.279   5.678 -0.9349  0.1320 -0.4571
   90SAPE   H2X 8757   5.732   3.233   5.703 -1.9543 -0.6543  2.2274
   90SAPE   H2Y 8758   5.638   3.344   5.588  0.8665 -1.9289 -1.9074
   90SAPE   C23 8759   5.118   3.741   5.856 -0.2930 -0.2850  0.0555
   90SAPE   H3R 8760   5.176   3.807   5.924  0.6212  0.2418 -1.2282
   90SAPE   H3S 8761   5.032   3.696   5.910 -0.7330 -2.0132 -1.9917
   90SAPE   C24 8762   5.055   3.821   5.739 -0.9343  0.1224  0.9685
   90SAPE   H4R 8763   5.001   3.909   5.779  1.3754  1.0979  2.0405
   90SAPE   H4S 8764   4.983   3.752   5.691  0.0799 -2.2570  2.7701
   90SAPE   C25 8765   5.144   3.874   5.626 -0.4655  0.8638  0.2075
   90SAPE   H5R 8766   5.187   3.973   5.645  0.9895  0.3074 -0.1395
   90SAPE   C26 8767   5.172   3.829   5.499 -0.0308  0.2580 -0.2949
   90SAPE   H6R 8768   5.251   3.882   5.444  0.9025  0.2747  1.0229
   90SAPE   C27 8769   5.112   3.697   5.444 -0.2544  0.2637  0.9771
   90SAPE   H7R 8770   5.009   3.720   5.409  0.1207 -0.2079 -0.4612
   90SAPE   H7S 8771   5.096   3.627   5.529 -1.7315 -2.4732 -1.4720
   90SAPE   C28 8772   5.197   3.636   5.337 -0.6767  0.0651  0.5082
   90SAPE   H8R 8773   5.211   3.705   5.252  2.5196 -0.2691  0.6943
   90SAPE   C29 8774   5.281   3.531   5.347  0.8540 -1.1160  0.4351
   90SAPE   H9R 8775   5.336   3.501   5.256  1.1479 -1.7698  0.8252
   90SAPE  C210 8776   5.306   3.446   5.464  0.1367 -0.1034 -0.6275
   90SAPE  H10R 8777   5.283   3.503   5.557 -3.3870  0.3333 -1.6866
   90SAPE  H10S 8778   5.414   3.422   5.454  0.3357  0.5461 -0.0612
   90SAPE  C211 8779   5.218   3.320   5.451 -0.5742 -0.2915 -0.0816
   90SAPE  H11R 8780   5.141   3.310   5.528 -0.0278 -1.5881  0.3158
   90SAPE  C212 8781   5.222   3.221   5.365 -0.3253  0.1192 -0.3349
   90SAPE  H12R 8782   5.146   3.141   5.360  2.0559 -2.2374  0.0461
   90SAPE  C213 8783   5.324   3.211   5.260  1.0680  0.1627 -0.1970
   90SAPE  H13R 8784   5.408   3.282   5.276 -0.5586  2.2415 -0.6382
   90SAPE  H13S 8785   5.281   3.243   5.163 -2.9398  1.2908  1.8729
   90SAPE  C214 8786   5.381   3.074   5.252 -0.1637  0.3848  0.2682
   90SAPE  H14R 8787   5.389   3.022   5.349 -1.3864  0.6821  0.5348
   90SAPE  C215 8788   5.406   3.001   5.134  0.3234  0.2950  0.4276
   90SAPE  H15R 8789   5.429   2.894   5.145  1.9710  0.3463 -2.1399
   90SAPE  C216 8790   5.387   3.047   4.986 -0.0313 -0.6000 -0.4630
   90SAPE  H16R 8791   5.433   2.989   4.903  1.1694  1.7718 -1.5026
   90SAPE  H16S 8792   5.444   3.142   4.987 -1.2601  0.1432  0.2583
   90SAPE  C217 8793   5.240   3.067   4.958  0.1412  0.3697 -0.3382
   90SAPE  H17R 8794   5.179   3.102   5.044  0.7951  0.6612  0.0078
   90SAPE  H17S 8795   5.194   2.969   4.933 -0.4640 -0.0654  2.2995
   90SAPE  C218 8796   5.211   3.171   4.855  0.8394 -0.2131 -0.2876
   90SAPE  H18R 8797   5.290   3.179   4.778  1.8979  0.8630  0.8752
   90SAPE  H18S 8798   5.213   3.269   4.908 -4.2517 -0.3033  0.3307
   90SAPE  C219 8799   5.069   3.171   4.793  0.0270 -0.9034  0.0650
   90SAPE  H19R 8800   4.997   3.175   4.878  0.2627 -0.9968  0.2683
   90SAPE  H19S 8801   5.057   3.069   4.751 -1.7685 -0.1621 -1.3067
   90SAPE  C220 8802   5.039   3.295   4.706  0.0580  0.7080 -0.3419
   90SAPE  H20R 8803   4.942   3.272   4.657 -0.0065  3.6337 -1.7124
   90SAPE  H20S 8804   5.112   3.316   4.624 -0.3778 -2.3983 -1.5851
   90SAPE  H20T 8805   5.030   3.388   4.766 -1.5763  0.4402 -0.1476
   90SAPE   C33 8806   5.537   3.168   5.635  0.1685  0.4663 -0.0815
   90SAPE   H3X 8807   5.564   3.144   5.530  1.2232  2.1885 -0.2270
   90SAPE   H3Y 8808   5.430   3.198   5.632  0.2652  0.9208  0.7328
   90SAPE   C34 8809   5.550   3.036   5.720 -0.3611  0.0819  0.4394
   90SAPE   H4X 8810   5.519   3.066   5.822 -1.1205 -0.8757  0.4986
   90SAPE   H4Y 8811   5.655   2.999   5.722 -0.5286 -0.4003  0.2635
   90SAPE   C35 8812   5.458   2.918   5.672  0.5510  0.1945  0.2626
   90SAPE   H5X 8813   5.464   2.832   5.742 -0.0098 -0.2871 -0.2855
   90SAPE   H5Y 8814   5.509   2.889   5.578  0.4216 -0.9606  0.5475
   90SAPE   C36 8815   5.315   2.945   5.640 -0.0561 -0.0402 -0.0818
   90SAPE   H6X 8816   5.279   3.047   5.614 -0.5138 -0.0017  0.6857
   90SAPE   H6Y 8817   5.275   2.914   5.739  0.3621 -2.7281 -0.6969
   90SAPE   C37 8818   5.254   2.843   5.537  0.0851  0.6138  0.3975
   90SAPE   H7X 8819   5.269   2.738   5.570  2.5831  0.7076 -0.2917
   90SAPE   H7Y 8820   5.327   2.836   5.454  0.2412 -2.0218  0.6954
   90SAPE   C38 8821   5.117   2.869   5.483  0.8544 -0.3987 -0.5844
   90SAPE   H8X 8822   5.113   2.938   5.396  0.8423 -1.2961 -1.3006
   90SAPE   H8Y 8823   5.057   2.928   5.556  1.1308 -0.6847 -0.1308
   90SAPE   C39 8824   5.047   2.738   5.444 -0.9693 -0.1974 -0.2004
   90SAPE   H9X 8825   5.057   2.663   5.525  1.8003 -1.8611 -1.9849
   90SAPE   H9Y 8826   5.099   2.698   5.354 -0.3422  0.0193  0.0647
   90SAPE  C310 8827   4.902   2.754   5.401 -0.2308 -0.2412 -0.7216
   90SAPE  H10X 8828   4.834   2.781   5.485  2.2273 -1.1596  1.6526
   90SAPE  H10Y 8829   4.872   2.655   5.360  0.2069 -0.7547  0.1882
   90SAPE  C311 8830   4.880   2.854   5.287 -0.2496 -0.4235 -0.0274
   90SAPE  H11X 8831   4.945   2.820   5.204 -2.0578 -2.0062 -0.8199
   90SAPE  H11Y 8832   4.914   2.950   5.333  1.7591 -0.7490 -0.8152
   90SAPE  C312 8833   4.727   2.864   5.252  0.4595 -0.8664  0.1482
   90SAPE  H12X 8834   4.665   2.864   5.344 -0.3197 -1.8981 -0.3575
   90SAPE  H12Y 8835   4.700   2.773   5.195 -1.2803  0.0311 -0.5169
   90SAPE  C313 8836   4.707   2.994   5.166 -0.2558  0.7403 -0.6251
   90SAPE  H13X 8837   4.790   2.986   5.093  0.0895 -0.1430 -0.1393
   90SAPE  H13Y 8838   4.715   3.091   5.221  1.9780  1.6523 -2.4956
   90SAPE  C314 8839   4.572   3.002   5.093  0.0071  0.0506  0.7273
   90SAPE  H14X 8840   4.490   2.980   5.165 -1.5044 -0.5817 -1.1495
   90SAPE  H14Y 8841   4.566   2.915   5.025  2.7746 -0.1400  0.6673
   90SAPE  C315 8842   4.550   3.137   5.022 -0.0630  0.0542  0.0424
   90SAPE  H15X 8843   4.634   3.161   4.953 -1.0467  0.5069 -1.0065
   90SAPE  H15Y 8844   4.532   3.216   5.098  1.9570 -0.1971  0.8181
   90SAPE  C316 8845   4.428   3.148   4.928  0.0926  0.3009  0.3174
   90SAPE  H16X 8846   4.409   3.255   4.905  0.4456  0.1108 -0.8710
   90SAPE  H16Y 8847   4.341   3.103   4.981 -0.7022  2.5019  0.9444
   90SAPE  C317 8848   4.451   3.080   4.793 -0.5561 -0.6443 -0.0558
   90SAPE  H17X 8849   4.455   2.969   4.792  2.5805 -0.5834 -2.1339
   90SAPE  H17Y 8850   4.542   3.129   4.752 -1.1684  1.1054  0.6028
   90SAPE  C318 8851   4.337   3.100   4.687 -0.2692 -0.6541  1.1937
   90SAPE  H18X 8852   4.347   3.198   4.636  1.0311 -0.2378  2.2313
   90SAPE  H18Y 8853   4.237   3.085   4.732 -0.4870  1.2366  1.3650
   90SAPE  H18Z 8854   4.349   3.026   4.604 -3.9099  0.6424 -0.5753
   91SAPE     N 8855   1.390   3.754   6.209  0.2454 -0.0990  0.5468
   91SAPE   HN1 8856   1.293   3.736   6.177 -0.6187 -0.6859  3.3686
   91SAPE   HN2 8857   1.380   3.758   6.312 -3.8338  1.8634  0.1826
   91SAPE   HN3 8858   1.414   3.853   6.185  0.6316 -0.2153  0.4461
   91SAPE   C12 8859   1.487   3.652   6.163  0.2290 -0.4820  0.4999
   91SAPE  H12A 8860   1.525   3.679   6.062  1.4856 -3.2103  0.1948
   91SAPE  H12B 8861   1.432   3.557   6.149  0.2425 -0.0266 -3.2336
   91SAPE   C11 8862   1.596   3.643   6.263  0.2536  1.0857  0.0910
   91SAPE  H11A 8863   1.647   3.545   6.251 -3.3847 -0.7568 -0.8884
   91SAPE  H11B 8864   1.557   3.640   6.367  1.5299  0.1397  0.5662
   91SAPE     P 8865   1.830   3.744   6.202 -0.2088  0.2678 -0.2264
   91SAPE   O13 8866   1.910   3.862   6.225  0.6620  0.2741 -0.1633
   91SAPE   O14 8867   1.889   3.611   6.241  0.2447 -0.3040  0.0529
   91SAPE   O12 8868   1.687   3.755   6.256  0.3248 -0.0559 -0.9143
   91SAPE   O11 8869   1.801   3.728   6.049 -0.8047 -0.5038 -0.1525
   91SAPE    C1 8870   1.750   3.838   5.979 -0.8066  0.2517 -0.7332
   91SAPE    HA 8871   1.689   3.799   5.895  1.7094  1.0111 -3.0113
   91SAPE    HB 8872   1.682   3.905   6.036  2.5108  1.3814  2.1111
   91SAPE    C2 8873   1.865   3.923   5.916 -0.4520 -0.0580 -0.4731
   91SAPE    HS 8874   1.912   3.993   5.989 -2.0354  0.6076 -0.0622
   91SAPE   O21 8875   1.813   3.989   5.801  0.4371 -0.1778  0.4339
   91SAPE   C21 8876   1.883   4.096   5.765  0.3014  0.2892 -0.6529
   91SAPE   O22 8877   1.968   4.155   5.828  1.0238  0.5233  0.3055
   91SAPE   C22 8878   1.823   4.150   5.634  0.0530 -0.1916  0.1672
   91SAPE   H2R 8879   1.712   4.145   5.643  0.0492 -0.9262 -0.2300
   91SAPE   H2S 8880   1.843   4.258   5.618  0.3773 -0.4365 -1.1217
   91SAPE    C3 8881   1.987   3.833   5.863 -0.0802  0.2748 -0.0918
   91SAPE    HX 8882   2.033   3.792   5.955  0.8465 -2.2524 -1.6264
   91SAPE    HY 8883   2.055   3.912   5.824 -1.9191  1.6724 -0.5704
   91SAPE   O31 8884   1.939   3.734   5.766 -0.2153 -0.5411 -0.7653
   91SAPE   C31 8885   1.998   3.617   5.767  1.3255  0.2852  0.5134
   91SAPE   O32 8886   2.090   3.583   5.834  0.0516 -0.0990 -0.3669
   91SAPE   C32 8887   1.927   3.520   5.677 -0.4623  1.5211 -0.1640
   91SAPE   H2X 8888   1.822   3.524   5.713  0.1616 -1.3379  2.1674
   91SAPE   H2Y 8889   1.972   3.420   5.698 -0.9848  1.3292  0.0575
   91SAPE   C23 8890   1.872   4.064   5.514  0.5819 -0.0685  0.0978
   91SAPE   H3R 8891   1.794   4.057   5.436  0.5753 -0.6617  0.1512
   91SAPE   H3S 8892   1.880   3.958   5.546 -1.1802 -0.1607  0.2685
   91SAPE   C24 8893   2.015   4.107   5.473  0.6929  0.8959  0.4816
   91SAPE   H4R 8894   2.049   4.024   5.407 -0.2807 -1.6439  3.0614
   91SAPE   H4S 8895   2.082   4.093   5.561  3.4359  1.9136 -1.3875
   91SAPE   C25 8896   2.043   4.243   5.420 -0.7731 -0.0158  0.1176
   91SAPE   H5R 8897   2.017   4.316   5.498  2.6916  1.5026 -0.0286
   91SAPE   C26 8898   2.100   4.275   5.301 -0.2182  0.0826  0.1012
   91SAPE   H6R 8899   2.100   4.381   5.274  0.2324 -0.5900 -2.6119
   91SAPE   C27 8900   2.139   4.169   5.201  0.2724 -0.2726  0.8042
   91SAPE   H7R 8901   2.174   4.224   5.112  1.5640  1.3567  2.2842
   91SAPE   H7S 8902   2.048   4.121   5.158 -0.4521  4.3584 -3.2543
   91SAPE   C28 8903   2.248   4.076   5.253 -0.3419 -0.3549  0.1149
   91SAPE   H8R 8904   2.315   4.125   5.325 -0.8310  2.1501 -1.0716
   91SAPE   C29 8905   2.253   3.947   5.220  0.6863 -0.6556 -0.1349
   91SAPE   H9R 8906   2.324   3.884   5.275 -1.0361 -1.9724  0.6607
   91SAPE  C210 8907   2.153   3.880   5.139  0.1141 -0.1698 -0.0936
   91SAPE  H10R 8908   2.073   3.944   5.098  0.3409 -0.5793 -1.1817
   91SAPE  H10S 8909   2.102   3.803   5.202  0.5827  0.2712  0.8463
   91SAPE  C211 8910   2.224   3.812   5.024  0.3260 -0.1318  0.3812
   91SAPE  H11R 8911   2.254   3.882   4.945  0.3007 -0.3537  0.1740
   91SAPE  C212 8912   2.245   3.679   5.007 -0.3771  0.0880  0.5227
   91SAPE  H12R 8913   2.305   3.640   4.923  0.7669  1.6834  0.5943
   91SAPE  C213 8914   2.215   3.576   5.112  0.3168  0.4223  0.0144
   91SAPE  H13R 8915   2.104   3.569   5.115  0.4173 -1.3856 -0.0186
   91SAPE  H13S 8916   2.235   3.618   5.212  2.0762 -0.4242  0.0218
   91SAPE  C214 8917   2.276   3.443   5.086 -0.2387  0.4897  0.5234
   91SAPE  H14R 8918   2.300   3.426   4.980 -0.4899 -1.4782  0.7648
   91SAPE  C215 8919   2.332   3.359   5.168  0.2281 -0.2621 -0.3528
   91SAPE  H15R 8920   2.372   3.265   5.127 -0.2533 -0.0852 -1.2323
   91SAPE  C216 8921   2.350   3.380   5.321  0.3101 -0.3168 -0.4296
   91SAPE  H16R 8922   2.370   3.288   5.381 -1.2741  0.5606  1.5182
   91SAPE  H16S 8923   2.252   3.411   5.363 -0.2113 -3.0241  0.4379
   91SAPE  C217 8924   2.455   3.480   5.378 -0.3778 -0.0345 -0.1191
   91SAPE  H17R 8925   2.443   3.577   5.325 -0.2319 -0.0143 -0.1165
   91SAPE  H17S 8926   2.548   3.434   5.340  0.1636  0.9949 -0.0739
   91SAPE  C218 8927   2.451   3.503   5.531 -0.0659 -0.3621  0.1522
   91SAPE  H18R 8928   2.547   3.556   5.546  0.0518 -0.4660 -0.2067
   91SAPE  H18S 8929   2.444   3.405   5.583  0.1081 -0.5027 -0.0872
   91SAPE  C219 8930   2.334   3.587   5.596  1.1195 -0.9015  0.0525
   91SAPE  H19R 8931   2.372   3.598   5.700  0.1781  1.5544  0.1728
   91SAPE  H19S 8932   2.240   3.528   5.589  0.4666  0.1247  0.1229
   91SAPE  C220 8933   2.333   3.726   5.535 -0.7506  0.4794  0.1529
   91SAPE  H20R 8934   2.431   3.779   5.535 -0.1336 -0.6323  2.1125
   91SAPE  H20S 8935   2.265   3.788   5.598 -1.1039 -2.7170  3.0185
   91SAPE  H20T 8936   2.302   3.728   5.428  1.1953 -0.5508 -0.4483
   91SAPE   C33 8937   1.942   3.557   5.528 -0.3986  0.1952  0.2078
   91SAPE   H3X 8938   1.894   3.481   5.463  0.2173 -0.8421  0.9522
   91SAPE   H3Y 8939   2.048   3.564   5.495 -0.4242  1.3525  0.3488
   91SAPE   C34 8940   1.869   3.688   5.485  0.0896  0.0682 -0.1371
   91SAPE   H4X 8941   1.941   3.770   5.503  1.3397 -1.2657  1.1250
   91SAPE   H4Y 8942   1.780   3.700   5.551  0.5224  0.0380  0.4600
   91SAPE   C35 8943   1.801   3.680   5.346  0.6275 -0.4250  0.2071
   91SAPE   H5X 8944   1.748   3.583   5.331  0.1465  0.2631 -2.9708
   91SAPE   H5Y 8945   1.890   3.686   5.280 -0.2855  3.4808 -0.8054
   91SAPE   C36 8946   1.711   3.795   5.301  0.1093 -0.3365  0.7290
   91SAPE   H6X 8947   1.760   3.891   5.326 -0.4295 -0.3823  2.0057
   91SAPE   H6Y 8948   1.612   3.803   5.350  0.9152 -0.1121  2.3363
   91SAPE   C37 8949   1.677   3.799   5.152  0.1442 -0.0608  0.2653
   91SAPE   H7X 8950   1.604   3.881   5.129 -0.7580 -0.8203  0.4081
   91SAPE   H7Y 8951   1.633   3.708   5.106 -1.2381  0.4477  0.5538
   91SAPE   C38 8952   1.801   3.842   5.076  0.0415  0.5689  0.6020
   91SAPE   H8X 8953   1.862   3.750   5.081 -0.6086  0.0433 -1.0195
   91SAPE   H8Y 8954   1.868   3.917   5.122  1.3093 -0.4378  0.4024
   91SAPE   C39 8955   1.762   3.878   4.931 -0.8807 -0.8468  0.6040
   91SAPE   H9X 8956   1.706   3.974   4.919  0.9415 -0.0353 -1.8642
   91SAPE   H9Y 8957   1.682   3.809   4.896 -1.8203  1.6254 -2.3426
   91SAPE  C310 8958   1.884   3.907   4.845  0.2939 -0.4839  0.4679
   91SAPE  H10X 8959   1.953   3.823   4.869  1.5661  0.6484  0.8534
   91SAPE  H10Y 8960   1.937   4.001   4.873  0.7703 -0.6234  0.0592
   91SAPE  C311 8961   1.851   3.898   4.699 -0.2824 -0.5338  0.1501
   91SAPE  H11X 8962   1.755   3.953   4.694 -1.3678 -2.4358 -0.4900
   91SAPE  H11Y 8963   1.826   3.792   4.677  1.7808 -0.9735 -0.1828
   91SAPE  C312 8964   1.963   3.945   4.605 -0.2786  0.4515  0.5114
   91SAPE  H12X 8965   2.039   3.865   4.591  1.0731  1.7132  0.5048
   91SAPE  H12Y 8966   2.015   4.037   4.641 -3.3077  2.5642 -0.2963
   91SAPE  C313 8967   1.917   3.988   4.465 -0.2296 -0.1048  0.5868
   91SAPE  H13X 8968   1.881   3.900   4.406  3.5715  0.0053 -2.0584
   91SAPE  H13Y 8969   2.003   4.024   4.404 -0.7952  0.9568  0.4048
   91SAPE  C314 8970   1.810   4.093   4.459 -0.0956 -0.3028 -0.0979
   91SAPE  H14X 8971   1.854   4.183   4.507 -0.3159  0.7530 -1.8507
   91SAPE  H14Y 8972   1.720   4.063   4.516  0.0085 -2.1737 -0.8812
   91SAPE  C315 8973   1.788   4.132   4.312 -0.3901  0.2629 -0.0621
   91SAPE  H15X 8974   1.731   4.050   4.264 -1.0371  0.0410  1.0774
   91SAPE  H15Y 8975   1.889   4.151   4.270 -0.3215 -0.1758 -0.1027
   91SAPE  C316 8976   1.692   4.253   4.311  0.2859 -0.2675  0.1041
   91SAPE  H16X 8977   1.735   4.337   4.371  1.2893  0.3210 -1.4168
   91SAPE  H16Y 8978   1.599   4.224   4.363 -0.7643  1.6904 -0.6094
   91SAPE  C317 8979   1.648   4.304   4.173  0.4322 -0.2728  0.3800
   91SAPE  H17X 8980   1.593   4.231   4.110  1.0408 -0.3575 -0.0499
   91SAPE  H17Y 8981   1.742   4.315   4.116 -1.0068 -1.8498 -2.4197
   91SAPE  C318 8982   1.568   4.429   4.175  0.4983 -0.5777  0.1428
   91SAPE  H18X 8983   1.497   4.429   4.089  1.1346  0.2647 -0.3833
   91SAPE  H18Y 8984   1.633   4.519   4.178 -1.1846  0.6613  0.3572
   91SAPE  H18Z 8985   1.511   4.428   4.271  0.2432 -1.7620 -0.0049
   92SAPE     N 8986   2.698   5.780   6.382 -0.4457 -0.6666 -0.1175
   92SAPE   HN1 8987   2.762   5.808   6.305  1.5408 -0.4319  1.5775
   92SAPE   HN2 8988   2.668   5.868   6.429 -0.5547 -0.7390 -0.0512
   92SAPE   HN3 8989   2.752   5.730   6.456  2.2622  0.8952 -0.9848
   92SAPE   C12 8990   2.592   5.688   6.344  0.1417 -0.7331  0.4401
   92SAPE  H12A 8991   2.507   5.745   6.302  0.3812 -1.5816 -1.2360
   92SAPE  H12B 8992   2.566   5.627   6.434  2.1277 -2.2040  0.0622
   92SAPE   C11 8993   2.630   5.589   6.241  0.0596 -0.1421  0.4794
   92SAPE  H11A 8994   2.632   5.639   6.141  0.5993  0.0565  0.5858
   92SAPE  H11B 8995   2.553   5.510   6.250  1.2019 -1.1545  1.6073
   92SAPE     P 8996   2.799   5.411   6.348 -0.2215 -0.2577  0.2947
   92SAPE   O13 8997   2.935   5.436   6.398  0.5086  0.1179 -0.1531
   92SAPE   O14 8998   2.690   5.379   6.447  0.1382  0.1639 -0.3541
   92SAPE   O12 8999   2.758   5.531   6.256 -0.1797 -0.3679 -0.0311
   92SAPE   O11 9000   2.804   5.304   6.240  0.0713  0.6211  0.1144
   92SAPE    C1 9001   2.928   5.286   6.166 -0.7088  0.3161 -0.4173
   92SAPE    HA 9002   2.960   5.376   6.110  1.4549  0.6816  1.3455
   92SAPE    HB 9003   3.012   5.261   6.234 -0.3865 -0.5404 -1.1219
   92SAPE    C2 9004   2.914   5.171   6.055  0.2062  0.1075 -0.7989
   92SAPE    HS 9005   2.859   5.087   6.101 -0.1287  1.2997  1.0350
   92SAPE   O21 9006   3.049   5.142   6.004 -0.4974 -0.1905  0.5516
   92SAPE   C21 9007   3.126   5.063   6.086  0.1739 -0.0183  0.0509
   92SAPE   O22 9008   3.089   5.018   6.192 -0.0072  0.2986 -0.4858
   92SAPE   C22 9009   3.252   5.009   6.008  0.4571  0.0986  0.4649
   92SAPE   H2R 9010   3.264   4.901   6.031 -0.3353  0.2426  1.6261
   92SAPE   H2S 9011   3.233   5.023   5.900  0.5455  0.3387  0.4808
   92SAPE    C3 9012   2.828   5.232   5.938 -0.4828 -0.2915  0.4814
   92SAPE    HX 9013   2.733   5.258   5.990 -1.8661  1.0157 -2.5763
   92SAPE    HY 9014   2.823   5.157   5.856 -0.6459  0.1034  0.1279
   92SAPE   O31 9015   2.887   5.355   5.891 -0.2681 -0.1324 -0.0251
   92SAPE   C31 9016   2.799   5.437   5.843  0.1911  0.3406  0.1734
   92SAPE   O32 9017   2.683   5.407   5.818 -0.5541 -0.4611  0.1168
   92SAPE   C32 9018   2.856   5.578   5.829  0.3847 -0.4246  0.4644
   92SAPE   H2X 9019   2.932   5.569   5.748 -0.1289  0.1456 -0.0822
   92SAPE   H2Y 9020   2.909   5.610   5.922  1.4132 -1.1487  0.1335
   92SAPE   C23 9021   3.370   5.092   6.073 -0.1603  0.1675  0.4301
   92SAPE   H3R 9022   3.386   5.080   6.183 -0.7097 -0.5891  0.4245
   92SAPE   H3S 9023   3.341   5.199   6.067 -0.2623  0.0514 -1.2677
   92SAPE   C24 9024   3.507   5.085   5.997 -0.2740 -0.6844 -0.0781
   92SAPE   H4R 9025   3.526   4.975   6.002 -1.2353 -0.8763 -0.4274
   92SAPE   H4S 9026   3.573   5.150   6.058  0.2035 -0.3603 -0.9435
   92SAPE   C25 9027   3.508   5.130   5.854 -0.3965 -0.3207  0.5627
   92SAPE   H5R 9028   3.552   5.056   5.786  0.9905  0.2601  0.8257
   92SAPE   C26 9029   3.469   5.250   5.783 -0.1248 -0.2845  0.1674
   92SAPE   H6R 9030   3.462   5.235   5.674 -2.5733 -1.5872  0.4481
   92SAPE   C27 9031   3.396   5.369   5.840 -0.2727  0.0139  0.0371
   92SAPE   H7R 9032   3.467   5.456   5.839  0.5424 -0.6547 -0.7927
   92SAPE   H7S 9033   3.385   5.361   5.950 -2.0427  0.5243 -0.0859
   92SAPE   C28 9034   3.259   5.410   5.783 -0.5726  0.0814  0.1117
   92SAPE   H8R 9035   3.193   5.414   5.871  1.7444  1.5433  1.8548
   92SAPE   C29 9036   3.234   5.471   5.671  0.5076  0.7927  0.0842
   92SAPE   H9R 9037   3.134   5.514   5.655 -0.4886 -1.3723  0.4075
   92SAPE  C210 9038   3.332   5.514   5.573 -0.2446 -0.2191 -0.0802
   92SAPE  H10R 9039   3.376   5.432   5.512 -2.7132 -0.6119 -1.4006
   92SAPE  H10S 9040   3.417   5.554   5.633 -0.4497  0.0898  0.0100
   92SAPE  C211 9041   3.281   5.628   5.485 -0.0437  1.5364  0.3315
   92SAPE  H11R 9042   3.283   5.725   5.538  0.6624  2.1364 -0.7791
   92SAPE  C212 9043   3.239   5.617   5.361  0.3262  0.0563  0.5129
   92SAPE  H12R 9044   3.217   5.710   5.305  2.0674 -1.6571 -3.2396
   92SAPE  C213 9045   3.237   5.492   5.274  0.0171 -0.8845  0.3225
   92SAPE  H13R 9046   3.253   5.402   5.336 -1.9343 -1.3580  0.1502
   92SAPE  H13S 9047   3.325   5.494   5.206 -1.8964  0.5517 -2.1913
   92SAPE  C214 9048   3.115   5.470   5.185  0.0371  0.1916  0.2293
   92SAPE  H14R 9049   3.089   5.558   5.124 -0.0344  0.6953  0.9822
   92SAPE  C215 9050   3.049   5.355   5.171 -0.4445  0.7478  0.3653
   92SAPE  H15R 9051   2.956   5.360   5.114  0.2520 -0.4414 -0.9238
   92SAPE  C216 9052   3.087   5.221   5.219 -0.1164  0.8747  0.2312
   92SAPE  H16R 9053   3.193   5.221   5.251  0.8871  1.2487 -2.9189
   92SAPE  H16S 9054   3.082   5.150   5.133  0.6652  2.4430 -1.1186
   92SAPE  C217 9055   2.995   5.170   5.331 -1.0249 -0.6047  0.2413
   92SAPE  H17R 9056   2.987   5.060   5.322 -0.5258 -0.6998  0.9608
   92SAPE  H17S 9057   2.892   5.210   5.319 -1.1006 -1.1842 -1.1217
   92SAPE  C218 9058   3.058   5.200   5.476  1.3232  0.8792  0.0639
   92SAPE  H18R 9059   3.041   5.304   5.511  0.2255  0.3103  1.2423
   92SAPE  H18S 9060   3.168   5.183   5.477  1.0746 -0.9050 -0.8744
   92SAPE  C219 9061   3.007   5.107   5.584 -0.8291  0.5189 -0.2340
   92SAPE  H19R 9062   3.031   5.153   5.683 -0.8613  0.7135 -0.3168
   92SAPE  H19S 9063   3.060   5.011   5.574  0.3166  0.9165  1.6872
   92SAPE  C220 9064   2.859   5.082   5.589  0.0122 -0.2143  0.1322
   92SAPE  H20R 9065   2.823   5.035   5.495 -3.6516 -1.7908  2.2262
   92SAPE  H20S 9066   2.791   5.168   5.609 -2.4434 -2.6923  2.8180
   92SAPE  H20T 9067   2.841   5.012   5.674 -1.5483  1.1220  0.9426
   92SAPE   C33 9068   2.744   5.675   5.782 -0.3305  0.5391 -0.0688
   92SAPE   H3X 9069   2.785   5.778   5.794  1.1789  0.0725 -1.1738
   92SAPE   H3Y 9070   2.652   5.649   5.840 -0.5412 -1.5505 -1.3074
   92SAPE   C34 9071   2.717   5.680   5.633  0.4992 -1.0656  0.2030
   92SAPE   H4X 9072   2.626   5.742   5.618  0.5108 -0.7909  1.2650
   92SAPE   H4Y 9073   2.708   5.575   5.600  1.7971 -0.6068 -1.6997
   92SAPE   C35 9074   2.830   5.748   5.557  0.1440 -0.3967 -0.1284
   92SAPE   H5X 9075   2.928   5.698   5.570  1.5369  2.4223  0.7853
   92SAPE   H5Y 9076   2.853   5.846   5.605 -1.6812  0.6889 -1.3584
   92SAPE   C36 9077   2.796   5.769   5.414  0.2628 -0.3651  0.3939
   92SAPE   H6X 9078   2.703   5.828   5.400  0.5680  0.2927  1.1040
   92SAPE   H6Y 9079   2.766   5.669   5.378 -1.5073 -0.0971  1.1128
   92SAPE   C37 9080   2.907   5.834   5.330  0.7472 -0.0305  0.0278
   92SAPE   H7X 9081   3.005   5.785   5.349  2.0963  2.8991  0.7981
   92SAPE   H7Y 9082   2.921   5.942   5.351  2.0607 -0.1472 -0.2024
   92SAPE   C38 9083   2.888   5.835   5.176  0.7344 -0.2562 -0.0460
   92SAPE   H8X 9084   2.808   5.903   5.139  1.7250  0.6036 -0.6394
   92SAPE   H8Y 9085   2.843   5.736   5.154  0.5040 -0.0869 -0.3435
   92SAPE   C39 9086   3.013   5.844   5.090  1.1647  0.0931 -0.3533
   92SAPE   H9X 9087   2.975   5.834   4.986  0.8894 -0.4626 -0.1964
   92SAPE   H9Y 9088   3.075   5.756   5.117  0.8070  0.1821  0.7708
   92SAPE  C310 9089   3.105   5.965   5.112 -0.2418  0.3160 -0.3838
   92SAPE  H10X 9090   3.152   5.967   5.213  2.8381  0.9893 -1.7897
   92SAPE  H10Y 9091   3.042   6.056   5.113 -0.7546  0.0753 -4.3679
   92SAPE  C311 9092   3.220   5.964   5.012 -0.6715 -0.3863  0.3410
   92SAPE  H11X 9093   3.282   6.053   5.035  0.3322 -1.4827  2.0065
   92SAPE  H11Y 9094   3.171   5.975   4.913 -0.6629 -2.0443  0.1367
   92SAPE  C312 9095   3.312   5.839   5.024 -0.3275  0.0784  0.8427
   92SAPE  H12X 9096   3.254   5.747   5.000 -0.6951  0.1554  1.4359
   92SAPE  H12Y 9097   3.339   5.827   5.131 -1.3412  2.7238  1.4294
   92SAPE  C313 9098   3.439   5.842   4.934  0.3199 -0.2952 -0.7756
   92SAPE  H13X 9099   3.493   5.760   4.987 -0.2229  0.5448  1.1489
   92SAPE  H13Y 9100   3.494   5.937   4.951  0.0817  0.2841 -3.1311
   92SAPE  C314 9101   3.418   5.820   4.781  0.3030 -0.0874 -0.2254
   92SAPE  H14X 9102   3.375   5.913   4.737  2.4824 -0.3067 -2.9653
   92SAPE  H14Y 9103   3.356   5.732   4.754 -1.9506  1.8404 -1.5185
   92SAPE  C315 9104   3.563   5.796   4.734  0.9094  0.0029 -1.0597
   92SAPE  H15X 9105   3.626   5.742   4.808  1.1230 -2.0294 -2.6999
   92SAPE  H15Y 9106   3.618   5.892   4.741 -0.6691  0.8224  0.7854
   92SAPE  C316 9107   3.572   5.722   4.607 -0.4086  0.5549  0.7875
   92SAPE  H16X 9108   3.503   5.766   4.531 -0.4800  1.7520  1.5355
   92SAPE  H16Y 9109   3.529   5.622   4.627 -1.1148  0.4238 -1.1941
   92SAPE  C317 9110   3.710   5.715   4.542  0.2013  0.0300  0.1989
   92SAPE  H17X 9111   3.762   5.642   4.607 -0.6930 -0.0782  0.8058
   92SAPE  H17Y 9112   3.752   5.818   4.537 -1.9152  0.8466 -1.9839
   92SAPE  C318 9113   3.696   5.659   4.401  0.2636  0.2054 -0.6832
   92SAPE  H18X 9114   3.803   5.653   4.371  0.1625 -0.2738 -0.9477
   92SAPE  H18Y 9115   3.639   5.730   4.338  0.0172  1.6492  1.1305
   92SAPE  H18Z 9116   3.647   5.560   4.414  0.2666  0.0898 -1.5537
   93SAPE     N 9117   5.808   3.859   6.258  0.0986 -0.2982  0.2003
   93SAPE   HN1 9118   5.833   3.809   6.170 -2.5278 -2.4211  0.5718
   93SAPE   HN2 9119   5.748   3.939   6.233  2.2866  0.6390 -2.2478
   93SAPE   HN3 9120   5.896   3.903   6.290 -0.0971 -0.7793  1.4582
   93SAPE   C12 9121   5.759   3.774   6.371  0.1352 -0.0971 -0.0142
   93SAPE  H12A 9122   5.669   3.719   6.337  0.4413 -1.7731  1.7918
   93SAPE  H12B 9123   5.736   3.841   6.456  0.1171 -0.0906 -0.0245
   93SAPE   C11 9124   5.869   3.663   6.418  0.2538 -0.1233  0.4924
   93SAPE  H11A 9125   5.829   3.588   6.490  1.6973 -1.3844  0.0115
   93SAPE  H11B 9126   5.942   3.727   6.474 -0.4368 -1.2147  2.6831
   93SAPE     P 9127   5.894   3.467   6.246  0.2392 -0.1563  0.0940
   93SAPE   O13 9128   5.939   3.352   6.331 -0.2405 -0.2626 -1.0204
   93SAPE   O14 9129   5.747   3.480   6.234 -0.5932 -0.6304  0.2774
   93SAPE   O12 9130   5.945   3.612   6.309  0.4621 -0.2570 -0.2856
   93SAPE   O11 9131   5.969   3.468   6.111 -0.3799  0.0064 -0.3490
   93SAPE    C1 9132   6.109   3.493   6.114 -0.6728 -0.1984 -0.3446
   93SAPE    HA 9133   6.160   3.478   6.211 -0.2412 -0.3435 -0.5921
   93SAPE    HB 9134   6.159   3.427   6.040  0.7166 -1.6498  1.8675
   93SAPE    C2 9135   6.139   3.646   6.066 -0.5843  0.8580 -0.1800
   93SAPE    HS 9136   6.099   3.716   6.142  0.5009 -0.0385  1.2418
   93SAPE   O21 9137   6.096   3.671   5.932  0.6145  0.7547 -0.3337
   93SAPE   C21 9138   5.969   3.704   5.928  0.0451 -0.2231 -0.5258
   93SAPE   O22 9139   5.905   3.753   6.020  0.0302 -0.1285  0.2194
   93SAPE   C22 9140   5.915   3.674   5.780  0.0706 -0.4333 -0.3049
   93SAPE   H2R 9141   5.805   3.691   5.777  0.0449 -0.3202  0.9384
   93SAPE   H2S 9142   5.966   3.742   5.709  0.0902  1.0422  1.1010
   93SAPE    C3 9143   6.287   3.669   6.067  0.4326  0.1369  0.2219
   93SAPE    HX 9144   6.321   3.672   6.173 -1.1395  1.3505  0.7149
   93SAPE    HY 9145   6.323   3.764   6.021  0.5132  0.4929  1.0050
   93SAPE   O31 9146   6.363   3.566   6.008  0.0087 -0.1729 -0.0996
   93SAPE   C31 9147   6.399   3.599   5.883  1.0575 -0.1135  0.1969
   93SAPE   O32 9148   6.450   3.707   5.852 -0.9647  0.4889  0.1154
   93SAPE   C32 9149   6.405   3.476   5.791 -0.6461 -0.4155 -0.1630
   93SAPE   H2X 9150   6.309   3.423   5.812 -1.0240  0.7231  1.0427
   93SAPE   H2Y 9151   6.481   3.410   5.838  1.6109  1.6636 -0.8486
   93SAPE   C23 9152   5.941   3.536   5.744  0.1736 -0.0873 -0.1183
   93SAPE   H3R 9153   5.882   3.470   5.812  1.3023 -0.2270  0.7306
   93SAPE   H3S 9154   6.048   3.516   5.762  0.8299  1.3758 -2.1798
   93SAPE   C24 9155   5.900   3.501   5.606  0.9900 -0.2984 -0.4083
   93SAPE   H4R 9156   5.930   3.584   5.539  0.0108  0.2626 -0.1625
   93SAPE   H4S 9157   5.789   3.495   5.609  0.9219  0.5732 -0.9850
   93SAPE   C25 9158   5.965   3.373   5.554 -0.0552  1.1101 -1.5043
   93SAPE   H5R 9159   6.040   3.333   5.623 -0.5676 -0.2367 -1.7194
   93SAPE   C26 9160   5.944   3.314   5.436 -0.1129  0.2342 -0.1567
   93SAPE   H6R 9161   6.012   3.233   5.406  2.4316  0.4184  4.6332
   93SAPE   C27 9162   5.855   3.373   5.330  0.3813  0.1561 -0.7059
   93SAPE   H7R 9163   5.907   3.406   5.238 -1.0110  1.8719 -0.8869
   93SAPE   H7S 9164   5.813   3.472   5.358 -2.4725 -0.8820 -1.1067
   93SAPE   C28 9165   5.741   3.277   5.311  0.3120  0.8121 -0.4854
   93SAPE   H8R 9166   5.654   3.286   5.378 -0.9739  0.1808 -2.0196
   93SAPE   C29 9167   5.731   3.187   5.209 -0.8131  0.0365 -0.1606
   93SAPE   H9R 9168   5.635   3.137   5.192 -0.5337  0.1811 -2.3988
   93SAPE  C210 9169   5.834   3.169   5.095 -0.0872 -0.0480  0.2937
   93SAPE  H10R 9170   5.887   3.073   5.110  1.5059  0.5572 -1.3491
   93SAPE  H10S 9171   5.908   3.252   5.098 -1.7088  1.5363 -1.8208
   93SAPE  C211 9172   5.759   3.176   4.960  0.0968  0.5171  0.6979
   93SAPE  H11R 9173   5.686   3.258   4.956  0.5040  0.9826  2.3118
   93SAPE  C212 9174   5.779   3.105   4.851 -0.0847 -0.5310  1.0193
   93SAPE  H12R 9175   5.713   3.128   4.766  0.1463  0.7380  1.1656
   93SAPE  C213 9176   5.878   2.987   4.856  0.3693 -0.0258  0.4914
   93SAPE  H13R 9177   5.820   2.894   4.875 -1.1411  0.6812 -0.5378
   93SAPE  H13S 9178   5.947   2.998   4.942  0.7215  0.1947  0.1812
   93SAPE  C214 9179   5.944   2.976   4.723  0.3667 -0.9118  0.0899
   93SAPE  H14R 9180   5.961   3.073   4.674 -0.0519 -1.4795 -1.2036
   93SAPE  C215 9181   5.979   2.869   4.661  0.8695  0.3817  0.5187
   93SAPE  H15R 9182   6.037   2.876   4.568 -0.6470 -2.2595 -0.6787
   93SAPE  C216 9183   5.957   2.733   4.710 -0.7258  0.0494  0.1596
   93SAPE  H16R 9184   5.947   2.725   4.820 -1.4109  3.2200  0.3809
   93SAPE  H16S 9185   6.041   2.666   4.683 -1.7813 -1.1498 -0.2028
   93SAPE  C217 9186   5.827   2.681   4.639  0.3670  0.4066  0.2441
   93SAPE  H17R 9187   5.736   2.740   4.663  0.3156  0.8469 -0.9659
   93SAPE  H17S 9188   5.804   2.583   4.684  1.2614 -0.7962 -1.8525
   93SAPE  C218 9189   5.834   2.667   4.482  0.1946  0.4288 -0.0244
   93SAPE  H18R 9190   5.917   2.599   4.453 -1.4283 -0.5668 -2.4499
   93SAPE  H18S 9191   5.861   2.765   4.437  1.9074 -0.3589 -0.7661
   93SAPE  C219 9192   5.709   2.602   4.422 -0.2232 -0.3559  0.4757
   93SAPE  H19R 9193   5.625   2.660   4.465  0.4569 -0.9203  2.6050
   93SAPE  H19S 9194   5.704   2.494   4.446  0.8671 -1.0746 -2.3572
   93SAPE  C220 9195   5.695   2.631   4.266  0.4119  0.4236 -0.0800
   93SAPE  H20R 9196   5.789   2.598   4.215  0.1016  2.4236 -1.9658
   93SAPE  H20S 9197   5.690   2.740   4.247 -0.1371  0.8607  2.3730
   93SAPE  H20T 9198   5.611   2.582   4.213 -1.0696  1.3103  1.4230
   93SAPE   C33 9199   6.425   3.503   5.637 -0.1694  0.3991  0.3052
   93SAPE   H3X 9200   6.435   3.407   5.583 -2.2820  1.6455 -2.4641
   93SAPE   H3Y 9201   6.523   3.552   5.619 -0.4681  1.1899  0.7703
   93SAPE   C34 9202   6.313   3.584   5.589  0.3941 -0.2856 -0.4391
   93SAPE   H4X 9203   6.322   3.680   5.644  2.3250 -1.1468  0.8082
   93SAPE   H4Y 9204   6.219   3.534   5.623  0.9112  0.8867  2.8699
   93SAPE   C35 9205   6.320   3.593   5.438  0.2290 -0.4203  0.1450
   93SAPE   H5X 9206   6.280   3.505   5.384 -0.5826  0.8053 -1.3209
   93SAPE   H5Y 9207   6.427   3.609   5.410 -0.6182  0.1853 -2.9773
   93SAPE   C36 9208   6.251   3.715   5.378 -0.3661  0.4663 -0.3625
   93SAPE   H6X 9209   6.301   3.809   5.410  1.2373 -1.1610  2.0676
   93SAPE   H6Y 9210   6.151   3.728   5.424  0.4104 -2.2848  2.2765
   93SAPE   C37 9211   6.233   3.712   5.230  0.7776 -0.5259 -1.2748
   93SAPE   H7X 9212   6.184   3.804   5.191 -1.4536 -1.2847 -0.3534
   93SAPE   H7Y 9213   6.163   3.636   5.188  1.0620 -1.1687 -0.5988
   93SAPE   C38 9214   6.355   3.696   5.144 -0.0088 -0.4734  0.8260
   93SAPE   H8X 9215   6.417   3.610   5.174  0.9990 -0.1077 -0.1942
   93SAPE   H8Y 9216   6.406   3.794   5.157 -0.6239  0.2133 -1.6624
   93SAPE   C39 9217   6.319   3.677   4.996 -0.4920  0.4817  0.5495
   93SAPE   H9X 9218   6.235   3.740   4.960  0.3404  1.1073 -0.3554
   93SAPE   H9Y 9219   6.274   3.575   4.992  0.0729  0.1164  3.1130
   93SAPE  C310 9220   6.434   3.691   4.893  0.3384 -0.0487 -0.6410
   93SAPE  H10X 9221   6.509   3.616   4.926  0.3890  1.2241  2.3019
   93SAPE  H10Y 9222   6.474   3.794   4.900 -2.1555  0.9206 -0.2540
   93SAPE  C311 9223   6.382   3.658   4.755  0.7005 -0.3615 -0.4365
   93SAPE  H11X 9224   6.291   3.720   4.742  0.9969  0.3616  0.8610
   93SAPE  H11Y 9225   6.365   3.549   4.744  2.1318 -0.4223 -2.4409
   93SAPE  C312 9226   6.472   3.693   4.631 -0.0157 -0.3874 -0.6098
   93SAPE  H12X 9227   6.571   3.644   4.645 -0.6549 -0.9857  2.0861
   93SAPE  H12Y 9228   6.500   3.801   4.623  1.5214 -0.7674 -0.4742
   93SAPE  C313 9229   6.415   3.650   4.506  0.2795 -0.5323  0.4847
   93SAPE  H13X 9230   6.308   3.675   4.494  1.1625  1.3209 -5.0698
   93SAPE  H13Y 9231   6.410   3.539   4.497 -0.2331 -0.4639 -0.0753
   93SAPE  C314 9232   6.482   3.707   4.380  0.0329 -0.1700 -0.3098
   93SAPE  H14X 9233   6.590   3.723   4.404 -0.0264  0.6383 -0.5438
   93SAPE  H14Y 9234   6.437   3.805   4.351  1.4138  0.0621 -1.7828
   93SAPE  C315 9235   6.459   3.631   4.250 -0.0707 -0.8236 -0.0402
   93SAPE  H15X 9236   6.512   3.534   4.256  0.1969 -0.6377  0.6294
   93SAPE  H15Y 9237   6.497   3.684   4.160 -1.4641 -2.1247 -1.4243
   93SAPE  C316 9238   6.315   3.597   4.232  0.1947 -0.7445  1.1587
   93SAPE  H16X 9239   6.273   3.691   4.272  1.7322  0.0090  1.0522
   93SAPE  H16Y 9240   6.294   3.509   4.297  0.0256 -0.5846  1.3212
   93SAPE  C317 9241   6.273   3.555   4.083  0.2129  0.2271 -0.0380
   93SAPE  H17X 9242   6.293   3.649   4.027  1.6919 -0.2586 -0.3603
   93SAPE  H17Y 9243   6.165   3.537   4.101 -0.5269  3.9029 -0.4518
   93SAPE  C318 9244   6.341   3.433   4.022  0.1932  0.2198  0.3995
   93SAPE  H18X 9245   6.450   3.445   4.041  0.0909  0.8575  0.5871
   93SAPE  H18Y 9246   6.318   3.416   3.915  1.3507 -0.8066  0.3030
   93SAPE  H18Z 9247   6.319   3.343   4.083  3.9328  0.8387  2.8496
   94SAPE     N 9248   3.904   5.910   6.166  0.4588 -0.3077 -0.1243
   94SAPE   HN1 9249   3.822   5.973   6.172  1.7434  1.2530  1.8900
   94SAPE   HN2 9250   3.959   5.941   6.082 -0.0055  1.1902  0.1087
   94SAPE   HN3 9251   3.867   5.813   6.169  0.1819 -0.1941  0.1044
   94SAPE   C12 9252   3.987   5.921   6.291  0.4274 -0.5375 -0.1615
   94SAPE  H12A 9253   4.095   5.941   6.274  0.6956 -0.0584  1.9425
   94SAPE  H12B 9254   3.979   5.823   6.343 -1.2827  0.3350  1.3016
   94SAPE   C11 9255   3.930   6.032   6.383  0.6898 -0.6201 -0.1661
   94SAPE  H11A 9256   3.922   6.132   6.334 -2.3287 -1.1477 -0.8604
   94SAPE  H11B 9257   4.003   6.033   6.466  0.2840 -0.3324  0.1957
   94SAPE     P 9258   3.669   6.061   6.409  0.2005  0.0459  0.2317
   94SAPE   O13 9259   3.561   5.970   6.453 -0.2322 -0.4867  0.8118
   94SAPE   O14 9260   3.667   6.192   6.475  0.0941 -0.1433 -0.4839
   94SAPE   O12 9261   3.807   5.994   6.441  0.6010 -0.2613 -0.3451
   94SAPE   O11 9262   3.672   6.064   6.251 -0.4178  0.1714  0.0712
   94SAPE    C1 9263   3.605   6.160   6.183 -0.0142  0.6845  0.8965
   94SAPE    HA 9264   3.503   6.117   6.175 -0.4986  1.7647  1.1437
   94SAPE    HB 9265   3.592   6.257   6.236 -0.5777  0.8146  0.5248
   94SAPE    C2 9266   3.664   6.173   6.039 -1.4743  0.0298  0.0032
   94SAPE    HS 9267   3.597   6.233   5.974 -2.3723 -2.4521 -1.4783
   94SAPE   O21 9268   3.700   6.043   5.985  0.4279  0.2479  0.4200
   94SAPE   C21 9269   3.610   5.995   5.890 -0.2979 -0.0471 -0.3830
   94SAPE   O22 9270   3.520   6.057   5.846  0.8520  0.1008  1.1715
   94SAPE   C22 9271   3.631   5.845   5.856  1.2737 -0.4158  0.2440
   94SAPE   H2R 9272   3.718   5.802   5.912  0.6221  0.0055  1.6058
   94SAPE   H2S 9273   3.543   5.790   5.895 -0.8236  2.3643 -0.4706
   94SAPE    C3 9274   3.800   6.253   6.069 -0.7111  0.6188  0.6783
   94SAPE    HX 9275   3.859   6.187   6.137  1.5550  0.6600 -1.2099
   94SAPE    HY 9276   3.778   6.349   6.119 -1.1685  0.8273  0.0804
   94SAPE   O31 9277   3.863   6.282   5.942 -0.4230  0.0388  0.2701
   94SAPE   C31 9278   3.947   6.192   5.892  0.1745 -0.3715  0.0775
   94SAPE   O32 9279   3.993   6.095   5.951 -0.0276  0.2332  0.4339
   94SAPE   C32 9280   3.973   6.224   5.750  0.4067 -0.1879  0.9485
   94SAPE   H2X 9281   4.015   6.327   5.749  0.2365 -0.1131  1.5742
   94SAPE   H2Y 9282   3.877   6.233   5.694  1.0849 -4.5364 -1.0878
   94SAPE   C23 9283   3.644   5.815   5.707 -0.0622  0.0751  0.7970
   94SAPE   H3R 9284   3.714   5.880   5.652  0.5717 -0.2250  1.2483
   94SAPE   H3S 9285   3.541   5.820   5.663 -0.5111 -1.4685  1.6461
   94SAPE   C24 9286   3.704   5.674   5.697  0.3332  0.0211  0.1448
   94SAPE   H4R 9287   3.691   5.649   5.590 -0.2115  0.4704  0.1013
   94SAPE   H4S 9288   3.644   5.602   5.757 -0.3547 -1.1458 -1.9109
   94SAPE   C25 9289   3.854   5.656   5.740 -0.1865  0.3436 -0.5662
   94SAPE   H5R 9290   3.872   5.667   5.848  2.3456 -3.7123 -0.4621
   94SAPE   C26 9291   3.959   5.637   5.661 -0.1064 -0.4181  0.2327
   94SAPE   H6R 9292   4.057   5.630   5.710 -0.2677 -1.6202  0.4080
   94SAPE   C27 9293   3.958   5.625   5.513 -0.4727 -0.3544  1.1696
   94SAPE   H7R 9294   3.852   5.648   5.488  0.6503  1.0346 -2.7677
   94SAPE   H7S 9295   3.969   5.520   5.478 -2.1064  0.3270 -1.5784
   94SAPE   C28 9296   4.039   5.723   5.426 -0.1778 -0.2416  0.3630
   94SAPE   H8R 9297   4.051   5.827   5.460 -1.0373  0.4096 -1.2900
   94SAPE   C29 9298   4.102   5.689   5.315  0.1096 -0.8783 -0.3001
   94SAPE   H9R 9299   4.141   5.775   5.258 -2.0098  1.8442  2.2173
   94SAPE  C210 9300   4.108   5.563   5.236 -0.3687  0.1860 -0.0443
   94SAPE  H10R 9301   4.099   5.599   5.131  1.7439 -1.3935 -0.7911
   94SAPE  H10S 9302   4.026   5.492   5.257  0.3552 -0.3693  0.8902
   94SAPE  C211 9303   4.245   5.492   5.258 -0.0152  0.1740 -0.1709
   94SAPE  H11R 9304   4.246   5.437   5.353  0.3995  1.2490  0.4550
   94SAPE  C212 9305   4.347   5.482   5.170 -0.2880  0.0236  0.5090
   94SAPE  H12R 9306   4.440   5.432   5.203 -1.7115 -3.2289 -0.2181
   94SAPE  C213 9307   4.353   5.529   5.024 -0.8575  0.1520 -0.7333
   94SAPE  H13R 9308   4.261   5.587   5.003 -1.6100 -0.6009  0.4708
   94SAPE  H13S 9309   4.338   5.450   4.946 -2.3726  0.8453 -1.1613
   94SAPE  C214 9310   4.488   5.599   5.001  0.0799 -0.1171 -0.2323
   94SAPE  H14R 9311   4.577   5.536   5.013  1.8826  1.9838 -2.0900
   94SAPE  C215 9312   4.498   5.729   4.961 -0.0740  0.3738 -0.2388
   94SAPE  H15R 9313   4.599   5.770   4.950  1.3190 -2.5708  1.0944
   94SAPE  C216 9314   4.386   5.825   4.940  0.1028 -0.3166  0.4358
   94SAPE  H16R 9315   4.286   5.787   4.970  0.5273 -1.0992  0.8700
   94SAPE  H16S 9316   4.389   5.850   4.832 -0.6467  1.2348  0.7619
   94SAPE  C217 9317   4.416   5.955   5.011 -0.3463 -0.4776  0.4322
   94SAPE  H17R 9318   4.333   6.025   4.989 -2.1926 -2.8465 -0.4623
   94SAPE  H17S 9319   4.514   6.002   4.991 -0.8511  1.6935  2.7007
   94SAPE  C218 9320   4.424   5.938   5.159  0.4404  0.4465  0.2612
   94SAPE  H18R 9321   4.522   5.889   5.180  0.0708 -0.0437  0.8698
   94SAPE  H18S 9322   4.342   5.868   5.190 -0.4732  1.2434 -0.3406
   94SAPE  C219 9323   4.422   6.064   5.244 -0.4121  0.3106  0.5485
   94SAPE  H19R 9324   4.312   6.082   5.250 -0.2622  1.3213  0.3111
   94SAPE  H19S 9325   4.461   6.151   5.188  1.8175 -1.3112 -0.5083
   94SAPE  C220 9326   4.492   6.063   5.385 -0.2418 -0.2233 -0.6303
   94SAPE  H20R 9327   4.600   6.091   5.385 -0.7793  1.9124  0.4069
   94SAPE  H20S 9328   4.471   5.966   5.436  0.0960 -0.5182 -1.0456
   94SAPE  H20T 9329   4.444   6.136   5.453  0.5144 -0.6343  0.3670
   94SAPE   C33 9330   4.060   6.123   5.672 -0.2591 -0.5794 -0.4781
   94SAPE   H3X 9331   4.006   6.026   5.672 -1.1271 -0.1198  1.3480
   94SAPE   H3Y 9332   4.163   6.118   5.713 -0.6755  2.3551  1.0385
   94SAPE   C34 9333   4.075   6.158   5.521 -0.0632 -0.3446  0.4415
   94SAPE   H4X 9334   4.164   6.102   5.484 -0.1175  0.3506 -0.7649
   94SAPE   H4Y 9335   4.087   6.267   5.506 -1.1479 -0.0463  1.6496
   94SAPE   C35 9336   3.960   6.104   5.434 -0.3845 -0.5510  0.3417
   94SAPE   H5X 9337   3.867   6.164   5.430 -0.6593 -1.0720 -1.5598
   94SAPE   H5Y 9338   3.931   6.001   5.464  0.4603 -1.6939 -2.6133
   94SAPE   C36 9339   3.997   6.101   5.285 -0.5377  0.5549  0.2314
   94SAPE   H6X 9340   4.094   6.047   5.277 -0.9436 -0.3228  1.1149
   94SAPE   H6Y 9341   4.012   6.209   5.262 -0.7409  0.8745  1.5696
   94SAPE   C37 9342   3.903   6.031   5.194 -1.2206 -0.3713  0.2411
   94SAPE   H7X 9343   3.812   6.094   5.191 -0.2022  1.0507 -1.9866
   94SAPE   H7Y 9344   3.877   5.935   5.243  0.3129  0.1284  2.0689
   94SAPE   C38 9345   3.963   6.013   5.056  0.2650 -0.1146 -0.0672
   94SAPE   H8X 9346   4.058   5.956   5.056 -0.5724 -1.5446 -0.4170
   94SAPE   H8Y 9347   3.987   6.118   5.031  1.7809 -0.7979 -1.5047
   94SAPE   C39 9348   3.879   5.952   4.957 -0.4145  0.3451  0.1883
   94SAPE   H9X 9349   3.798   6.019   4.921 -0.0106 -0.0571 -1.4947
   94SAPE   H9Y 9350   3.836   5.860   5.003 -1.0173  0.7621  0.4719
   94SAPE  C310 9351   3.956   5.911   4.829 -0.9840  0.2594 -0.7830
   94SAPE  H10X 9352   3.909   5.821   4.783 -2.9748  0.8068  0.1203
   94SAPE  H10Y 9353   4.058   5.874   4.853  0.1874  1.5701 -3.5509
   94SAPE  C311 9354   3.973   6.025   4.728 -0.2925  0.0729 -1.0625
   94SAPE  H11X 9355   4.035   6.103   4.779  0.8201  0.2714 -2.6977
   94SAPE  H11Y 9356   3.877   6.063   4.687 -0.1528  0.7567 -0.7652
   94SAPE  C312 9357   4.063   5.977   4.617 -0.0322  0.4506 -0.1660
   94SAPE  H12X 9358   4.065   5.866   4.617  2.7203  0.4432 -1.7828
   94SAPE  H12Y 9359   4.169   6.007   4.631 -1.3847  3.6046  4.4035
   94SAPE  C313 9360   4.022   6.019   4.476 -0.5279 -0.4156 -0.6655
   94SAPE  H13X 9361   3.923   5.969   4.468  0.4328 -2.4253 -0.3543
   94SAPE  H13Y 9362   4.091   5.972   4.402 -0.4637  0.6543 -1.2918
   94SAPE  C314 9363   4.011   6.170   4.450  0.1074  0.0942  0.2064
   94SAPE  H14X 9364   4.106   6.220   4.480  0.3845 -0.3388  0.0479
   94SAPE  H14Y 9365   3.936   6.218   4.517  0.7670  0.5180  0.6476
   94SAPE  C315 9366   3.991   6.210   4.308  0.1612 -0.1786 -0.2334
   94SAPE  H15X 9367   3.899   6.155   4.278  0.1299 -1.3283  1.8763
   94SAPE  H15Y 9368   4.075   6.179   4.243 -0.2370  1.2608 -1.4622
   94SAPE  C316 9369   3.953   6.356   4.284  0.3349 -0.6466  0.0886
   94SAPE  H16X 9370   4.041   6.416   4.315 -0.6563  0.0785  1.5622
   94SAPE  H16Y 9371   3.872   6.393   4.351 -0.0858 -0.3173 -0.5915
   94SAPE  C317 9372   3.913   6.392   4.136  0.2420  0.6389 -0.5154
   94SAPE  H17X 9373   3.820   6.338   4.110  1.3938 -0.8625 -1.5941
   94SAPE  H17Y 9374   3.991   6.364   4.062  0.0649  1.3364 -0.9685
   94SAPE  C318 9375   3.867   6.539   4.121 -0.1293 -0.4794  0.2740
   94SAPE  H18X 9376   3.798   6.577   4.199  1.0997  3.0743 -0.2700
   94SAPE  H18Y 9377   3.822   6.555   4.021  0.4084 -0.6771 -0.0030
   94SAPE  H18Z 9378   3.961   6.597   4.113  0.5956 -1.4165  1.7372
   95SAPE     N 9379   0.644   3.709   6.123 -0.3539  0.5618 -0.1544
   95SAPE   HN1 9380   0.629   3.808   6.150 -0.5987  0.8761 -1.4330
   95SAPE   HN2 9381   0.562   3.673   6.070  0.7970  1.0072 -2.3059
   95SAPE   HN3 9382   0.654   3.652   6.210 -0.5932 -0.0092 -0.4939
   95SAPE   C12 9383   0.763   3.707   6.030  0.5981  0.6925  0.1813
   95SAPE  H12A 9384   0.724   3.746   5.934  0.9065  3.0720  0.9937
   95SAPE  H12B 9385   0.787   3.600   6.010 -0.2812  0.6354 -0.6133
   95SAPE   C11 9386   0.873   3.795   6.082 -0.0438  0.0155  0.4510
   95SAPE  H11A 9387   0.830   3.897   6.075 -1.9650 -0.8938 -1.8180
   95SAPE  H11B 9388   0.965   3.786   6.020  0.6643 -0.9618  1.6172
   95SAPE     P 9389   0.992   3.669   6.285 -0.2392  0.6886 -0.2678
   95SAPE   O13 9390   1.129   3.726   6.267  0.2557  0.3130 -0.0157
   95SAPE   O14 9391   0.954   3.635   6.419  0.1402 -0.3862  0.0884
   95SAPE   O12 9392   0.900   3.777   6.217 -0.0196  0.5566 -0.6354
   95SAPE   O11 9393   0.973   3.550   6.181  0.3506 -0.3943 -0.6715
   95SAPE    C1 9394   1.065   3.456   6.125 -0.0782  0.0605  0.3460
   95SAPE    HA 9395   1.138   3.419   6.201 -1.7195 -2.7369  0.6233
   95SAPE    HB 9396   1.001   3.367   6.106 -0.0531  0.3918 -1.3554
   95SAPE    C2 9397   1.128   3.515   5.995  0.5583 -0.1869 -0.4522
   95SAPE    HS 9398   1.161   3.615   6.030  1.4896 -0.6721  0.0976
   95SAPE   O21 9399   1.024   3.520   5.893 -0.5711  0.5361 -0.1233
   95SAPE   C21 9400   1.030   3.610   5.796  0.8187 -0.4990 -0.3482
   95SAPE   O22 9401   1.118   3.690   5.780  0.2737 -0.2921  0.3477
   95SAPE   C22 9402   0.903   3.598   5.706 -0.3005  0.2187 -0.3867
   95SAPE   H2R 9403   0.865   3.495   5.717  0.1212  0.1598  0.6427
   95SAPE   H2S 9404   0.834   3.676   5.744  0.5400 -0.2504  2.2377
   95SAPE    C3 9405   1.251   3.428   5.958 -0.2639 -0.2481  0.3627
   95SAPE    HX 9406   1.210   3.331   5.924  0.0009 -0.0417 -0.5683
   95SAPE    HY 9407   1.299   3.408   6.056 -0.0622  2.0195  0.7709
   95SAPE   O31 9408   1.345   3.497   5.871  0.5588 -0.8640  0.4733
   95SAPE   C31 9409   1.335   3.469   5.749 -0.4226 -0.0393  0.5230
   95SAPE   O32 9410   1.247   3.399   5.700 -0.2110  0.7113  0.3534
   95SAPE   C32 9411   1.450   3.540   5.668 -0.0122 -0.1108 -0.2043
   95SAPE   H2X 9412   1.498   3.620   5.728 -2.0328  0.0886  1.1725
   95SAPE   H2Y 9413   1.399   3.608   5.597 -0.2573 -0.0255  0.0567
   95SAPE   C23 9414   0.929   3.623   5.558  0.4176 -0.9707  0.4936
   95SAPE   H3R 9415   1.019   3.689   5.554 -0.5798  0.3783 -0.1872
   95SAPE   H3S 9416   0.846   3.677   5.506  0.0669  0.2888  2.3300
   95SAPE   C24 9417   0.966   3.499   5.467 -0.1398  0.4144  0.9444
   95SAPE   H4R 9418   0.871   3.441   5.467  0.2477 -0.2593 -0.3935
   95SAPE   H4S 9419   1.052   3.453   5.521  1.0767 -0.6791 -1.8077
   95SAPE   C25 9420   1.018   3.529   5.325  0.7769 -0.7125 -0.3824
   95SAPE   H5R 9421   1.100   3.601   5.335  0.2183 -0.3472  1.9252
   95SAPE   C26 9422   0.984   3.474   5.212 -0.3462 -0.2035 -0.2385
   95SAPE   H6R 9423   1.031   3.514   5.121  0.5497 -0.2368  0.2069
   95SAPE   C27 9424   0.885   3.359   5.193  0.3288  0.5236  0.3217
   95SAPE   H7R 9425   0.853   3.313   5.289  3.7713 -0.5059  1.0298
   95SAPE   H7S 9426   0.946   3.280   5.145  0.3174  0.6362  0.1212
   95SAPE   C28 9427   0.760   3.384   5.111 -0.2625 -0.0593  0.2795
   95SAPE   H8R 9428   0.715   3.482   5.133 -0.7047 -0.5399  1.5717
   95SAPE   C29 9429   0.699   3.310   5.019 -0.2396 -0.7748 -0.2776
   95SAPE   H9R 9430   0.606   3.350   4.976 -0.2492  0.6810  1.0652
   95SAPE  C210 9431   0.750   3.174   4.978 -0.2454  1.0364  0.3060
   95SAPE  H10R 9432   0.654   3.119   4.982  0.9985 -1.1636  0.3753
   95SAPE  H10S 9433   0.833   3.132   5.039 -0.3126  1.5885  0.7794
   95SAPE  C211 9434   0.796   3.170   4.837 -0.1190  0.0554 -0.6706
   95SAPE  H11R 9435   0.824   3.268   4.795 -0.8640  1.0526  1.1358
   95SAPE  C212 9436   0.805   3.065   4.748  0.2119 -0.4785  0.2546
   95SAPE  H12R 9437   0.853   3.078   4.650  2.3070  1.4237  1.4901
   95SAPE  C213 9438   0.757   2.927   4.776  0.2263  0.1378  0.0445
   95SAPE  H13R 9439   0.678   2.899   4.703 -0.1871  0.4313  0.3844
   95SAPE  H13S 9440   0.724   2.906   4.880  1.2017  0.9758  0.5310
   95SAPE  C214 9441   0.867   2.826   4.743 -1.1626  0.1562  0.0050
   95SAPE  H14R 9442   0.952   2.847   4.809 -0.1950  1.2966 -1.6061
   95SAPE  C215 9443   0.876   2.724   4.655 -0.4586 -0.7858  0.1617
   95SAPE  H15R 9444   0.974   2.674   4.648 -0.5407 -1.1414  1.4694
   95SAPE  C216 9445   0.780   2.680   4.545 -0.2126  0.1388 -0.3828
   95SAPE  H16R 9446   0.692   2.747   4.547 -0.1948  0.1745 -0.8717
   95SAPE  H16S 9447   0.736   2.581   4.570  0.9549  0.1501  1.9156
   95SAPE  C217 9448   0.838   2.666   4.405  0.2180 -0.1450 -0.3034
   95SAPE  H17R 9449   0.781   2.593   4.344  1.1102 -0.6423 -0.5495
   95SAPE  H17S 9450   0.936   2.616   4.414  1.4687  2.0586 -1.2285
   95SAPE  C218 9451   0.848   2.808   4.344 -0.3997 -0.0032  0.4018
   95SAPE  H18R 9452   0.917   2.876   4.397 -0.1267 -0.3136  0.4479
   95SAPE  H18S 9453   0.749   2.858   4.350 -1.1288 -1.5011  1.1732
   95SAPE  C219 9454   0.903   2.795   4.197 -0.7039  0.7594 -0.2519
   95SAPE  H19R 9455   0.825   2.734   4.147 -1.5726  2.6357 -1.2380
   95SAPE  H19S 9456   1.000   2.741   4.200 -0.3987  1.2369 -1.3418
   95SAPE  C220 9457   0.917   2.926   4.122  0.2055  0.4992  0.1867
   95SAPE  H20R 9458   1.006   2.981   4.161  1.3093 -1.5947  0.7208
   95SAPE  H20S 9459   0.821   2.980   4.134  0.6200  1.1817  0.4432
   95SAPE  H20T 9460   0.935   2.909   4.013  0.2100 -0.3108  0.3119
   95SAPE   C33 9461   1.551   3.450   5.587  0.4948  0.6395  0.1165
   95SAPE   H3X 9462   1.588   3.368   5.653 -0.0446  0.2533 -0.0476
   95SAPE   H3Y 9463   1.638   3.512   5.559 -0.8271  2.0127 -0.9933
   95SAPE   C34 9464   1.490   3.390   5.462 -0.4523  0.8182 -0.2902
   95SAPE   H4X 9465   1.403   3.322   5.477  0.0880  0.0367 -0.6327
   95SAPE   H4Y 9466   1.567   3.334   5.406 -0.8724 -0.2997  0.2285
   95SAPE   C35 9467   1.456   3.495   5.355 -0.1663  0.0099 -0.6723
   95SAPE   H5X 9468   1.557   3.531   5.324  0.9384 -1.4308  1.1052
   95SAPE   H5Y 9469   1.396   3.574   5.404 -3.2026 -1.5957 -1.6718
   95SAPE   C36 9470   1.388   3.444   5.228  0.6379 -1.0637  0.3859
   95SAPE   H6X 9471   1.295   3.388   5.249 -0.4649  0.3986 -0.5787
   95SAPE   H6Y 9472   1.462   3.372   5.185  0.3703 -1.5511  0.7385
   95SAPE   C37 9473   1.360   3.556   5.116 -0.9539  0.5111 -0.0775
   95SAPE   H7X 9474   1.460   3.592   5.083 -0.8085  0.7888  0.6483
   95SAPE   H7Y 9475   1.303   3.639   5.163 -0.7425  0.6438 -0.0554
   95SAPE   C38 9476   1.285   3.499   4.996 -0.3392  0.4743 -0.5943
   95SAPE   H8X 9477   1.199   3.435   5.024 -0.6678  1.1594 -0.0235
   95SAPE   H8Y 9478   1.342   3.432   4.928 -2.0260 -1.9902  0.3202
   95SAPE   C39 9479   1.225   3.607   4.902 -0.0036 -0.2720  0.0519
   95SAPE   H9X 9480   1.215   3.706   4.953  0.5491  0.2967 -0.9426
   95SAPE   H9Y 9481   1.119   3.591   4.871 -0.4664 -2.1711  2.4926
   95SAPE  C310 9482   1.300   3.642   4.777 -0.0398  1.1786 -0.0950
   95SAPE  H10X 9483   1.232   3.708   4.719 -2.3790 -0.7354  0.4063
   95SAPE  H10Y 9484   1.318   3.551   4.716 -1.4672  1.9390 -1.6763
   95SAPE  C311 9485   1.443   3.698   4.796 -0.1552 -0.0826  0.1893
   95SAPE  H11X 9486   1.503   3.623   4.852  0.0963 -1.1350 -1.4511
   95SAPE  H11Y 9487   1.451   3.790   4.858  0.6823  0.1679 -0.2808
   95SAPE  C312 9488   1.517   3.711   4.667  0.6282  0.2670  1.2246
   95SAPE  H12X 9489   1.535   3.606   4.632  1.8118  0.9033 -0.1428
   95SAPE  H12Y 9490   1.621   3.744   4.685  0.9506  0.8293 -1.4891
   95SAPE  C313 9491   1.451   3.799   4.553  0.4302 -0.3504 -0.1586
   95SAPE  H13X 9492   1.456   3.905   4.584  2.0704  0.2141 -2.2117
   95SAPE  H13Y 9493   1.350   3.759   4.528  0.6658 -1.3303  0.4381
   95SAPE  C314 9494   1.525   3.798   4.421 -0.0100  0.5942  0.2429
   95SAPE  H14X 9495   1.522   3.692   4.390 -2.9118  0.5001  0.6609
   95SAPE  H14Y 9496   1.632   3.818   4.440 -0.2406  2.6265 -0.4513
   95SAPE  C315 9497   1.462   3.876   4.302  0.3373 -0.0748 -0.0173
   95SAPE  H15X 9498   1.533   3.885   4.218 -1.2455 -1.1584 -1.4993
   95SAPE  H15Y 9499   1.436   3.980   4.330  0.5268  0.2402 -0.9993
   95SAPE  C316 9500   1.336   3.815   4.228  0.3831 -0.0132 -0.4670
   95SAPE  H16X 9501   1.259   3.800   4.306  0.0689  1.0417 -0.5682
   95SAPE  H16Y 9502   1.374   3.717   4.192 -0.0772  0.6074 -2.7474
   95SAPE  C317 9503   1.288   3.894   4.105 -0.0621 -0.1905  0.1437
   95SAPE  H17X 9504   1.375   3.893   4.036  0.2349 -0.3529  0.5146
   95SAPE  H17Y 9505   1.262   3.997   4.138 -1.7926  0.5538 -3.3196
   95SAPE  C318 9506   1.173   3.829   4.037  0.6231 -0.5788  0.8895
   95SAPE  H18X 9507   1.141   3.892   3.951 -1.2223 -0.1115  1.8917
   95SAPE  H18Y 9508   1.077   3.825   4.093 -0.3240  0.2498 -0.6319
   95SAPE  H18Z 9509   1.194   3.726   4.003  1.6189 -0.3186  0.7071
   96SAPE     N 9510   3.514   6.241   6.683 -0.4658 -0.0824 -0.2893
   96SAPE   HN1 9511   3.573   6.228   6.598  0.6319  1.2381  0.2561
   96SAPE   HN2 9512   3.571   6.225   6.768 -0.3100  1.4180 -0.0933
   96SAPE   HN3 9513   3.440   6.168   6.681 -1.7315  1.1994 -2.3289
   96SAPE   C12 9514   3.467   6.380   6.678  0.8017  0.4546  0.1893
   96SAPE  H12A 9515   3.547   6.438   6.729  1.8896 -0.2301 -0.6972
   96SAPE  H12B 9516   3.365   6.386   6.720 -0.9744  2.8725 -4.1801
   96SAPE   C11 9517   3.465   6.418   6.528 -0.0007 -0.3464 -0.2400
   96SAPE  H11A 9518   3.421   6.335   6.469 -0.7103  0.4624 -0.8620
   96SAPE  H11B 9519   3.570   6.425   6.493  0.2046  0.8021  0.5625
   96SAPE     P 9520   3.371   6.602   6.369  0.5478 -0.3649  0.1371
   96SAPE   O13 9521   3.258   6.694   6.392 -0.2006  0.0941  0.2663
   96SAPE   O14 9522   3.492   6.666   6.321  0.0275 -0.2259  0.4640
   96SAPE   O12 9523   3.391   6.541   6.508  0.1060  0.4102 -0.0004
   96SAPE   O11 9524   3.326   6.478   6.282 -0.3442  0.6268  0.4061
   96SAPE    C1 9525   3.234   6.484   6.175 -0.2893 -0.5300 -0.0903
   96SAPE    HA 9526   3.198   6.382   6.149  0.6828 -0.5771 -1.2734
   96SAPE    HB 9527   3.149   6.551   6.199 -1.4838 -1.5295 -1.4514
   96SAPE    C2 9528   3.307   6.527   6.048  0.2927 -0.8729  0.4075
   96SAPE    HS 9529   3.345   6.630   6.060 -0.9672 -0.3609  0.1115
   96SAPE   O21 9530   3.221   6.505   5.935  0.8692 -0.1250  0.7351
   96SAPE   C21 9531   3.169   6.614   5.879 -0.1570  0.2185  0.1498
   96SAPE   O22 9532   3.159   6.721   5.939 -0.6483 -0.4445 -0.4513
   96SAPE   C22 9533   3.092   6.576   5.756 -0.2518 -0.4145  0.5765
   96SAPE   H2R 9534   3.003   6.519   5.788 -1.0670 -0.0669 -1.0297
   96SAPE   H2S 9535   3.056   6.668   5.705  1.7816  0.4684  0.6858
   96SAPE    C3 9536   3.427   6.431   6.025  0.0123  0.0325 -0.1772
   96SAPE    HX 9537   3.382   6.332   6.047 -2.1717  1.1538  0.4972
   96SAPE    HY 9538   3.507   6.456   6.097  0.6789  1.5016 -1.4092
   96SAPE   O31 9539   3.473   6.422   5.887 -0.0417 -0.6721  0.2294
   96SAPE   C31 9540   3.575   6.502   5.845  0.5564  0.0350 -0.2376
   96SAPE   O32 9541   3.645   6.572   5.915  0.1428 -0.3629 -0.0382
   96SAPE   C32 9542   3.601   6.473   5.698 -0.2426  0.4381 -0.2664
   96SAPE   H2X 9543   3.511   6.448   5.638  0.3134  0.5475 -1.1652
   96SAPE   H2Y 9544   3.656   6.377   5.689 -0.1973  0.5448 -1.1724
   96SAPE   C23 9545   3.192   6.510   5.654  0.5608 -0.3751 -0.5197
   96SAPE   H3R 9546   3.133   6.459   5.575  1.4552 -1.9535 -0.1847
   96SAPE   H3S 9547   3.251   6.425   5.694  0.1040  0.7127  2.6557
   96SAPE   C24 9548   3.298   6.606   5.584  0.2591  0.6940 -0.7380
   96SAPE   H4R 9549   3.369   6.538   5.533 -0.5785  0.5901 -1.7863
   96SAPE   H4S 9550   3.358   6.659   5.662 -0.4706  0.1773  0.1810
   96SAPE   C25 9551   3.238   6.698   5.489 -0.1938  0.3893  0.2155
   96SAPE   H5R 9552   3.204   6.798   5.520  0.6042  0.7384 -0.0117
   96SAPE   C26 9553   3.251   6.676   5.360 -0.1412  0.4081 -0.8235
   96SAPE   H6R 9554   3.198   6.749   5.297 -0.3982  1.2828  0.3897
   96SAPE   C27 9555   3.323   6.561   5.281 -0.3081 -0.4455 -0.4452
   96SAPE   H7R 9556   3.250   6.481   5.259  1.6412 -2.3615 -0.0872
   96SAPE   H7S 9557   3.406   6.508   5.331  0.9684  0.2743 -1.7737
   96SAPE   C28 9558   3.358   6.609   5.140  0.0394  0.6013  0.3109
   96SAPE   H8R 9559   3.440   6.682   5.141 -2.0851  3.0571  1.2098
   96SAPE   C29 9560   3.314   6.562   5.019  0.1700 -1.2746 -0.4475
   96SAPE   H9R 9561   3.369   6.597   4.930  0.2227 -1.1782 -0.3765
   96SAPE  C210 9562   3.225   6.443   4.991 -0.2525  0.2925  0.2174
   96SAPE  H10R 9563   3.137   6.485   4.936  1.1717 -0.2661 -2.5842
   96SAPE  H10S 9564   3.189   6.390   5.081  0.2345  1.8122  1.3314
   96SAPE  C211 9565   3.290   6.327   4.915  0.4597 -0.8252 -0.2707
   96SAPE  H11R 9566   3.383   6.286   4.956  0.5740 -0.5025 -0.2014
   96SAPE  C212 9567   3.250   6.279   4.797 -0.2413  0.2165  0.0261
   96SAPE  H12R 9568   3.311   6.204   4.745  1.2594 -1.0484  3.4311
   96SAPE  C213 9569   3.137   6.330   4.710  0.8263  0.6623 -0.3811
   96SAPE  H13R 9570   3.105   6.430   4.748  0.0625  0.1882  0.2411
   96SAPE  H13S 9571   3.046   6.274   4.740  1.6138 -0.2872  0.2441
   96SAPE  C214 9572   3.165   6.343   4.564  0.1172  0.0862  0.0677
   96SAPE  H14R 9573   3.244   6.413   4.532 -0.4120  1.0972  0.9388
   96SAPE  C215 9574   3.109   6.258   4.476  0.0922  0.0517  0.0445
   96SAPE  H15R 9575   3.141   6.257   4.371  0.1838 -1.7219  0.0737
   96SAPE  C216 9576   3.015   6.140   4.498  0.4421 -0.6898  0.5975
   96SAPE  H16R 9577   2.922   6.149   4.438  1.2123  1.5455 -0.3168
   96SAPE  H16S 9578   2.978   6.144   4.602 -2.5722  1.3925 -0.4841
   96SAPE  C217 9579   3.086   6.010   4.485 -0.2055  1.3115  0.0928
   96SAPE  H17R 9580   3.007   5.940   4.519  0.8417  1.4785  2.9794
   96SAPE  H17S 9581   3.173   6.006   4.554  1.7600  2.3399 -2.2531
   96SAPE  C218 9582   3.149   5.973   4.348 -0.2929 -0.1421 -0.5020
   96SAPE  H18R 9583   3.228   6.047   4.324 -0.6096  0.3087 -0.1329
   96SAPE  H18S 9584   3.078   5.972   4.263  0.9400 -0.7510 -1.5547
   96SAPE  C219 9585   3.189   5.824   4.337 -0.0198 -0.0113  0.1368
   96SAPE  H19R 9586   3.100   5.768   4.373 -0.4320  1.4802  1.5176
   96SAPE  H19S 9587   3.270   5.805   4.411  1.4154 -1.7269 -1.7993
   96SAPE  C220 9588   3.231   5.771   4.194  0.2901 -0.6471  0.2765
   96SAPE  H20R 9589   3.312   5.834   4.152  0.1414 -2.7418 -3.3059
   96SAPE  H20S 9590   3.137   5.794   4.140  1.2337  3.1635  0.0677
   96SAPE  H20T 9591   3.240   5.661   4.190 -0.0946 -0.6851  0.3918
   96SAPE   C33 9592   3.695   6.586   5.637  0.2378  0.3411 -0.1297
   96SAPE   H3X 9593   3.772   6.616   5.711  1.3957 -1.4938 -0.5464
   96SAPE   H3Y 9594   3.627   6.671   5.619  0.3225  0.7144  1.2633
   96SAPE   C34 9595   3.774   6.556   5.509  0.4334  0.2498  0.2650
   96SAPE   H4X 9596   3.872   6.503   5.515  0.6829  0.7091  0.3155
   96SAPE   H4Y 9597   3.810   6.654   5.470 -1.5761  1.1454  0.6021
   96SAPE   C35 9598   3.696   6.484   5.401 -0.2453  0.5579 -0.0764
   96SAPE   H5X 9599   3.598   6.537   5.392 -0.3829  0.0996 -1.5112
   96SAPE   H5Y 9600   3.663   6.384   5.435  2.4020 -0.2233  0.2990
   96SAPE   C36 9601   3.773   6.457   5.269  0.1588 -0.0915 -0.6993
   96SAPE   H6X 9602   3.831   6.364   5.291  0.5536  0.4334  0.4974
   96SAPE   H6Y 9603   3.845   6.541   5.259  1.8602 -1.0910  2.3310
   96SAPE   C37 9604   3.679   6.431   5.149  0.6100 -0.4589 -0.5888
   96SAPE   H7X 9605   3.596   6.504   5.141 -0.6449 -1.6109  1.7048
   96SAPE   H7Y 9606   3.628   6.338   5.180 -1.0577  0.5247 -0.3194
   96SAPE   C38 9607   3.757   6.410   5.014 -0.3956  0.4162  1.4028
   96SAPE   H8X 9608   3.796   6.306   5.009 -0.7233  0.3443 -0.0419
   96SAPE   H8Y 9609   3.844   6.479   5.008  1.4718 -1.8748  1.6925
   96SAPE   C39 9610   3.663   6.438   4.896 -0.2660 -0.8468 -0.3826
   96SAPE   H9X 9611   3.648   6.548   4.891  1.5057 -0.5168  0.9917
   96SAPE   H9Y 9612   3.567   6.386   4.915 -0.4140  0.4210  2.6051
   96SAPE  C310 9613   3.712   6.393   4.757 -0.0035  0.6265 -0.4694
   96SAPE  H10X 9614   3.709   6.282   4.758 -0.1068  0.6296 -0.3813
   96SAPE  H10Y 9615   3.816   6.424   4.735  0.3148 -0.0141  0.1101
   96SAPE  C311 9616   3.618   6.436   4.645 -0.3829  0.1655  0.1236
   96SAPE  H11X 9617   3.652   6.539   4.620 -0.9738 -0.2296 -2.4534
   96SAPE  H11Y 9618   3.515   6.443   4.686 -0.7836  0.3780 -0.9022
   96SAPE  C312 9619   3.639   6.344   4.527  0.5168  0.3990  0.2804
   96SAPE  H12X 9620   3.744   6.317   4.503  0.8914  0.9035  1.3116
   96SAPE  H12Y 9621   3.609   6.399   4.435 -0.3172 -1.0225 -0.3012
   96SAPE  C313 9622   3.550   6.216   4.540 -0.1176 -0.7860  0.3374
   96SAPE  H13X 9623   3.444   6.244   4.520  0.7976  1.8642 -1.0773
   96SAPE  H13Y 9624   3.553   6.188   4.648  1.7940 -0.8411  0.2907
   96SAPE  C314 9625   3.580   6.097   4.449 -0.0486 -0.2683 -0.4069
   96SAPE  H14X 9626   3.514   6.010   4.468 -0.2668  0.1114  0.6091
   96SAPE  H14Y 9627   3.683   6.057   4.462 -0.4930 -0.9852  1.0052
   96SAPE  C315 9628   3.560   6.131   4.298  0.0926  0.0045  0.4450
   96SAPE  H15X 9629   3.604   6.229   4.268 -2.9288  1.0309 -0.8224
   96SAPE  H15Y 9630   3.451   6.151   4.295  0.4582  2.3320  1.5285
   96SAPE  C316 9631   3.612   6.028   4.201  1.0036  0.1019 -0.2054
   96SAPE  H16X 9632   3.559   5.936   4.234  1.5530  0.0215  0.4752
   96SAPE  H16Y 9633   3.723   6.018   4.209  1.2274  1.3581 -1.4383
   96SAPE  C317 9634   3.563   6.058   4.057 -0.3031 -0.3703  0.1561
   96SAPE  H17X 9635   3.642   6.123   4.015  0.3603  1.4118  3.9936
   96SAPE  H17Y 9636   3.465   6.110   4.048 -0.6652 -1.1762 -0.7289
   96SAPE  C318 9637   3.550   5.927   3.967  0.1855 -0.2327 -0.3382
   96SAPE  H18X 9638   3.633   5.853   3.972 -1.5760 -2.1538  2.7160
   96SAPE  H18Y 9639   3.547   5.952   3.859  0.3073 -1.3717 -0.6210
   96SAPE  H18Z 9640   3.466   5.865   4.006  0.3001 -0.0732  0.1629
   97SAPE     N 9641   6.975   2.685   6.134  0.5677 -0.6428 -0.1919
   97SAPE   HN1 9642   7.035   2.768   6.119  0.1001  0.1960  2.3585
   97SAPE   HN2 9643   7.019   2.591   6.142  1.3569 -0.1583  1.3409
   97SAPE   HN3 9644   6.905   2.691   6.057 -1.8304  1.3478  2.0412
   97SAPE   C12 9645   6.907   2.698   6.267 -0.2737  0.7784 -0.3145
   97SAPE  H12A 9646   6.984   2.676   6.344  0.0719 -1.8825 -1.3891
   97SAPE  H12B 9647   6.827   2.621   6.276  1.2944 -0.8123  0.3547
   97SAPE   C11 9648   6.859   2.839   6.285 -0.1042 -0.2930  0.0508
   97SAPE  H11A 9649   6.934   2.913   6.249 -0.5609  0.1674  0.0415
   97SAPE  H11B 9650   6.843   2.850   6.394 -0.8911 -1.1119  0.0277
   97SAPE     P 9651   6.609   2.912   6.233 -0.2813 -0.1258 -0.0636
   97SAPE   O13 9652   6.555   2.843   6.359 -0.0303 -0.0602 -0.0083
   97SAPE   O14 9653   6.614   3.057   6.227  0.4448  0.4770  0.6522
   97SAPE   O12 9654   6.750   2.861   6.204 -0.0129 -0.1473 -0.3267
   97SAPE   O11 9655   6.534   2.852   6.108 -0.3885 -0.2383 -0.0409
   97SAPE    C1 9656   6.565   2.715   6.066 -0.5028  0.4981 -0.1892
   97SAPE    HA 9657   6.666   2.679   6.095 -1.2847  0.0234  2.0651
   97SAPE    HB 9658   6.495   2.647   6.119  0.4398  1.3458  2.2389
   97SAPE    C2 9659   6.539   2.711   5.917 -0.4199  0.1035 -0.4372
   97SAPE    HS 9660   6.585   2.618   5.878 -1.7445  0.2454 -2.3716
   97SAPE   O21 9661   6.606   2.822   5.857  0.2519 -0.2345 -0.1235
   97SAPE   C21 9662   6.739   2.832   5.869 -0.0850  0.0696  0.0507
   97SAPE   O22 9663   6.813   2.740   5.906 -0.7049 -0.0200  0.0464
   97SAPE   C22 9664   6.794   2.969   5.827 -0.2988 -0.3947 -0.4405
   97SAPE   H2R 9665   6.710   3.042   5.830 -0.7956 -1.0023  0.6509
   97SAPE   H2S 9666   6.868   3.000   5.904 -0.5995  2.5379 -1.2573
   97SAPE    C3 9667   6.395   2.721   5.876 -0.0463 -0.1682 -0.2670
   97SAPE    HX 9668   6.357   2.826   5.884  0.0922  0.0590 -2.5009
   97SAPE    HY 9669   6.334   2.668   5.952 -0.5737  2.0968  0.9533
   97SAPE   O31 9670   6.377   2.666   5.744  0.2741 -0.2640  0.1928
   97SAPE   C31 9671   6.358   2.752   5.649 -0.4080  0.6342 -0.1632
   97SAPE   O32 9672   6.363   2.873   5.656 -0.2034 -0.4005 -0.2949
   97SAPE   C32 9673   6.321   2.673   5.521 -0.0274 -0.3530 -0.6076
   97SAPE   H2X 9674   6.233   2.609   5.545 -0.4590  0.8812  1.2510
   97SAPE   H2Y 9675   6.402   2.600   5.498  1.5701  0.9920  0.6204
   97SAPE   C23 9676   6.868   2.973   5.688 -0.1452  0.3213 -0.2229
   97SAPE   H3R 9677   6.944   2.894   5.707 -0.3665  0.5109  1.5293
   97SAPE   H3S 9678   6.910   3.071   5.659 -0.2092  0.6555  0.7902
   97SAPE   C24 9679   6.776   2.945   5.570 -0.1869  0.1478 -0.3364
   97SAPE   H4R 9680   6.753   2.836   5.564  0.8940 -0.0617 -0.7208
   97SAPE   H4S 9681   6.845   2.975   5.488  1.1392  1.4159  1.2062
   97SAPE   C25 9682   6.647   3.024   5.571 -0.6835 -0.5789  0.1274
   97SAPE   H5R 9683   6.558   2.989   5.626 -0.9476  1.3140  0.9715
   97SAPE   C26 9684   6.621   3.142   5.510 -0.6957 -0.0072 -1.1344
   97SAPE   H6R 9685   6.528   3.194   5.539  0.2383  0.3386  1.2876
   97SAPE   C27 9686   6.726   3.223   5.441  0.0058  0.5509  0.4393
   97SAPE   H7R 9687   6.763   3.165   5.353 -1.6674  0.8359 -0.4807
   97SAPE   H7S 9688   6.806   3.244   5.515  0.7627  1.9367 -0.7709
   97SAPE   C28 9689   6.678   3.361   5.399 -0.1982  0.0597 -0.2323
   97SAPE   H8R 9690   6.693   3.444   5.470 -0.1314 -0.0371 -0.1313
   97SAPE   C29 9691   6.589   3.377   5.296 -0.8004 -0.2135  0.4223
   97SAPE   H9R 9692   6.558   3.481   5.278  2.3745  0.9566  1.5257
   97SAPE  C210 9693   6.523   3.272   5.211  0.6328 -0.9208 -0.1484
   97SAPE  H10R 9694   6.590   3.184   5.200  0.6543 -0.8022 -1.0041
   97SAPE  H10S 9695   6.527   3.316   5.109 -0.9781  0.2429  0.2591
   97SAPE  C211 9696   6.384   3.234   5.255 -0.1146 -0.1224 -0.1682
   97SAPE  H11R 9697   6.384   3.187   5.354 -0.4644 -0.7934 -0.4889
   97SAPE  C212 9698   6.265   3.228   5.189 -0.0049  0.1407  0.2922
   97SAPE  H12R 9699   6.176   3.189   5.242  0.0832 -0.6718 -0.1545
   97SAPE  C213 9700   6.245   3.270   5.046 -0.5493  0.1384  0.2251
   97SAPE  H13R 9701   6.317   3.343   5.003  1.6692 -1.9104  0.3971
   97SAPE  H13S 9702   6.148   3.325   5.048  0.5744  2.1515  1.1903
   97SAPE  C214 9703   6.232   3.159   4.949 -0.1703  0.6300  0.3135
   97SAPE  H14R 9704   6.141   3.098   4.961  0.2259 -0.2150 -0.8457
   97SAPE  C215 9705   6.305   3.123   4.840  1.0543  0.4057  0.3798
   97SAPE  H15R 9706   6.246   3.056   4.776  1.1822 -0.5256  1.2177
   97SAPE  C216 9707   6.428   3.187   4.781 -0.2237  0.0829  0.2618
   97SAPE  H16R 9708   6.506   3.112   4.756  0.2084  0.7065 -0.2656
   97SAPE  H16S 9709   6.471   3.264   4.848  0.3570 -1.3704  1.6009
   97SAPE  C217 9710   6.405   3.256   4.639 -0.1772  0.0748 -0.4698
   97SAPE  H17R 9711   6.500   3.303   4.608  0.0919  0.7482  1.3062
   97SAPE  H17S 9712   6.335   3.342   4.640 -0.4472 -0.1463  1.2065
   97SAPE  C218 9713   6.347   3.162   4.535  0.0099  0.5433 -0.4316
   97SAPE  H18R 9714   6.241   3.143   4.562 -0.4255  2.5375 -0.6673
   97SAPE  H18S 9715   6.409   3.070   4.532  0.7545  0.9639  1.5569
   97SAPE  C219 9716   6.358   3.228   4.395  0.0319  0.1928  0.6243
   97SAPE  H19R 9717   6.318   3.331   4.406 -0.6900  0.1481 -1.3621
   97SAPE  H19S 9718   6.286   3.184   4.323 -0.8549 -0.0093  1.6118
   97SAPE  C220 9719   6.496   3.214   4.334 -0.7972 -0.6188  0.1703
   97SAPE  H20R 9720   6.564   3.278   4.395 -1.1821  2.2602 -2.3214
   97SAPE  H20S 9721   6.489   3.247   4.229 -0.8354  2.2259  1.0151
   97SAPE  H20T 9722   6.530   3.108   4.335  3.2032  0.5778 -0.5311
   97SAPE   C33 9723   6.304   2.748   5.390  0.2204 -0.1366  0.2810
   97SAPE   H3X 9724   6.230   2.831   5.391  0.9337  0.5964 -2.3990
   97SAPE   H3Y 9725   6.259   2.670   5.324  1.2687  0.4840 -1.1831
   97SAPE   C34 9726   6.429   2.796   5.327  0.1827  0.1362 -0.3856
   97SAPE   H4X 9727   6.513   2.726   5.344  1.5031  1.8022  0.1089
   97SAPE   H4Y 9728   6.459   2.886   5.385 -0.6563 -1.2803  2.3285
   97SAPE   C35 9729   6.423   2.832   5.180  0.5131 -0.4698  0.1284
   97SAPE   H5X 9730   6.509   2.897   5.152  1.6612 -2.8424 -2.1402
   97SAPE   H5Y 9731   6.327   2.882   5.154  0.8754 -0.3036 -0.8938
   97SAPE   C36 9732   6.444   2.716   5.079  0.6786  0.0117  0.7317
   97SAPE   H6X 9733   6.393   2.622   5.109  0.2475  0.1598  0.4779
   97SAPE   H6Y 9734   6.550   2.684   5.067  1.2866  2.4186 -0.4746
   97SAPE   C37 9735   6.394   2.748   4.939 -0.0873 -0.3295  0.3722
   97SAPE   H7X 9736   6.435   2.842   4.899 -0.4229 -0.1528  0.4365
   97SAPE   H7Y 9737   6.285   2.769   4.947 -0.3047 -1.7993  1.8094
   97SAPE   C38 9738   6.431   2.651   4.831  0.2692 -0.4433  0.4215
   97SAPE   H8X 9739   6.421   2.547   4.869 -0.2285  0.1597  1.9768
   97SAPE   H8Y 9740   6.539   2.664   4.812  0.4970  0.3536  2.1368
   97SAPE   C39 9741   6.344   2.651   4.708  0.2810 -0.3191  0.7641
   97SAPE   H9X 9742   6.237   2.668   4.729  0.5508  1.5770  0.6992
   97SAPE   H9Y 9743   6.359   2.546   4.676  1.8161  0.9553 -3.0839
   97SAPE  C310 9744   6.401   2.727   4.584  0.7409  0.2944  0.1469
   97SAPE  H10X 9745   6.504   2.697   4.554 -0.0426 -0.9454 -1.3714
   97SAPE  H10Y 9746   6.395   2.837   4.600 -0.9807  0.2515 -0.0576
   97SAPE  C311 9747   6.308   2.694   4.458 -0.7906 -0.6089 -0.2862
   97SAPE  H11X 9748   6.203   2.720   4.480 -0.8674 -0.6492 -0.5923
   97SAPE  H11Y 9749   6.323   2.586   4.439 -0.2038 -0.6619  0.4844
   97SAPE  C312 9750   6.337   2.779   4.335  0.0856 -0.2194  0.8664
   97SAPE  H12X 9751   6.432   2.748   4.286 -1.3466 -1.8156 -1.0007
   97SAPE  H12Y 9752   6.346   2.887   4.358 -0.5758  0.1502 -0.5724
   97SAPE  C313 9753   6.216   2.777   4.238  0.1776  0.1167 -0.1838
   97SAPE  H13X 9754   6.131   2.823   4.293  1.4432  0.9499  1.1023
   97SAPE  H13Y 9755   6.181   2.677   4.204 -2.0133  0.3104  1.3970
   97SAPE  C314 9756   6.252   2.862   4.110 -0.4784 -0.1222 -0.0334
   97SAPE  H14X 9757   6.327   2.810   4.046 -0.2659 -1.1605  1.0317
   97SAPE  H14Y 9758   6.302   2.957   4.139  0.2705 -0.1831 -1.0739
   97SAPE  C315 9759   6.128   2.897   4.027 -0.2174  0.2530  0.4844
   97SAPE  H15X 9760   6.036   2.911   4.087  0.2858  0.2030  1.2705
   97SAPE  H15Y 9761   6.101   2.807   3.968 -0.3032 -0.2338  1.2646
   97SAPE  C316 9762   6.145   3.017   3.933  0.8450 -0.2499  0.5034
   97SAPE  H16X 9763   6.234   3.012   3.867 -0.2454  2.0097 -1.2087
   97SAPE  H16Y 9764   6.151   3.106   3.999  2.9697 -1.4874  2.0483
   97SAPE  C317 9765   6.023   3.040   3.836  0.2799 -0.4535 -0.3149
   97SAPE  H17X 9766   6.017   2.945   3.778  1.9702  0.6709 -2.4314
   97SAPE  H17Y 9767   6.039   3.129   3.771 -0.5619  1.1161  1.6049
   97SAPE  C318 9768   5.891   3.075   3.909 -0.3246  0.3302 -0.9832
   97SAPE  H18X 9769   5.805   3.072   3.838  0.9699  1.0273 -2.6196
   97SAPE  H18Y 9770   5.894   3.179   3.946 -1.3038  0.2819 -0.7612
   97SAPE  H18Z 9771   5.875   3.010   3.997  0.6017 -0.4097 -1.3441
   98SAPE     N 9772   5.980   2.115   6.108 -0.0123 -0.3008  0.1396
   98SAPE   HN1 9773   5.906   2.147   6.173  0.2637  0.0459  0.2887
   98SAPE   HN2 9774   6.063   2.174   6.131 -1.6844  1.4672  1.7967
   98SAPE   HN3 9775   5.945   2.131   6.012  1.1730  4.4499  0.3837
   98SAPE   C12 9776   6.010   1.971   6.127  0.1363  0.2595  0.2938
   98SAPE  H12A 9777   6.072   1.967   6.219  1.0690 -2.1490 -0.4070
   98SAPE  H12B 9778   6.075   1.942   6.041 -0.5853 -1.3278  0.2648
   98SAPE   C11 9779   5.887   1.880   6.132 -0.2919  0.1862 -0.8432
   98SAPE  H11A 9780   5.925   1.778   6.113  2.3098  0.5477  2.1258
   98SAPE  H11B 9781   5.815   1.895   6.049  1.6978  0.5759 -2.5298
   98SAPE     P 9782   5.719   1.981   6.308 -0.0343 -0.0523 -0.4398
   98SAPE   O13 9783   5.667   1.947   6.444  0.6311  0.0852  0.3728
   98SAPE   O14 9784   5.775   2.118   6.289 -0.0230  0.6272 -0.9578
   98SAPE   O12 9785   5.830   1.877   6.270 -0.2388 -0.2866  0.0748
   98SAPE   O11 9786   5.614   1.965   6.189 -0.3777  0.1472  0.4560
   98SAPE    C1 9787   5.506   1.871   6.185  1.0132  0.0952 -0.4071
   98SAPE    HA 9788   5.529   1.771   6.228 -0.8492  0.1189  0.7066
   98SAPE    HB 9789   5.427   1.902   6.257  2.1046  2.7027 -0.3094
   98SAPE    C2 9790   5.444   1.854   6.047 -0.8083 -0.5176 -0.3010
   98SAPE    HS 9791   5.350   1.796   6.058 -0.6519 -0.5940  0.7251
   98SAPE   O21 9792   5.543   1.771   5.969  0.4527  0.4262  0.1702
   98SAPE   C21 9793   5.563   1.650   6.010  0.4402 -0.6991  0.9549
   98SAPE   O22 9794   5.504   1.586   6.092  0.3424 -0.3194 -0.1672
   98SAPE   C22 9795   5.670   1.592   5.917  0.6929  0.1896  0.0242
   98SAPE   H2R 9796   5.648   1.614   5.810  1.6715  0.3956 -0.1431
   98SAPE   H2S 9797   5.760   1.649   5.949  0.0279  0.9212  0.6109
   98SAPE    C3 9798   5.403   1.985   5.984  0.9525 -0.2280  0.2847
   98SAPE    HX 9799   5.495   2.047   5.983 -0.8273  2.5307  0.0869
   98SAPE    HY 9800   5.322   2.043   6.034 -0.4577 -0.3753 -1.7893
   98SAPE   O31 9801   5.356   1.967   5.853 -0.1020 -0.5629 -0.6634
   98SAPE   C31 9802   5.425   2.030   5.758  0.3588 -0.1989 -0.0190
   98SAPE   O32 9803   5.519   2.108   5.774  0.0518  0.0445 -0.0477
   98SAPE   C32 9804   5.354   2.004   5.622 -0.2574  0.6495 -0.6565
   98SAPE   H2X 9805   5.298   2.098   5.604 -1.4693 -0.5232 -3.3755
   98SAPE   H2Y 9806   5.277   1.924   5.628  0.2990  0.2645  2.3849
   98SAPE   C23 9807   5.694   1.440   5.945 -0.2078  0.6131 -0.1860
   98SAPE   H3R 9808   5.711   1.431   6.054  0.7632  1.2224 -0.2822
   98SAPE   H3S 9809   5.787   1.404   5.897  0.8326  1.6125  1.0690
   98SAPE   C24 9810   5.571   1.357   5.897 -0.2713 -0.6721  0.7557
   98SAPE   H4R 9811   5.555   1.371   5.788 -0.2249  0.8274  0.9238
   98SAPE   H4S 9812   5.482   1.384   5.957  0.4345 -0.7437  1.8470
   98SAPE   C25 9813   5.595   1.214   5.912  0.2711  1.0362  0.5306
   98SAPE   H5R 9814   5.597   1.179   6.016 -0.3765  2.0045  0.8718
   98SAPE   C26 9815   5.608   1.122   5.812  0.6218  0.1900 -0.4432
   98SAPE   H6R 9816   5.598   1.015   5.836  1.9226  0.7014  2.7107
   98SAPE   C27 9817   5.606   1.145   5.664 -0.6471 -0.3644 -0.0097
   98SAPE   H7R 9818   5.600   1.254   5.643  0.3985 -0.1876  0.5423
   98SAPE   H7S 9819   5.512   1.117   5.613 -1.3147  1.9714 -0.1320
   98SAPE   C28 9820   5.721   1.089   5.585  0.1516 -0.0426 -0.1574
   98SAPE   H8R 9821   5.819   1.087   5.634  1.0771  2.7476 -1.8225
   98SAPE   C29 9822   5.713   1.053   5.455  0.4725 -0.2490  0.4582
   98SAPE   H9R 9823   5.803   1.022   5.400  0.3977 -0.1926  0.3038
   98SAPE  C210 9824   5.588   1.055   5.370  0.1420  0.1248  0.5400
   98SAPE  H10R 9825   5.541   1.154   5.387  0.8053  0.3856  0.8441
   98SAPE  H10S 9826   5.508   0.984   5.401 -1.8223  1.3269 -1.5751
   98SAPE  C211 9827   5.601   1.036   5.217  0.4325  0.6396 -0.4337
   98SAPE  H11R 9828   5.691   0.980   5.186  1.6062  1.6232  1.1030
   98SAPE  C212 9829   5.512   1.057   5.116 -0.3002  0.2629  0.5203
   98SAPE  H12R 9830   5.551   1.033   5.016  1.4323 -0.6980  1.3904
   98SAPE  C213 9831   5.373   1.111   5.129 -0.1454  0.1403 -0.7354
   98SAPE  H13R 9832   5.375   1.194   5.203  0.5151  0.6162 -1.2798
   98SAPE  H13S 9833   5.319   1.033   5.187 -1.3099  2.1246  0.9438
   98SAPE  C214 9834   5.300   1.160   5.008  0.0314  0.3047 -0.3165
   98SAPE  H14R 9835   5.339   1.123   4.912  1.0942 -2.8296  1.2525
   98SAPE  C215 9836   5.203   1.254   5.015 -0.2832  0.6544 -0.0002
   98SAPE  H15R 9837   5.150   1.273   4.921  1.1891 -2.2279 -1.4535
   98SAPE  C216 9838   5.135   1.329   5.129  0.0576 -0.1277  0.0005
   98SAPE  H16R 9839   5.083   1.420   5.092 -3.9200 -1.5393  1.7273
   98SAPE  H16S 9840   5.202   1.370   5.208 -0.7256 -0.4015  0.8240
   98SAPE  C217 9841   5.024   1.246   5.195 -0.4593  0.3507 -0.1520
   98SAPE  H17R 9842   4.944   1.230   5.119 -1.7415 -1.1052  1.4490
   98SAPE  H17S 9843   4.972   1.305   5.273  1.3105  1.8732 -0.1018
   98SAPE  C218 9844   5.065   1.114   5.258  0.6824 -0.2199  0.0735
   98SAPE  H18R 9845   5.135   1.140   5.340 -1.3221  2.7437  0.9629
   98SAPE  H18S 9846   5.124   1.051   5.189 -0.3783  0.1167 -1.1747
   98SAPE  C219 9847   4.953   1.026   5.308  0.1288  0.1384 -0.1288
   98SAPE  H19R 9848   4.890   1.084   5.379 -0.4663  1.2691 -1.5559
   98SAPE  H19S 9849   4.992   0.932   5.353  3.1996  0.3657 -2.1649
   98SAPE  C220 9850   4.852   0.982   5.194  0.6990 -0.5504  0.0345
   98SAPE  H20R 9851   4.779   1.062   5.171 -0.9165 -1.7103  0.9886
   98SAPE  H20S 9852   4.794   0.895   5.231 -0.7596  0.9146  1.2718
   98SAPE  H20T 9853   4.913   0.950   5.107  1.3352 -0.8015  0.5658
   98SAPE   C33 9854   5.464   1.975   5.512 -0.3752  0.7232  0.6577
   98SAPE   H3X 9855   5.549   2.046   5.521 -0.5974  1.0217  0.4233
   98SAPE   H3Y 9856   5.404   1.986   5.419 -1.5688 -1.7916  1.0942
   98SAPE   C34 9857   5.504   1.827   5.522 -0.2608 -0.3677  0.3286
   98SAPE   H4X 9858   5.532   1.795   5.624 -0.3172  0.8709  0.7459
   98SAPE   H4Y 9859   5.592   1.807   5.458 -1.6006 -0.2930 -1.5947
   98SAPE   C35 9860   5.400   1.735   5.470  0.0842  0.5069  0.6012
   98SAPE   H5X 9861   5.405   1.752   5.360  0.5348  0.4067  0.6035
   98SAPE   H5Y 9862   5.304   1.767   5.515  0.7665  3.0463  0.3259
   98SAPE   C36 9863   5.417   1.589   5.499 -0.2933 -0.0089 -1.0855
   98SAPE   H6X 9864   5.323   1.537   5.470 -1.4499  1.1656  0.4487
   98SAPE   H6Y 9865   5.432   1.565   5.607  1.1180  1.2844 -0.9791
   98SAPE   C37 9866   5.524   1.511   5.425 -0.2918 -0.0667  0.4265
   98SAPE   H7X 9867   5.517   1.405   5.456 -2.9445  0.2377  0.9919
   98SAPE   H7Y 9868   5.618   1.552   5.468  0.3891 -1.2192  0.0602
   98SAPE   C38 9869   5.530   1.532   5.274  0.6184 -0.6902  0.3795
   98SAPE   H8X 9870   5.562   1.639   5.272 -2.3046  0.2848  1.4576
   98SAPE   H8Y 9871   5.428   1.510   5.234  0.7173  1.3901 -1.1206
   98SAPE   C39 9872   5.626   1.442   5.193  0.5771  0.0760  0.4136
   98SAPE   H9X 9873   5.623   1.341   5.239 -1.5813 -0.0718  0.0027
   98SAPE   H9Y 9874   5.730   1.476   5.212  1.0273 -0.6410 -0.6659
   98SAPE  C310 9875   5.593   1.427   5.040  0.3353  0.7310  0.0292
   98SAPE  H10X 9876   5.608   1.527   4.994  0.2775 -0.1758 -1.9832
   98SAPE  H10Y 9877   5.486   1.403   5.024  0.0896  0.8540  1.3943
   98SAPE  C311 9878   5.685   1.321   4.968 -0.1517 -0.2568  0.2519
   98SAPE  H11X 9879   5.652   1.216   4.982  0.5339 -0.6042 -0.6483
   98SAPE  H11Y 9880   5.785   1.335   5.014 -0.2106 -1.8656  0.8769
   98SAPE  C312 9881   5.707   1.343   4.816  0.5712  0.4945  0.5807
   98SAPE  H12X 9882   5.800   1.303   4.770 -0.7941 -0.1425 -1.7250
   98SAPE  H12Y 9883   5.723   1.451   4.796  1.4520  0.1396 -0.7098
   98SAPE  C313 9884   5.583   1.311   4.734 -0.2128 -0.0681  0.1635
   98SAPE  H13X 9885   5.495   1.361   4.782  0.8107  1.1109  0.8476
   98SAPE  H13Y 9886   5.560   1.203   4.743 -1.2869  0.0820 -0.7127
   98SAPE  C314 9887   5.580   1.354   4.586 -0.5762 -0.3510 -0.3580
   98SAPE  H14X 9888   5.675   1.337   4.532 -0.6088  2.4214 -1.4001
   98SAPE  H14Y 9889   5.562   1.464   4.579 -1.8289 -0.4212  1.2771
   98SAPE  C315 9890   5.459   1.288   4.523 -0.0728  0.0087  0.4275
   98SAPE  H15X 9891   5.370   1.279   4.589  0.1949 -0.9927  0.6631
   98SAPE  H15Y 9892   5.478   1.181   4.499 -1.5381 -0.1685 -0.0266
   98SAPE  C316 9893   5.416   1.356   4.389  0.1403 -0.0466 -0.7645
   98SAPE  H16X 9894   5.510   1.347   4.330  0.7391  0.7345  0.0486
   98SAPE  H16Y 9895   5.408   1.466   4.403  0.2554 -0.1822  0.4458
   98SAPE  C317 9896   5.290   1.303   4.318 -0.5957  0.0749 -0.1157
   98SAPE  H17X 9897   5.195   1.314   4.373  0.1723 -0.0049  1.2470
   98SAPE  H17Y 9898   5.308   1.194   4.304  2.9191  0.3765  1.3617
   98SAPE  C318 9899   5.276   1.377   4.187  0.2058  0.5961 -0.4124
   98SAPE  H18X 9900   5.319   1.479   4.192  0.3098  0.5054  0.7753
   98SAPE  H18Y 9901   5.168   1.388   4.165 -0.7740 -1.4581  2.8864
   98SAPE  H18Z 9902   5.323   1.315   4.107 -0.6845 -1.8123  0.8572
   99SAPE     N 9903   5.529   6.781   6.483 -0.3708  0.4916  0.3651
   99SAPE   HN1 9904   5.630   6.756   6.481 -1.1062 -2.8477  1.4707
   99SAPE   HN2 9905   5.486   6.739   6.568 -1.6317 -0.8374 -0.9024
   99SAPE   HN3 9906   5.490   6.726   6.404  2.7620  0.2057 -1.0516
   99SAPE   C12 9907   5.510   6.923   6.449 -0.1100 -0.3115  0.1299
   99SAPE  H12A 9908   5.604   6.979   6.467 -0.6201  0.3347  0.7918
   99SAPE  H12B 9909   5.436   6.970   6.516  1.8553  3.5721 -0.2929
   99SAPE   C11 9910   5.459   6.937   6.298  1.0453 -0.4053  0.1603
   99SAPE  H11A 9911   5.539   6.889   6.238  1.6553 -0.5751  1.1133
   99SAPE  H11B 9912   5.465   7.046   6.277 -0.1591 -0.1702  0.9790
   99SAPE     P 9913   5.328   6.751   6.197  0.1081  0.0370 -0.2864
   99SAPE   O13 9914   5.367   6.781   6.059 -0.0388 -0.0982  0.2905
   99SAPE   O14 9915   5.415   6.648   6.265  0.1001 -0.1376 -0.6746
   99SAPE   O12 9916   5.327   6.877   6.288  0.3308  0.3551 -0.0570
   99SAPE   O11 9917   5.180   6.698   6.203 -1.1718 -0.4869  0.2005
   99SAPE    C1 9918   5.070   6.742   6.127 -0.1883 -0.3593 -0.0065
   99SAPE    HA 9919   5.017   6.802   6.203 -0.5283  0.9805 -1.2811
   99SAPE    HB 9920   5.105   6.795   6.035 -0.6251  0.8912  0.5415
   99SAPE    C2 9921   4.986   6.615   6.082 -0.4913 -0.1176  0.6538
   99SAPE    HS 9922   4.993   6.548   6.170 -2.0796  1.1127  1.7539
   99SAPE   O21 9923   5.041   6.561   5.963 -0.1086 -0.7040 -0.1538
   99SAPE   C21 9924   5.137   6.470   5.977 -0.5780 -0.6976  0.2729
   99SAPE   O22 9925   5.157   6.414   6.085 -0.2745  0.3463 -0.1076
   99SAPE   C22 9926   5.213   6.454   5.841  0.6095  0.7926 -0.2299
   99SAPE   H2R 9927   5.147   6.474   5.754  4.0341  2.0772 -2.6575
   99SAPE   H2S 9928   5.291   6.533   5.852 -0.7555  2.0008  0.9980
   99SAPE    C3 9929   4.839   6.661   6.053 -0.4107 -0.3468 -0.4104
   99SAPE    HX 9930   4.791   6.700   6.146 -2.6830 -0.5220 -1.5013
   99SAPE    HY 9931   4.785   6.568   6.027 -0.6513 -0.6254  1.0487
   99SAPE   O31 9932   4.824   6.761   5.954  0.2360  0.3177  0.4860
   99SAPE   C31 9933   4.687   6.777   5.946  0.3418  0.0639  0.1552
   99SAPE   O32 9934   4.601   6.715   6.004 -0.1956  0.7650 -0.6092
   99SAPE   C32 9935   4.644   6.883   5.846 -1.0166  0.1533  0.6461
   99SAPE   H2X 9936   4.677   6.845   5.747 -1.8893 -1.8830  1.1222
   99SAPE   H2Y 9937   4.695   6.981   5.860 -1.5169  0.2182  2.0609
   99SAPE   C23 9938   5.284   6.320   5.815  0.9133  0.2953 -0.1941
   99SAPE   H3R 9939   5.339   6.291   5.907 -0.1195  0.7420  0.5600
   99SAPE   H3S 9940   5.370   6.334   5.744 -0.6879  0.3264 -2.1774
   99SAPE   C24 9941   5.180   6.218   5.768 -0.3428  0.1014 -0.1033
   99SAPE   H4R 9942   5.143   6.262   5.673  1.9420  1.4817 -0.4023
   99SAPE   H4S 9943   5.099   6.209   5.843 -0.3220  0.1333 -0.0765
   99SAPE   C25 9944   5.241   6.082   5.741 -0.6012  0.2889 -0.6968
   99SAPE   H5R 9945   5.274   6.026   5.830 -2.6523 -0.9012 -0.6510
   99SAPE   C26 9946   5.252   6.030   5.616 -0.1009 -0.0611 -0.6342
   99SAPE   H6R 9947   5.300   5.932   5.605 -1.7790 -0.8777 -0.8003
   99SAPE   C27 9948   5.197   6.097   5.491  0.2628 -0.2071  0.4538
   99SAPE   H7R 9949   5.252   6.193   5.487  0.1837  0.0282  3.5450
   99SAPE   H7S 9950   5.091   6.118   5.517 -0.5916 -2.4425 -1.0390
   99SAPE   C28 9951   5.205   6.019   5.359 -0.1009  0.7255  0.2719
   99SAPE   H8R 9952   5.299   6.031   5.303  0.1587  1.2693  0.8132
   99SAPE   C29 9953   5.103   5.943   5.317  0.1798 -0.2088  0.0414
   99SAPE   H9R 9954   5.129   5.878   5.232  0.1180  0.5084 -0.5309
   99SAPE  C210 9955   4.975   5.911   5.387  0.0453  0.0358 -0.2997
   99SAPE  H10R 9956   4.982   5.915   5.497 -2.1009  0.7015 -0.1553
   99SAPE  H10S 9957   4.954   5.807   5.353  1.5873 -0.3114 -0.2195
   99SAPE  C211 9958   4.862   6.004   5.348  0.6460  0.3577 -0.0076
   99SAPE  H11R 9959   4.805   6.059   5.424 -0.9827  0.7464 -1.4734
   99SAPE  C212 9960   4.810   6.018   5.223 -0.6895  0.4479 -0.3558
   99SAPE  H12R 9961   4.723   6.084   5.210 -2.6463 -2.1921 -1.2769
   99SAPE  C213 9962   4.857   5.953   5.095  0.1394 -0.1811  0.2136
   99SAPE  H13R 9963   4.778   5.888   5.051 -0.3772  0.8312 -0.3720
   99SAPE  H13S 9964   4.954   5.901   5.103  0.7601  0.7674 -1.0315
   99SAPE  C214 9965   4.889   6.060   4.998  1.0386 -0.2254  0.1424
   99SAPE  H14R 9966   4.949   6.138   5.047  0.0253 -1.1453  2.9514
   99SAPE  C215 9967   4.860   6.082   4.871  0.0738  0.3162  0.0794
   99SAPE  H15R 9968   4.890   6.180   4.831 -1.2748 -0.4122 -2.8278
   99SAPE  C216 9969   4.776   6.003   4.775 -0.3834 -0.2712  0.4051
   99SAPE  H16R 9970   4.668   6.025   4.781 -0.3443  0.0860 -0.1718
   99SAPE  H16S 9971   4.776   5.897   4.809  1.9987  0.2395  2.0926
   99SAPE  C217 9972   4.819   5.990   4.628 -0.2975  0.1611  0.3242
   99SAPE  H17R 9973   4.763   5.902   4.590 -0.9516  0.3326  0.8707
   99SAPE  H17S 9974   4.925   5.959   4.617 -0.8789 -1.9274  0.3050
   99SAPE  C218 9975   4.774   6.111   4.542  0.1129  0.4421 -0.7046
   99SAPE  H18R 9976   4.813   6.197   4.601  0.7664 -0.4399  0.1685
   99SAPE  H18S 9977   4.664   6.114   4.555  0.1811  0.1825 -0.0439
   99SAPE  C219 9978   4.831   6.134   4.403 -1.0435  0.2005 -0.8503
   99SAPE  H19R 9979   4.774   6.223   4.370  0.6890  1.2241 -1.1282
   99SAPE  H19S 9980   4.797   6.043   4.348 -0.8253 -0.4698  0.1151
   99SAPE  C220 9981   4.990   6.151   4.398  0.4615  0.0932  0.0379
   99SAPE  H20R 9982   5.028   6.195   4.304  1.4605 -2.3036 -0.7067
   99SAPE  H20S 9983   5.036   6.051   4.410 -3.7184 -2.1065 -1.2765
   99SAPE  H20T 9984   5.030   6.207   4.485 -0.5600 -1.1061  1.3060
   99SAPE   C33 9985   4.489   6.898   5.846 -0.1070 -0.1496  0.7009
   99SAPE   H3X 9986   4.459   6.944   5.942 -0.7991  1.9303 -0.4956
   99SAPE   H3Y 9987   4.447   6.798   5.822  0.6576 -0.0242 -1.2909
   99SAPE   C34 9988   4.439   6.998   5.746 -0.0289 -0.3955  0.8417
   99SAPE   H4X 9989   4.501   7.090   5.754  0.5498 -0.4323 -2.3446
   99SAPE   H4Y 9990   4.333   7.023   5.765 -0.3171  1.5554 -2.8291
   99SAPE   C35 9991   4.446   6.933   5.601 -0.0201 -0.3677 -0.1934
   99SAPE   H5X 9992   4.407   6.829   5.603 -1.6298  0.2368  0.4351
   99SAPE   H5Y 9993   4.553   6.912   5.578 -0.2821  0.3785 -2.1736
   99SAPE   C36 9994   4.386   7.016   5.486  0.2878  0.0860  0.3635
   99SAPE   H6X 9995   4.389   7.125   5.505 -0.8848  0.2792 -0.4873
   99SAPE   H6Y 9996   4.277   6.995   5.478  0.3431 -0.8775  1.9795
   99SAPE   C37 9997   4.443   6.975   5.351 -0.3319  1.2494 -0.3551
   99SAPE   H7X 9998   4.439   6.866   5.328  0.4826  0.8014  1.5349
   99SAPE   H7Y 9999   4.550   7.003   5.345  0.0580 -0.1062  0.0778
   99SAPE   C3810000   4.380   7.052   5.229  0.0557  0.4677 -0.3545
   99SAPE   H8X10001   4.385   7.161   5.251 -0.8735  0.4598 -0.1159
   99SAPE   H8Y10002   4.276   7.017   5.214  0.1599  0.7694 -1.8126
   99SAPE   C3910003   4.463   7.028   5.105 -0.2182  0.1452  0.2673
   99SAPE   H9X10004   4.401   7.065   5.021  4.0688  1.1731 -2.5887
   99SAPE   H9Y10005   4.476   6.919   5.084 -1.8919  0.3535 -2.0775
   99SAPE  C31010006   4.596   7.108   5.094 -0.0206 -0.0341 -0.0113
   99SAPE  H10X10007   4.665   7.059   5.167 -2.1531  0.2856  2.3015
   99SAPE  H10Y10008   4.593   7.214   5.127  1.5427 -0.0744  0.2796
   99SAPE  C31110009   4.672   7.086   4.958 -0.4744  0.5069 -0.5133
   99SAPE  H11X10010   4.632   7.164   4.889 -0.1144  1.8895  0.8192
   99SAPE  H11Y10011   4.637   6.984   4.934  1.1914 -0.0247 -0.7473
   99SAPE  C31210012   4.825   7.083   4.976 -0.3735 -0.8348 -0.5652
   99SAPE  H12X10013   4.843   7.034   5.074  0.5570 -0.6795 -0.6531
   99SAPE  H12Y10014   4.839   7.193   4.984  1.8494 -1.1308 -0.0179
   99SAPE  C31310015   4.894   7.007   4.867 -0.8121 -0.5430 -0.1879
   99SAPE  H13X10016   4.859   7.041   4.767  0.7524 -0.0966 -0.5909
   99SAPE  H13Y10017   4.865   6.900   4.862 -2.4780 -0.0738 -1.2578
   99SAPE  C31410018   5.046   7.031   4.860 -0.3561  0.3530 -0.7673
   99SAPE  H14X10019   5.069   7.139   4.870 -0.1303  0.0741  2.1656
   99SAPE  H14Y10020   5.080   6.996   4.760  0.1563 -1.8471  0.1473
   99SAPE  C31510021   5.120   6.943   4.970  0.6646 -0.1307  0.8208
   99SAPE  H15X10022   5.103   6.835   4.949  1.6257 -0.1226 -0.0324
   99SAPE  H15Y10023   5.079   6.974   5.068  2.2584  1.0514  1.1368
   99SAPE  C31610024   5.271   6.973   4.960  0.5669  0.0127 -1.2261
   99SAPE  H16X10025   5.294   7.082   4.963 -1.8366  0.6530 -3.7469
   99SAPE  H16Y10026   5.307   6.947   4.858  0.7420 -0.0273 -1.1548
   99SAPE  C31710027   5.348   6.920   5.084  0.3646 -0.4007  0.7141
   99SAPE  H17X10028   5.297   6.941   5.181 -0.1531  1.5637  0.0453
   99SAPE  H17Y10029   5.437   6.986   5.085  1.1188 -1.4222  1.6750
   99SAPE  C31810030   5.364   6.774   5.085 -0.0420 -0.0569  0.2375
   99SAPE  H18X10031   5.438   6.736   5.011 -0.3672  0.1381 -0.1864
   99SAPE  H18Y10032   5.275   6.711   5.063 -0.9172  0.6546  1.7301
   99SAPE  H18Z10033   5.409   6.728   5.175 -1.1128  0.1715  0.8982
  100SAPE     N10034   1.417   5.937   6.606  0.2469 -0.6259 -0.6228
  100SAPE   HN110035   1.349   5.920   6.529  1.3487 -1.8723 -1.3369
  100SAPE   HN210036   1.514   5.909   6.582  1.3246  1.2666  1.2891
  100SAPE   HN310037   1.382   5.883   6.688  0.6753 -1.0307 -0.7066
  100SAPE   C1210038   1.417   6.087   6.628  0.4384  0.1357 -0.6722
  100SAPE  H12A10039   1.492   6.112   6.706 -0.6355  2.1966 -0.2423
  100SAPE  H12B10040   1.323   6.110   6.684  0.7913  1.4722 -0.6082
  100SAPE   C1110041   1.446   6.179   6.507 -0.6977 -0.2203 -0.2564
  100SAPE  H11A10042   1.441   6.280   6.553 -0.4892 -0.3023 -0.0566
  100SAPE  H11B10043   1.361   6.163   6.437  0.9204 -0.2420 -2.2498
  100SAPE     P10044   1.599   6.079   6.313 -0.4309 -0.4343 -0.3752
  100SAPE   O1310045   1.730   6.104   6.253 -0.6164 -0.1600  0.1111
  100SAPE   O1410046   1.574   5.936   6.346 -0.2981 -1.0608  0.4241
  100SAPE   O1210047   1.577   6.163   6.445  0.2753  0.4104  0.1758
  100SAPE   O1110048   1.490   6.137   6.217 -0.4493  0.1270  0.1362
  100SAPE    C110049   1.491   6.279   6.170 -0.7594 -0.1286  0.3426
  100SAPE    HA10050   1.495   6.347   6.257 -1.6129 -0.8295  0.9393
  100SAPE    HB10051   1.579   6.299   6.105 -0.6331 -1.2933  0.1305
  100SAPE    C210052   1.367   6.317   6.087  0.3724 -0.4216  0.4773
  100SAPE    HS10053   1.285   6.299   6.159 -0.4363 -0.5747 -0.4577
  100SAPE   O2110054   1.353   6.216   5.975 -0.7141 -0.5138  0.1444
  100SAPE   C2110055   1.228   6.193   5.947  0.3400 -0.0611 -0.1610
  100SAPE   O2210056   1.134   6.237   6.007  0.0927  0.2635  0.1770
  100SAPE   C2210057   1.208   6.112   5.822  0.2419 -0.9670  0.2568
  100SAPE   H2R10058   1.302   6.101   5.764 -0.5034 -0.4584 -1.0800
  100SAPE   H2S10059   1.173   6.010   5.848 -1.2533 -0.3338  0.8029
  100SAPE    C310060   1.334   6.460   6.028 -0.7634  0.5273  0.4423
  100SAPE    HX10061   1.335   6.525   6.118  0.2207 -1.7356  2.1181
  100SAPE    HY10062   1.231   6.451   5.987 -0.9078  0.1202  0.8910
  100SAPE   O3110063   1.434   6.496   5.932  0.2731  0.4887 -0.6106
  100SAPE   C3110064   1.422   6.617   5.881 -0.4728 -0.3336 -0.0704
  100SAPE   O3210065   1.330   6.693   5.904  0.0616 -0.2565  0.3468
  100SAPE   C3210066   1.530   6.632   5.778  0.3661 -0.2347  0.0924
  100SAPE   H2X10067   1.602   6.551   5.799  0.4243 -0.0610  0.5600
  100SAPE   H2Y10068   1.584   6.727   5.801 -3.3582  1.6332  1.5584
  100SAPE   C2310069   1.102   6.176   5.721  0.5268 -0.7892 -0.4991
  100SAPE   H3R10070   1.139   6.260   5.659 -1.6912  0.1860 -0.5305
  100SAPE   H3S10071   1.015   6.209   5.781 -0.5442 -1.5147 -1.6244
  100SAPE   C2410072   1.053   6.074   5.623  0.3792 -0.1757 -0.0189
  100SAPE   H4R10073   0.969   6.116   5.563  1.2329 -0.1756 -1.2444
  100SAPE   H4S10074   1.016   5.987   5.681  0.3264  0.7131  1.2851
  100SAPE   C2510075   1.159   6.024   5.530 -0.9039  0.7584  0.1653
  100SAPE   H5R10076   1.232   5.963   5.586 -0.4235 -1.7435 -3.0316
  100SAPE   C2610077   1.191   6.063   5.406 -0.1520 -0.4785  0.7585
  100SAPE   H6R10078   1.253   5.993   5.349 -0.4345 -0.9135  0.9856
  100SAPE   C2710079   1.110   6.172   5.334 -0.6013 -0.1820  0.2455
  100SAPE   H7R10080   1.079   6.265   5.386 -0.5463  0.4333 -0.8191
  100SAPE   H7S10081   1.014   6.122   5.310 -0.9872  1.4137 -1.5974
  100SAPE   C2810082   1.185   6.211   5.209  0.2599  0.3943  0.1439
  100SAPE   H8R10083   1.282   6.262   5.213 -0.8729  2.6660 -0.2831
  100SAPE   C2910084   1.136   6.190   5.087 -0.5253  0.4463  0.2577
  100SAPE   H9R10085   1.202   6.205   5.000  0.1928 -1.6030  0.4216
  100SAPE  C21010086   1.010   6.121   5.041  0.7062 -0.5612 -0.1467
  100SAPE  H10R10087   0.994   6.024   5.093 -1.0907 -0.3835 -0.3475
  100SAPE  H10S10088   1.022   6.094   4.934  1.0925 -0.2160 -0.1913
  100SAPE  C21110089   0.886   6.208   5.055  0.0589  0.3362 -0.7436
  100SAPE  H11R10090   0.858   6.230   5.159 -0.5610 -0.2194 -0.7921
  100SAPE  C21210091   0.822   6.283   4.965  0.4704 -0.5970  0.0544
  100SAPE  H12R10092   0.747   6.358   4.993  0.7231 -0.0816 -0.6403
  100SAPE  C21310093   0.867   6.295   4.821  0.3463  0.2718  0.2691
  100SAPE  H13R10094   0.898   6.199   4.774 -1.9126  0.4657 -1.7630
  100SAPE  H13S10095   0.959   6.355   4.806 -0.0494  2.0727  4.4044
  100SAPE  C21410096   0.738   6.354   4.751  0.3599 -0.0725 -0.0458
  100SAPE  H14R10097   0.693   6.441   4.799 -1.7883 -1.8693  1.3026
  100SAPE  C21510098   0.688   6.325   4.629  0.3582  0.2562 -0.6742
  100SAPE  H15R10099   0.596   6.379   4.600  0.0788  0.7856  1.1331
  100SAPE  C21610100   0.743   6.227   4.526  0.7482  0.1901 -0.5890
  100SAPE  H16R10101   0.842   6.182   4.550  0.1629  0.0600  1.6220
  100SAPE  H16S10102   0.746   6.281   4.429 -2.9377  0.7611 -0.4553
  100SAPE  C21710103   0.640   6.105   4.512  0.3612  0.2564 -0.5888
  100SAPE  H17R10104   0.629   6.060   4.613  0.7243 -0.4018 -0.8407
  100SAPE  H17S10105   0.695   6.032   4.449  0.3974 -0.6480  0.4629
  100SAPE  C21810106   0.512   6.140   4.444  0.1652 -0.2166 -0.0469
  100SAPE  H18R10107   0.490   6.046   4.389 -0.9843 -0.2657  0.4892
  100SAPE  H18S10108   0.530   6.225   4.375 -0.9401 -0.0559 -0.1474
  100SAPE  C21910109   0.402   6.146   4.549  0.1887  0.0058 -0.5244
  100SAPE  H19R10110   0.400   6.231   4.620  0.1214 -1.2304  0.9959
  100SAPE  H19S10111   0.405   6.062   4.622 -0.6541  0.7801  0.4078
  100SAPE  C22010112   0.255   6.137   4.483  0.0219 -0.5665  0.0943
  100SAPE  H20R10113   0.251   6.044   4.423 -5.1033 -0.1773 -0.3773
  100SAPE  H20S10114   0.223   6.219   4.415 -1.3317 -1.2803 -0.1452
  100SAPE  H20T10115   0.181   6.116   4.563 -0.2664 -2.8972 -0.7441
  100SAPE   C3310116   1.476   6.627   5.634 -0.3118 -0.7782 -0.4078
  100SAPE   H3X10117   1.564   6.659   5.575 -0.8298 -1.1652 -1.4041
  100SAPE   H3Y10118   1.405   6.712   5.629  1.8556  1.0326 -0.9703
  100SAPE   C3410119   1.427   6.492   5.593  0.5690 -0.3847 -0.3341
  100SAPE   H4X10120   1.337   6.460   5.650 -0.4766  3.5287  0.3482
  100SAPE   H4Y10121   1.512   6.421   5.604 -0.6656 -2.0343 -1.2729
  100SAPE   C3510122   1.368   6.488   5.443 -0.0791  0.0436 -0.3623
  100SAPE   H5X10123   1.267   6.535   5.439 -0.1133 -0.0165 -0.2223
  100SAPE   H5Y10124   1.352   6.381   5.420 -2.0791  0.2355  0.0315
  100SAPE   C3610125   1.469   6.552   5.346 -0.1969  0.1015  0.6084
  100SAPE   H6X10126   1.567   6.500   5.349 -1.0631 -1.8005 -1.7746
  100SAPE   H6Y10127   1.474   6.660   5.372 -1.3089 -0.0993  1.7423
  100SAPE   C3710128   1.415   6.535   5.209 -0.5708 -0.2849 -0.3115
  100SAPE   H7X10129   1.317   6.587   5.209  0.0501  0.8957 -0.3232
  100SAPE   H7Y10130   1.410   6.425   5.192  1.6899 -0.7605  1.7958
  100SAPE   C3810131   1.502   6.609   5.100  0.1738  0.2801 -0.2784
  100SAPE   H8X10132   1.603   6.563   5.092 -0.3021 -0.7377 -0.5503
  100SAPE   H8Y10133   1.517   6.718   5.115 -0.8158  0.4806 -0.7312
  100SAPE   C3910134   1.439   6.602   4.955 -0.4907 -0.0483  0.6653
  100SAPE   H9X10135   1.491   6.681   4.897 -0.3923  1.1078  2.2925
  100SAPE   H9Y10136   1.338   6.647   4.963 -0.6615 -0.3523  0.2594
  100SAPE  C31010137   1.439   6.469   4.879  0.5306  0.2833  0.3626
  100SAPE  H10X10138   1.370   6.404   4.937 -0.9024 -0.7388 -2.3926
  100SAPE  H10Y10139   1.541   6.426   4.889  0.4485  0.2028  0.8286
  100SAPE  C31110140   1.394   6.484   4.728  0.7238 -0.5210 -0.5027
  100SAPE  H11X10141   1.461   6.564   4.691  0.4334  0.0542  0.2119
  100SAPE  H11Y10142   1.291   6.524   4.716  1.6905  1.6169 -1.9194
  100SAPE  C31210143   1.402   6.359   4.642 -0.4110 -0.6191 -0.5513
  100SAPE  H12X10144   1.507   6.323   4.641  0.5970  2.0197  2.0996
  100SAPE  H12Y10145   1.392   6.388   4.535 -0.7101 -1.8031 -0.8491
  100SAPE  C31310146   1.282   6.267   4.670 -0.0887 -0.0631 -0.5013
  100SAPE  H13X10147   1.194   6.334   4.678  2.3722  3.2019  0.5092
  100SAPE  H13Y10148   1.281   6.217   4.769  3.3568  0.1989 -0.2794
  100SAPE  C31410149   1.268   6.173   4.549  0.2283 -0.6409 -1.3732
  100SAPE  H14X10150   1.353   6.103   4.533 -0.4992 -1.9855  0.3954
  100SAPE  H14Y10151   1.273   6.248   4.467 -0.1545 -0.3161 -1.0986
  100SAPE  C31510152   1.143   6.091   4.548 -0.1512 -0.2559 -0.1269
  100SAPE  H15X10153   1.055   6.148   4.584 -0.3602  0.9930 -2.5585
  100SAPE  H15Y10154   1.156   6.016   4.629 -2.5011  0.4202  0.9178
  100SAPE  C31610155   1.134   6.032   4.414  0.5879  1.2228  0.0358
  100SAPE  H16X10156   1.232   6.052   4.367 -0.1271 -0.0300 -2.0709
  100SAPE  H16Y10157   1.053   6.086   4.361  0.7195 -0.7431 -2.3085
  100SAPE  C31710158   1.105   5.884   4.408  0.1666 -0.7999  0.0506
  100SAPE  H17X10159   1.017   5.857   4.470  0.5108 -0.4531  0.6952
  100SAPE  H17Y10160   1.192   5.832   4.454  0.6675  0.6129  0.7294
  100SAPE  C31810161   1.087   5.845   4.261 -0.1533 -0.2386 -0.0742
  100SAPE  H18X10162   1.178   5.865   4.201 -0.5921  0.8255 -0.3931
  100SAPE  H18Y10163   1.006   5.908   4.221 -0.0215  0.9407  1.4755
  100SAPE  H18Z10164   1.063   5.739   4.237  0.5692  0.3167 -3.5393
  101SAPE     N10165   0.693   1.336   6.550  0.0761 -0.4686  0.2276
  101SAPE   HN110166   0.623   1.395   6.599  0.1742  1.4556 -1.8528
  101SAPE   HN210167   0.672   1.235   6.557 -3.3899  0.1803 -0.0032
  101SAPE   HN310168   0.785   1.353   6.596  0.6939 -2.0758 -0.3844
  101SAPE   C1210169   0.701   1.392   6.414 -1.4831  0.7288 -0.2829
  101SAPE  H12A10170   0.618   1.359   6.349 -1.3811 -0.0694 -0.0113
  101SAPE  H12B10171   0.783   1.336   6.363 -1.5112  0.2506  0.1962
  101SAPE   C1110172   0.733   1.534   6.416 -0.5808 -0.9337 -0.0789
  101SAPE  H11A10173   0.637   1.586   6.440  1.4208  3.6474 -1.5765
  101SAPE  H11B10174   0.764   1.564   6.314 -0.5935 -0.4879  0.0457
  101SAPE     P10175   0.980   1.595   6.485 -0.2335 -0.5467 -0.6760
  101SAPE   O1310176   1.036   1.672   6.601  0.5202 -0.2087 -0.2466
  101SAPE   O1410177   1.042   1.463   6.450  0.3247 -0.0019  0.2056
  101SAPE   O1210178   0.823   1.571   6.508  0.8841  0.2261 -0.1773
  101SAPE   O1110179   0.987   1.679   6.355  0.4417  0.2308  0.4870
  101SAPE    C110180   0.961   1.821   6.368 -0.0809 -0.1659  1.2908
  101SAPE    HA10181   0.912   1.849   6.463  0.6709 -0.6031  1.8105
  101SAPE    HB10182   1.057   1.875   6.373  0.3402 -0.5680 -1.4822
  101SAPE    C210183   0.894   1.885   6.238 -0.0469 -0.0935  0.3598
  101SAPE    HS10184   0.909   1.995   6.246  0.2259 -0.0698 -0.4138
  101SAPE   O2110185   0.749   1.863   6.241 -0.4991 -0.3727 -0.2126
  101SAPE   C2110186   0.677   1.916   6.332 -0.1401  0.0201  0.4814
  101SAPE   O2210187   0.716   1.995   6.419 -1.0029  0.4222  0.4748
  101SAPE   C2210188   0.530   1.900   6.299 -0.2099  0.0506 -0.7417
  101SAPE   H2R10189   0.502   1.797   6.329 -0.0041  0.4131  0.7208
  101SAPE   H2S10190   0.473   1.970   6.364 -0.7173 -1.7384  0.7950
  101SAPE    C310191   0.963   1.835   6.105  0.5487 -0.0021  0.3520
  101SAPE    HX10192   0.878   1.795   6.045 -0.0729  0.6363  0.7918
  101SAPE    HY10193   1.031   1.749   6.121  0.2764 -0.2137  0.3713
  101SAPE   O3110194   1.032   1.939   6.036  0.4502  0.3802 -0.6193
  101SAPE   C3110195   1.153   1.971   6.073 -0.3977 -0.6498 -0.2396
  101SAPE   O3210196   1.224   1.934   6.166  0.5261  0.3334 -0.2744
  101SAPE   C3210197   1.193   2.066   5.969 -0.1627 -0.3480 -0.3030
  101SAPE   H2X10198   1.131   2.158   5.973 -1.1868 -1.0262 -0.5846
  101SAPE   H2Y10199   1.170   2.020   5.871  0.4120 -0.7609 -0.2478
  101SAPE   C2310200   0.491   1.929   6.149  0.1977 -0.2798 -0.2107
  101SAPE   H3R10201   0.577   1.888   6.092  1.1092 -0.8362  1.4975
  101SAPE   H3S10202   0.479   2.036   6.123 -0.2224 -0.3217 -0.1971
  101SAPE   C2410203   0.360   1.862   6.108  0.2906 -0.7968  0.2027
  101SAPE   H4R10204   0.339   1.917   6.015  3.8446  0.5443  0.1103
  101SAPE   H4S10205   0.288   1.892   6.188 -2.4264 -1.5975 -1.8813
  101SAPE   C2510206   0.360   1.718   6.082  0.0753 -0.7623 -0.6529
  101SAPE   H5R10207   0.325   1.653   6.164 -0.1191 -2.3549 -1.9667
  101SAPE   C2610208   0.404   1.649   5.977  0.3000 -0.0425 -0.0347
  101SAPE   H6R10209   0.406   1.540   5.977 -0.0639 -0.0523  0.3510
  101SAPE   C2710210   0.473   1.721   5.864  0.2278 -0.2466  0.5018
  101SAPE   H7R10211   0.454   1.831   5.864 -0.5617 -0.3758 -0.3654
  101SAPE   H7S10212   0.425   1.690   5.769 -0.3664 -0.3873  0.8456
  101SAPE   C2810213   0.616   1.697   5.852 -0.7265  0.2025 -0.2162
  101SAPE   H8R10214   0.639   1.595   5.886 -1.5944  0.2291  0.4574
  101SAPE   C2910215   0.714   1.780   5.815 -0.1642 -1.1467  0.4524
  101SAPE   H9R10216   0.817   1.745   5.834 -0.2500 -2.7099 -1.8129
  101SAPE  C21010217   0.695   1.917   5.765  0.3757  0.4842  0.7001
  101SAPE  H10R10218   0.613   1.974   5.814 -0.2822 -0.1582  0.3482
  101SAPE  H10S10219   0.663   1.914   5.659 -0.6902  0.6631  1.0118
  101SAPE  C21110220   0.821   1.999   5.781 -0.2890 -0.8821  0.6513
  101SAPE  H11R10221   0.858   2.009   5.884 -0.0898  2.4277  0.3164
  101SAPE  C21210222   0.888   2.066   5.686 -0.3389 -0.2300 -0.4728
  101SAPE  H12R10223   0.979   2.123   5.711 -0.8748  0.2786  0.3281
  101SAPE  C21310224   0.857   2.071   5.541  0.3236 -0.0506  0.3927
  101SAPE  H13R10225   0.927   2.147   5.502 -0.4341  0.7999  0.6894
  101SAPE  H13S10226   0.755   2.110   5.519 -0.3598  0.0857  3.5482
  101SAPE  C21410227   0.894   1.951   5.457  0.3487  0.0073 -0.0839
  101SAPE  H14R10228   0.809   1.886   5.430  1.0394 -0.7790 -0.4231
  101SAPE  C21510229   1.015   1.915   5.419 -0.4932  0.7759  0.6824
  101SAPE  H15R10230   1.023   1.827   5.354 -1.1992  0.0033  1.6058
  101SAPE  C21610231   1.149   1.973   5.448  0.1322  0.2100 -0.2006
  101SAPE  H16R10232   1.155   2.044   5.533  2.3551 -0.3767  0.1677
  101SAPE  H16S10233   1.207   2.004   5.358 -0.0260 -0.0454 -0.3914
  101SAPE  C21710234   1.236   1.854   5.504 -0.4622 -0.1147 -0.3101
  101SAPE  H17R10235   1.344   1.874   5.485  0.0489 -3.4618 -1.2325
  101SAPE  H17S10236   1.223   1.765   5.439  0.5393  0.2910 -1.0869
  101SAPE  C21810237   1.199   1.821   5.654  0.2419 -0.1934  0.4223
  101SAPE  H18R10238   1.090   1.798   5.661  0.2472 -0.7586 -1.0411
  101SAPE  H18S10239   1.248   1.899   5.715 -0.5750  1.6525 -1.2093
  101SAPE  C21910240   1.262   1.680   5.693  0.5069  0.1534 -0.5523
  101SAPE  H19R10241   1.236   1.622   5.602 -1.8485  0.0973  0.1210
  101SAPE  H19S10242   1.212   1.638   5.783 -1.1463 -0.0789 -1.5592
  101SAPE  C22010243   1.413   1.682   5.726  0.1222 -1.1477 -0.1794
  101SAPE  H20R10244   1.436   1.730   5.823 -2.2133 -0.1705 -0.0785
  101SAPE  H20S10245   1.467   1.735   5.645 -2.0042 -0.0238 -0.9170
  101SAPE  H20T10246   1.453   1.578   5.725  0.5335 -0.9818 -0.5616
  101SAPE   C3310247   1.344   2.086   5.984 -0.0247  0.8027  0.5509
  101SAPE   H3X10248   1.388   1.986   5.966 -0.2396  0.6569  0.8312
  101SAPE   H3Y10249   1.385   2.110   6.085  2.9269 -0.6726 -0.2387
  101SAPE   C3410250   1.384   2.192   5.884  0.4065 -1.0596  0.4316
  101SAPE   H4X10251   1.339   2.290   5.909 -2.5860 -2.9492  2.7728
  101SAPE   H4Y10252   1.347   2.157   5.785 -0.6076 -0.7737  0.7123
  101SAPE   C3510253   1.533   2.203   5.861 -0.2561 -0.6004 -0.0149
  101SAPE   H5X10254   1.574   2.100   5.852  2.6633  0.5198 -0.2320
  101SAPE   H5Y10255   1.572   2.259   5.949 -1.7889 -0.2786  0.4666
  101SAPE   C3610256   1.548   2.300   5.742  0.1164  0.0485  0.2667
  101SAPE   H6X10257   1.652   2.340   5.744  0.0508  0.2779 -0.4767
  101SAPE   H6Y10258   1.479   2.386   5.754 -1.4240 -1.0905 -0.1787
  101SAPE   C3710259   1.514   2.244   5.605 -0.2706  0.7102  0.2573
  101SAPE   H7X10260   1.520   2.328   5.532 -0.5512  0.0970 -0.4711
  101SAPE   H7Y10261   1.412   2.202   5.613 -0.1163  0.2830 -0.0302
  101SAPE   C3810262   1.618   2.140   5.544  0.3260 -0.1695 -0.4338
  101SAPE   H8X10263   1.615   2.046   5.602 -0.4176  1.3693  2.0990
  101SAPE   H8Y10264   1.721   2.181   5.537  1.1144 -1.9422  0.4932
  101SAPE   C3910265   1.568   2.117   5.395  0.1090  0.3374  0.0543
  101SAPE   H9X10266   1.458   2.104   5.406  0.3119 -0.1071  1.6750
  101SAPE   H9Y10267   1.614   2.020   5.364  0.4859  0.0847  1.3997
  101SAPE  C31010268   1.615   2.232   5.297  0.3825 -0.3774 -0.1415
  101SAPE  H10X10269   1.705   2.285   5.333  0.8240  0.0203 -1.7834
  101SAPE  H10Y10270   1.530   2.303   5.284  0.9092  0.3204  0.2050
  101SAPE  C31110271   1.657   2.171   5.161  0.2930  0.0138 -0.3271
  101SAPE  H11X10272   1.565   2.135   5.110 -0.0801  1.8237 -0.9813
  101SAPE  H11Y10273   1.723   2.082   5.171  2.5381  1.5798 -0.8637
  101SAPE  C31210274   1.722   2.280   5.078 -0.7168 -0.1563  0.1942
  101SAPE  H12X10275   1.819   2.307   5.125 -0.0322 -1.3889 -0.4969
  101SAPE  H12Y10276   1.659   2.369   5.056 -2.0920 -1.5433 -1.6021
  101SAPE  C31310277   1.770   2.220   4.946 -0.4407 -0.3405 -0.0870
  101SAPE  H13X10278   1.687   2.163   4.899  0.7564 -2.4363  0.2803
  101SAPE  H13Y10279   1.848   2.147   4.974 -1.6110 -0.9744  1.5543
  101SAPE  C31410280   1.828   2.324   4.858  0.0220  0.0704  0.0739
  101SAPE  H14X10281   1.882   2.399   4.919  3.7495 -0.6229 -2.2122
  101SAPE  H14Y10282   1.749   2.376   4.801 -1.0615 -1.1809  0.3892
  101SAPE  C31510283   1.945   2.273   4.774  0.1949  0.6525 -0.2839
  101SAPE  H15X10284   1.913   2.195   4.702 -0.0621 -0.6117  1.1736
  101SAPE  H15Y10285   2.016   2.224   4.844 -0.8429 -0.6370 -0.1114
  101SAPE  C31610286   2.008   2.389   4.683  0.2266  0.8934  0.6084
  101SAPE  H16X10287   1.931   2.430   4.614  1.7643  2.0169 -0.4693
  101SAPE  H16Y10288   2.081   2.339   4.616  0.5642 -1.9080  2.9909
  101SAPE  C31710289   2.084   2.492   4.772 -0.5779 -0.2775 -0.1624
  101SAPE  H17X10290   2.164   2.443   4.832  1.2897  1.5204 -1.1450
  101SAPE  H17Y10291   2.010   2.538   4.841 -0.1943  0.8751 -0.5006
  101SAPE  C31810292   2.144   2.608   4.693 -0.4411 -0.0710  0.4803
  101SAPE  H18X10293   2.184   2.570   4.596  0.8345 -1.5285  1.5525
  101SAPE  H18Y10294   2.225   2.658   4.749 -0.0995 -0.3640  0.2483
  101SAPE  H18Z10295   2.060   2.679   4.678  0.0525  0.7677  1.6279
  102SAPE     N10296   6.652   1.470   6.224  0.1400 -0.3021 -0.3907
  102SAPE   HN110297   6.666   1.431   6.320 -1.7238  0.6996  0.3067
  102SAPE   HN210298   6.724   1.542   6.202 -0.4545  0.8937  1.4474
  102SAPE   HN310299   6.558   1.515   6.229  0.1689 -0.3608  0.8479
  102SAPE   C1210300   6.649   1.366   6.123  0.2536 -0.3307  0.7432
  102SAPE  H12A10301   6.732   1.387   6.053  0.4482  2.7156  1.7994
  102SAPE  H12B10302   6.555   1.383   6.066  0.5579  0.5448  0.5011
  102SAPE   C1110303   6.641   1.222   6.169 -0.4021 -0.2839  0.1091
  102SAPE  H11A10304   6.723   1.218   6.244  0.8928  0.8077 -1.2189
  102SAPE  H11B10305   6.667   1.153   6.087 -1.9572 -0.0501 -0.5973
  102SAPE     P10306   6.506   1.160   6.383  0.0825  0.0524  0.6635
  102SAPE   O1310307   6.567   1.272   6.463 -0.1863 -0.0199 -0.7549
  102SAPE   O1410308   6.368   1.130   6.412 -0.2176  0.1164  0.5310
  102SAPE   O1210309   6.518   1.196   6.228  0.2860 -0.4900  0.0669
  102SAPE   O1110310   6.594   1.030   6.399  0.1006 -0.1058 -0.4254
  102SAPE    C110311   6.539   0.902   6.393 -0.4761  0.4040  0.3346
  102SAPE    HA10312   6.446   0.904   6.453  0.7330  0.2430  2.2404
  102SAPE    HB10313   6.523   0.874   6.286  0.7922 -0.1045  0.2654
  102SAPE    C210314   6.633   0.786   6.455  1.0959 -0.6558 -0.7054
  102SAPE    HS10315   6.616   0.781   6.565 -0.6897  2.4807 -0.7874
  102SAPE   O2110316   6.773   0.803   6.429 -0.2074 -0.1420  0.2086
  102SAPE   C2110317   6.839   0.892   6.501  0.1203 -0.1280  0.0547
  102SAPE   O2210318   6.801   0.944   6.606  0.0799 -0.3558 -0.6525
  102SAPE   C2210319   6.983   0.918   6.443  0.1416 -0.1893 -0.1500
  102SAPE   H2R10320   7.061   0.879   6.512  1.6067 -1.7880 -2.6453
  102SAPE   H2S10321   7.000   0.853   6.355  2.7548 -1.7234  1.4157
  102SAPE    C310322   6.580   0.653   6.394 -0.2033 -0.3387  0.8914
  102SAPE    HX10323   6.478   0.630   6.431  0.0694 -3.0143  0.0308
  102SAPE    HY10324   6.642   0.571   6.435  2.0213  0.1133 -1.3963
  102SAPE   O3110325   6.585   0.654   6.249  0.0507 -0.2072 -0.1572
  102SAPE   C3110326   6.702   0.600   6.201  0.2276  0.4483  0.4789
  102SAPE   O3210327   6.794   0.556   6.266 -0.2667  0.5085  0.0867
  102SAPE   C3210328   6.702   0.621   6.047 -0.4810  0.6347  0.3969
  102SAPE   H2X10329   6.610   0.578   6.002  0.5138  0.2377 -1.3080
  102SAPE   H2Y10330   6.789   0.565   6.005 -1.3834  1.1391 -2.2838
  102SAPE   C2310331   7.007   1.068   6.413  0.0681  0.1554 -0.2355
  102SAPE   H3R10332   7.023   1.122   6.509  0.7875  1.1570 -0.9063
  102SAPE   H3S10333   6.913   1.107   6.367 -0.4532 -0.9532 -0.1378
  102SAPE   C2410334   7.130   1.097   6.320 -1.0014 -0.3114  0.0989
  102SAPE   H4R10335   7.121   1.054   6.218  1.3747 -0.1597 -0.2095
  102SAPE   H4S10336   7.213   1.033   6.357 -0.3975  0.2391 -0.2694
  102SAPE   C2510337   7.184   1.241   6.310  0.3586  0.6733 -0.6675
  102SAPE   H5R10338   7.168   1.293   6.406  0.0308 -0.4359 -0.1100
  102SAPE   C2610339   7.243   1.300   6.212  0.5269  0.5672  0.7302
  102SAPE   H6R10340   7.268   1.407   6.216  1.3896  0.3242  2.1361
  102SAPE   C2710341   7.271   1.235   6.073  0.5567  0.1270  0.0711
  102SAPE   H7R10342   7.306   1.312   6.001  1.2502 -1.1930 -1.0275
  102SAPE   H7S10343   7.175   1.192   6.038 -0.7704  1.0314  2.4706
  102SAPE   C2810344   7.376   1.124   6.070 -0.2991  1.2079  0.5474
  102SAPE   H8R10345   7.346   1.041   6.137 -1.5197  0.0807 -1.3448
  102SAPE   C2910346   7.467   1.093   5.974  0.1593  0.1592 -0.5964
  102SAPE   H9R10347   7.534   1.008   5.994  2.3226  1.4902 -1.9627
  102SAPE  C21010348   7.491   1.184   5.854  0.0099  0.2235 -0.4489
  102SAPE  H10R10349   7.448   1.284   5.872  1.3584  0.7375  0.0153
  102SAPE  H10S10350   7.454   1.137   5.760 -0.2878  2.4063 -1.4528
  102SAPE  C21110351   7.635   1.205   5.834 -0.6762  0.4812 -0.2626
  102SAPE  H11R10352   7.678   1.297   5.878 -1.4012  2.1737 -2.9908
  102SAPE  C21210353   7.709   1.121   5.761 -0.1176  0.2548  0.3376
  102SAPE  H12R10354   7.816   1.146   5.754  0.0211 -0.2026  0.8043
  102SAPE  C21310355   7.670   0.990   5.696 -0.1272 -0.0027 -0.4921
  102SAPE  H13R10356   7.635   1.013   5.593 -1.5521 -1.3017 -0.3277
  102SAPE  H13S10357   7.586   0.942   5.751 -0.4364 -0.2276 -1.1549
  102SAPE  C21410358   7.777   0.887   5.677 -0.8703 -0.7814 -0.4997
  102SAPE  H14R10359   7.768   0.797   5.740  0.6827 -0.2425  0.5248
  102SAPE  C21510360   7.875   0.899   5.589 -0.1020  0.9291  0.6550
  102SAPE  H15R10361   7.946   0.815   5.582  0.3500  1.4834 -1.8650
  102SAPE  C21610362   7.898   1.010   5.495  0.0058 -0.1768 -0.1445
  102SAPE  H16R10363   7.988   1.073   5.512  0.0384 -0.4974  0.8643
  102SAPE  H16S10364   7.807   1.074   5.496 -0.0103 -0.1482 -1.6889
  102SAPE  C21710365   7.913   0.954   5.345  0.3616  0.1558  0.5295
  102SAPE  H17R10366   7.899   1.045   5.283  2.2295 -0.2924 -0.5969
  102SAPE  H17S10367   7.827   0.891   5.314  1.2435  0.3274 -2.3615
  102SAPE  C21810368   8.049   0.899   5.319 -0.1411 -0.1885  0.1787
  102SAPE  H18R10369   8.056   0.796   5.361 -1.3171 -0.3852 -0.0751
  102SAPE  H18S10370   8.127   0.963   5.364 -0.1506  0.3410 -0.5612
  102SAPE  C21910371   8.078   0.876   5.170  0.2280  0.3115  0.1271
  102SAPE  H19R10372   8.067   0.976   5.123  1.0911  0.7868  0.9048
  102SAPE  H19S10373   7.997   0.815   5.125 -0.5549  2.5162 -1.5138
  102SAPE  C22010374   8.212   0.814   5.139  0.5691  0.7004 -0.8314
  102SAPE  H20R10375   8.224   0.709   5.173 -1.2109  0.6211 -0.4130
  102SAPE  H20S10376   8.301   0.869   5.178  0.7435 -1.2025  1.5047
  102SAPE  H20T10377   8.218   0.810   5.028 -0.8387 -1.5111 -0.8478
  102SAPE   C3310378   6.712   0.761   6.006  0.1213 -0.1268  0.1890
  102SAPE   H3X10379   6.640   0.815   6.071  0.2353 -1.0630  1.1024
  102SAPE   H3Y10380   6.672   0.771   5.903 -0.7554  0.8773  0.6101
  102SAPE   C3410381   6.849   0.825   6.017  0.0730 -0.2930 -0.3058
  102SAPE   H4X10382   6.926   0.758   6.062  1.7719  2.5181  1.1584
  102SAPE   H4Y10383   6.837   0.911   6.085 -1.0302 -1.1033  0.5346
  102SAPE   C3510384   6.898   0.877   5.879  0.3369 -0.0399  0.1278
  102SAPE   H5X10385   6.821   0.935   5.823 -0.2333 -0.0333  0.8916
  102SAPE   H5Y10386   6.936   0.791   5.821 -1.0987  0.0056 -0.9137
  102SAPE   C3610387   7.020   0.962   5.900  0.0455  0.1732 -0.2987
  102SAPE   H6X10388   7.053   0.959   6.006  1.9084  0.3272 -0.8450
  102SAPE   H6Y10389   6.992   1.066   5.872 -1.0344  0.3011  1.2300
  102SAPE   C3710390   7.140   0.920   5.809 -0.5777  0.1402  0.1349
  102SAPE   H7X10391   7.155   0.813   5.837 -1.9940  0.0364  0.5249
  102SAPE   H7Y10392   7.231   0.972   5.845 -0.2304 -1.8598  2.2725
  102SAPE   C3810393   7.114   0.946   5.661  0.5997 -0.0934  0.5879
  102SAPE   H8X10394   7.136   1.054   5.645  0.3320  0.2172  2.2591
  102SAPE   H8Y10395   7.011   0.920   5.627  0.2815 -1.3584  2.4809
  102SAPE   C3910396   7.219   0.884   5.569 -0.0991 -0.0075  0.0603
  102SAPE   H9X10397   7.241   0.776   5.585 -0.3783 -0.1553 -0.4999
  102SAPE   H9Y10398   7.318   0.926   5.596 -0.1319 -0.8683  1.5349
  102SAPE  C31010399   7.186   0.899   5.419  0.4265  0.8406  0.4386
  102SAPE  H10X10400   7.133   0.807   5.388 -0.4761  1.2888  0.6351
  102SAPE  H10Y10401   7.272   0.882   5.350 -0.1244  3.0810 -0.8309
  102SAPE  C31110402   7.130   1.035   5.372 -0.6255  0.2494  0.0124
  102SAPE  H11X10403   7.205   1.116   5.365 -2.0465  1.5859 -0.1033
  102SAPE  H11Y10404   7.056   1.078   5.442 -1.1142  0.4293 -0.6081
  102SAPE  C31210405   7.073   1.032   5.236  1.0598  0.5607 -0.0110
  102SAPE  H12X10406   7.008   1.121   5.223  1.8658  1.4012  1.5577
  102SAPE  H12Y10407   7.013   0.939   5.228  0.9004  0.6980 -0.4249
  102SAPE  C31310408   7.170   1.027   5.115  0.8067 -0.1322 -0.4780
  102SAPE  H13X10409   7.233   1.119   5.115  2.4519 -1.2506 -0.6343
  102SAPE  H13Y10410   7.101   1.033   5.028  1.0408 -5.2442 -1.1216
  102SAPE  C31410411   7.237   0.892   5.084  0.2679 -0.5498 -0.2949
  102SAPE  H14X10412   7.166   0.809   5.102 -1.0826  0.3209 -1.4510
  102SAPE  H14Y10413   7.316   0.866   5.157 -0.1152 -2.1849 -0.4407
  102SAPE  C31510414   7.274   0.894   4.936  0.5153  0.1109  0.3631
  102SAPE  H15X10415   7.332   0.986   4.917 -1.2973  1.6332  2.0431
  102SAPE  H15Y10416   7.182   0.899   4.873 -1.0671  0.2473  2.6485
  102SAPE  C31610417   7.344   0.760   4.902 -1.1184  0.2329 -0.2357
  102SAPE  H16X10418   7.274   0.675   4.918 -1.2531  0.3114 -0.4027
  102SAPE  H16Y10419   7.432   0.732   4.964  0.0082 -1.0411 -2.3657
  102SAPE  C31710420   7.390   0.765   4.759  0.4615  0.3930 -0.0741
  102SAPE  H17X10421   7.439   0.669   4.731  0.1066 -0.8106  3.2431
  102SAPE  H17Y10422   7.467   0.844   4.749 -0.1589  0.9777 -0.2391
  102SAPE  C31810423   7.284   0.787   4.650  0.1474  0.5957  0.8409
  102SAPE  H18X10424   7.204   0.710   4.655 -0.5472  1.1437 -1.2565
  102SAPE  H18Y10425   7.326   0.777   4.547 -1.5755  0.3935  0.1390
  102SAPE  H18Z10426   7.228   0.883   4.658 -1.2866 -0.1089 -0.4708
  103SAPE     N10427   2.914   4.157   1.818 -0.0051  1.0483 -0.1882
  103SAPE   HN110428   2.826   4.113   1.782 -1.2172  1.7576  1.8600
  103SAPE   HN210429   2.907   4.260   1.822 -2.8924  0.9252 -0.4156
  103SAPE   HN310430   2.994   4.127   1.758 -0.3013  0.0725 -0.1151
  103SAPE   C1210431   2.930   4.108   1.957  0.4818 -0.3661  0.2657
  103SAPE  H12A10432   3.023   4.157   1.995  0.0886 -0.2728  1.1162
  103SAPE  H12B10433   2.955   4.000   1.954 -0.9916 -0.7698  2.0621
  103SAPE   C1110434   2.817   4.154   2.057 -0.5794  0.7425 -0.5718
  103SAPE  H11A10435   2.852   4.102   2.148 -0.1182  1.9812 -0.0322
  103SAPE  H11B10436   2.724   4.108   2.018 -1.2688  0.7656  1.0133
  103SAPE     P10437   2.701   4.356   2.156 -0.1496 -0.2900 -0.4726
  103SAPE   O1310438   2.714   4.498   2.183 -0.0146 -0.3225 -0.7930
  103SAPE   O1410439   2.579   4.324   2.070 -0.3650  0.4726 -0.0726
  103SAPE   O1210440   2.828   4.298   2.084  0.1406  0.7598  0.2888
  103SAPE   O1110441   2.666   4.282   2.299 -0.4425 -0.0151  0.3919
  103SAPE    C110442   2.787   4.257   2.380  0.5248 -0.1927 -0.1699
  103SAPE    HA10443   2.875   4.241   2.314 -0.4225  1.3753 -1.8348
  103SAPE    HB10444   2.800   4.342   2.451 -1.8449  0.5384 -0.5723
  103SAPE    C210445   2.771   4.132   2.480  0.3267  0.5331  0.3807
  103SAPE    HS10446   2.760   4.050   2.406  1.1552  0.3644  0.4480
  103SAPE   O2110447   2.651   4.155   2.562  0.2614  0.1421 -0.5875
  103SAPE   C2110448   2.603   4.044   2.618  0.1434  0.4969  0.2167
  103SAPE   O2210449   2.647   3.932   2.604  0.3053 -0.0776 -0.1554
  103SAPE   C2210450   2.470   4.073   2.689 -0.2495 -0.1188  0.9009
  103SAPE   H2R10451   2.488   4.180   2.712  2.2750 -0.5528  1.0819
  103SAPE   H2S10452   2.389   4.062   2.614  0.9795  0.5121 -0.5542
  103SAPE    C310453   2.895   4.112   2.577 -0.1065  0.1896  0.0427
  103SAPE    HX10454   2.980   4.099   2.507 -0.2596 -1.5501  0.1519
  103SAPE    HY10455   2.894   4.018   2.635  0.1197  0.1163 -0.0702
  103SAPE   O3110456   2.912   4.235   2.658 -0.2858  0.5161 -0.1782
  103SAPE   C3110457   2.869   4.228   2.783 -0.0051  0.6988  0.4867
  103SAPE   O3210458   2.823   4.128   2.835  0.1557 -0.4325  0.1246
  103SAPE   C3210459   2.897   4.365   2.846 -0.2492 -0.4304  0.1623
  103SAPE   H2X10460   2.872   4.453   2.783 -0.8224  0.1448  1.1747
  103SAPE   H2Y10461   3.006   4.370   2.864 -0.3758  0.7753  0.6056
  103SAPE   C2310462   2.454   3.996   2.819 -0.1432 -0.7137  0.0013
  103SAPE   H3R10463   2.523   4.033   2.898 -1.4129 -0.9393  1.2446
  103SAPE   H3S10464   2.487   3.891   2.804  0.0554 -0.4933 -1.1209
  103SAPE   C2410465   2.305   3.985   2.865  0.2016  0.2232 -1.2523
  103SAPE   H4R10466   2.241   3.917   2.805 -0.9002  0.0623  0.0978
  103SAPE   H4S10467   2.269   4.090   2.867  1.3336  0.5956  1.2863
  103SAPE   C2510468   2.282   3.926   3.004  0.1885  0.3052  0.2073
  103SAPE   H5R10469   2.314   3.821   3.008  0.2840  0.3309  0.1176
  103SAPE   C2610470   2.237   3.993   3.111 -0.5998  0.0034  0.4647
  103SAPE   H6R10471   2.231   3.924   3.197 -0.6225 -0.3719  0.1665
  103SAPE   C2710472   2.197   4.138   3.144 -0.7802  0.4497  0.1337
  103SAPE   H7R10473   2.106   4.141   3.207 -0.5630 -0.4115  0.4909
  103SAPE   H7S10474   2.166   4.196   3.054 -1.4512  0.5345  0.4148
  103SAPE   C2810475   2.319   4.203   3.207 -0.3318 -0.5904  0.2149
  103SAPE   H8R10476   2.419   4.180   3.167 -0.3552  0.9939 -0.7927
  103SAPE   C2910477   2.302   4.286   3.314 -0.8626 -0.7781  0.2893
  103SAPE   H9R10478   2.388   4.348   3.342 -1.4172  0.1592 -0.0454
  103SAPE  C21010479   2.173   4.324   3.387 -0.7079  0.2316 -0.4872
  103SAPE  H10R10480   2.119   4.229   3.409  1.8553 -1.5663 -1.5936
  103SAPE  H10S10481   2.122   4.378   3.305 -1.5626  0.6304  0.3016
  103SAPE  C21110482   2.187   4.418   3.507 -0.1307 -0.2619 -0.9460
  103SAPE  H11R10483   2.269   4.489   3.492 -0.1168  0.3468  1.8636
  103SAPE  C21210484   2.115   4.408   3.621 -0.7446  0.4725  0.0342
  103SAPE  H12R10485   2.133   4.475   3.706  0.9036 -1.7628  1.4571
  103SAPE  C21310486   2.003   4.314   3.650 -1.1687 -0.7070  0.1927
  103SAPE  H13R10487   1.963   4.296   3.548 -1.8116  1.4948  0.0372
  103SAPE  H13S10488   1.926   4.367   3.710 -1.4924  0.6385 -1.3848
  103SAPE  C21410489   2.048   4.190   3.715  0.0604  0.9772  0.6249
  103SAPE  H14R10490   2.146   4.181   3.762  0.2540 -2.1073 -0.2769
  103SAPE  C21510491   1.955   4.093   3.746  0.0251 -0.1349  0.2178
  103SAPE  H15R10492   1.992   4.014   3.812  2.2383 -1.6753 -2.7321
  103SAPE  C21610493   1.807   4.093   3.722 -0.1321  0.0122  0.5252
  103SAPE  H16R10494   1.773   4.183   3.666  1.0552  1.1836  1.6716
  103SAPE  H16S10495   1.754   4.092   3.820  0.2967  0.1658  0.7595
  103SAPE  C21710496   1.779   3.970   3.632 -0.1834 -0.1620 -0.0692
  103SAPE  H17R10497   1.671   3.944   3.643 -0.5319  0.4426 -1.7456
  103SAPE  H17S10498   1.841   3.885   3.666  0.6932  0.5401  0.1006
  103SAPE  C21810499   1.805   3.996   3.487 -1.0250  0.1732  0.4410
  103SAPE  H18R10500   1.813   3.901   3.428  0.1241  1.4570 -1.5460
  103SAPE  H18S10501   1.904   4.043   3.468 -0.6445 -1.0454 -0.7107
  103SAPE  C21910502   1.708   4.093   3.414 -0.5589  0.2321 -0.2778
  103SAPE  H19R10503   1.682   4.171   3.488  0.6218 -0.4392  0.8664
  103SAPE  H19S10504   1.618   4.033   3.388  0.6419 -1.5244 -0.4928
  103SAPE  C22010505   1.772   4.162   3.287 -0.3286 -0.2393 -0.4522
  103SAPE  H20R10506   1.869   4.210   3.315 -0.4953  0.7415 -1.5275
  103SAPE  H20S10507   1.691   4.235   3.267 -0.4766 -0.4024 -0.4400
  103SAPE  H20T10508   1.781   4.090   3.204  0.8656  1.1368 -1.5434
  103SAPE   C3310509   2.838   4.377   2.988  0.6958  0.6209 -0.1870
  103SAPE   H3X10510   2.843   4.280   3.041  2.4603  0.5041 -0.5509
  103SAPE   H3Y10511   2.730   4.396   2.966  0.6303 -1.1074 -1.4825
  103SAPE   C3410512   2.901   4.490   3.067 -0.6617 -0.5530  0.1464
  103SAPE   H4X10513   2.881   4.585   3.013 -0.6962 -0.5009  0.2494
  103SAPE   H4Y10514   3.011   4.473   3.075 -0.6288 -0.9614 -1.0389
  103SAPE   C3510515   2.856   4.518   3.215 -0.2888  0.1412  0.2472
  103SAPE   H5X10516   2.749   4.490   3.226 -0.4936  0.8887  0.1887
  103SAPE   H5Y10517   2.863   4.628   3.229 -1.4613  0.2686 -0.1401
  103SAPE   C3610518   2.943   4.453   3.316 -1.1458  0.3380  0.1333
  103SAPE   H6X10519   3.047   4.491   3.309 -1.5644  1.0613 -2.8148
  103SAPE   H6Y10520   2.947   4.344   3.295 -0.5001  0.2201  0.8454
  103SAPE   C3710521   2.907   4.471   3.466  0.2735  0.6697  0.5957
  103SAPE   H7X10522   2.815   4.411   3.472 -1.0171  2.2905 -2.2692
  103SAPE   H7Y10523   2.882   4.573   3.505 -2.3934 -0.2975  1.4686
  103SAPE   C3810524   3.015   4.414   3.558  0.5872  0.3766 -0.7104
  103SAPE   H8X10525   3.112   4.442   3.513  0.8428 -0.5100 -0.7278
  103SAPE   H8Y10526   3.012   4.303   3.563  2.4733  0.3460  0.5386
  103SAPE   C3910527   3.007   4.461   3.701 -0.4960 -0.5620  0.4516
  103SAPE   H9X10528   2.908   4.443   3.747 -0.5962  1.3229  1.0090
  103SAPE   H9Y10529   3.016   4.572   3.699 -1.2970 -0.5001  0.1775
  103SAPE  C31010530   3.123   4.414   3.784 -0.8109  0.1574 -0.2405
  103SAPE  H10X10531   3.222   4.441   3.742 -0.4424  0.1538  0.6116
  103SAPE  H10Y10532   3.128   4.303   3.782 -1.5245  0.1342 -1.1442
  103SAPE  C31110533   3.114   4.461   3.934 -0.1009  0.0208  0.7625
  103SAPE  H11X10534   3.014   4.430   3.973 -0.7463  1.4099  0.2548
  103SAPE  H11Y10535   3.119   4.570   3.950 -0.3651  0.4357 -1.7663
  103SAPE  C31210536   3.212   4.391   4.030  0.0972  0.0975  0.0564
  103SAPE  H12X10537   3.317   4.408   3.997 -0.4822  1.3380 -1.2044
  103SAPE  H12Y10538   3.192   4.284   4.007 -0.2772  0.2409 -0.2873
  103SAPE  C31310539   3.200   4.437   4.175 -0.9504 -0.3524  0.5968
  103SAPE  H13X10540   3.132   4.373   4.235 -0.5147  1.5468  3.1875
  103SAPE  H13Y10541   3.171   4.544   4.169 -2.3021 -0.4885  3.8465
  103SAPE  C31410542   3.336   4.438   4.249 -0.1772  0.0318  0.2046
  103SAPE  H14X10543   3.412   4.469   4.175  1.5089 -0.8200  1.5564
  103SAPE  H14Y10544   3.360   4.336   4.286 -3.1089 -1.9294 -2.9699
  103SAPE  C31510545   3.340   4.545   4.367 -0.4286 -0.2133 -0.5874
  103SAPE  H15X10546   3.406   4.518   4.452 -0.1893 -0.2021 -0.7688
  103SAPE  H15Y10547   3.240   4.548   4.415 -1.7604 -3.9302 -2.8739
  103SAPE  C31610548   3.362   4.684   4.316  0.1493 -0.6950 -0.2322
  103SAPE  H16X10549   3.285   4.701   4.238 -0.0109  0.2262  0.1185
  103SAPE  H16Y10550   3.465   4.687   4.275  0.6332  1.8578  1.0854
  103SAPE  C31710551   3.334   4.792   4.426  0.0099 -0.2174  0.1067
  103SAPE  H17X10552   3.388   4.885   4.398 -1.5385  0.6317 -0.1168
  103SAPE  H17Y10553   3.368   4.764   4.528 -1.8086  0.0179  0.7885
  103SAPE  C31810554   3.183   4.830   4.431  0.3054  0.1139 -0.6356
  103SAPE  H18X10555   3.154   4.890   4.342  1.2564  0.8208 -0.4793
  103SAPE  H18Y10556   3.150   4.888   4.519 -0.2355 -1.9160  0.5413
  103SAPE  H18Z10557   3.121   4.738   4.437 -1.6449  1.4514  0.0604
  104SAPE     N10558   1.964   2.196   2.311  0.1992 -0.4327 -0.7903
  104SAPE   HN110559   1.967   2.272   2.382  0.4003 -1.0968 -0.0755
  104SAPE   HN210560   1.871   2.152   2.324 -0.5049  0.4761 -2.5722
  104SAPE   HN310561   2.037   2.129   2.343  0.8889 -0.8130 -3.0672
  104SAPE   C1210562   1.975   2.250   2.170 -0.0854 -0.0094 -0.6212
  104SAPE  H12A10563   1.905   2.335   2.158 -1.4637 -1.4283 -2.9299
  104SAPE  H12B10564   1.939   2.176   2.096  0.8333 -0.6021 -0.4929
  104SAPE   C1110565   2.120   2.297   2.155 -0.7009  0.6581 -1.1853
  104SAPE  H11A10566   2.127   2.339   2.052  1.4208  3.1663 -0.0759
  104SAPE  H11B10567   2.192   2.213   2.168  0.3738  1.6602 -0.5906
  104SAPE     P10568   2.291   2.477   2.253  0.1406 -0.0006 -0.2221
  104SAPE   O1310569   2.395   2.386   2.198  0.0727  0.4215 -0.3830
  104SAPE   O1410570   2.292   2.616   2.209 -0.1940  0.0334  0.4247
  104SAPE   O1210571   2.149   2.416   2.240  0.1736  0.6540 -0.3399
  104SAPE   O1110572   2.294   2.484   2.408 -0.2679  0.4997 -0.0216
  104SAPE    C110573   2.391   2.576   2.469  0.0810  0.5103 -0.0940
  104SAPE    HA10574   2.437   2.528   2.558 -1.8209 -0.5907  0.3368
  104SAPE    HB10575   2.477   2.599   2.403 -2.1465  2.6227 -2.3780
  104SAPE    C210576   2.341   2.715   2.533  0.3842  0.4697 -0.1101
  104SAPE    HS10577   2.305   2.775   2.446  2.9008  0.6267 -1.0765
  104SAPE   O2110578   2.448   2.784   2.599 -1.0159  0.5735  0.5199
  104SAPE   C2110579   2.428   2.911   2.616 -0.5462 -0.4742 -0.7124
  104SAPE   O2210580   2.325   2.978   2.589  0.1121  0.6671  0.3927
  104SAPE   C2210581   2.550   2.973   2.690  0.8495 -0.2413  0.8066
  104SAPE   H2R10582   2.592   2.893   2.753 -0.7060 -1.5149  0.2627
  104SAPE   H2S10583   2.629   2.988   2.614  1.4189  0.7344  1.5822
  104SAPE    C310584   2.216   2.699   2.621  0.1294 -0.3659  0.2407
  104SAPE    HX10585   2.133   2.660   2.558  1.0891 -1.5379 -0.3118
  104SAPE    HY10586   2.182   2.802   2.645  3.1202  1.6664 -3.6676
  104SAPE   O3110587   2.241   2.620   2.740 -0.1397 -0.0958 -0.2931
  104SAPE   C3110588   2.287   2.674   2.850 -0.3152 -0.5829 -0.2417
  104SAPE   O3210589   2.304   2.794   2.876  0.3730  0.3966  0.5702
  104SAPE   C3210590   2.304   2.559   2.952 -0.5564 -0.2630  0.2411
  104SAPE   H2X10591   2.380   2.491   2.910  0.3261  1.2769 -0.6878
  104SAPE   H2Y10592   2.204   2.510   2.951 -0.3989 -1.0465  5.3123
  104SAPE   C2310593   2.510   3.104   2.765  0.5588  0.6246 -0.0740
  104SAPE   H3R10594   2.430   3.074   2.836 -0.5755 -2.2838 -2.4601
  104SAPE   H3S10595   2.477   3.184   2.695  1.2756  1.8248  0.9321
  104SAPE   C2410596   2.640   3.153   2.837  0.0127 -0.0692  0.1191
  104SAPE   H4R10597   2.712   3.192   2.762 -0.4436  1.4038  0.4129
  104SAPE   H4S10598   2.686   3.066   2.888  2.1019  0.6171 -0.5523
  104SAPE   C2510599   2.601   3.260   2.941 -0.1408  0.7193 -0.0281
  104SAPE   H5R10600   2.571   3.356   2.896  0.1535  1.1481  0.6651
  104SAPE   C2610601   2.602   3.246   3.074  0.0014  0.1612 -0.7444
  104SAPE   H6R10602   2.572   3.330   3.139  0.4218 -1.3515  1.4511
  104SAPE   C2710603   2.646   3.121   3.148 -0.4677  0.0124  0.4428
  104SAPE   H7R10604   2.678   3.159   3.247 -2.0574  0.0313  0.9725
  104SAPE   H7S10605   2.737   3.067   3.113 -0.5423 -0.1960  0.5669
  104SAPE   C2810606   2.541   3.015   3.156  0.1207  0.3090 -0.0279
  104SAPE   H8R10607   2.490   2.996   3.061  1.7396  1.7304 -1.2038
  104SAPE   C2910608   2.502   2.945   3.270 -0.0544  0.4928  0.3071
  104SAPE   H9R10609   2.434   2.859   3.263  2.2824 -1.4428  0.9890
  104SAPE  C21010610   2.567   2.977   3.409 -0.3813  0.4670 -0.1614
  104SAPE  H10R10611   2.485   2.953   3.481 -0.8577  0.6307 -0.6481
  104SAPE  H10S10612   2.604   3.081   3.416 -0.1821  0.4701 -1.2372
  104SAPE  C21110613   2.694   2.897   3.450  0.3473  0.6748 -0.2992
  104SAPE  H11R10614   2.734   2.835   3.368 -0.5477 -1.6586  1.0077
  104SAPE  C21210615   2.749   2.894   3.577 -0.1668 -0.0170 -0.2785
  104SAPE  H12R10616   2.835   2.829   3.601  0.6321  0.4559 -1.8245
  104SAPE  C21310617   2.702   2.978   3.702  0.3755  0.2014  0.2289
  104SAPE  H13R10618   2.684   2.923   3.797  1.8266  0.1800  0.4963
  104SAPE  H13S10619   2.605   3.029   3.682  1.1860  1.7688  0.1567
  104SAPE  C21410620   2.801   3.090   3.730 -0.2488  0.5193 -0.5009
  104SAPE  H14R10621   2.862   3.130   3.648 -0.3920 -0.2156 -0.9645
  104SAPE  C21510622   2.804   3.152   3.850 -0.0965  0.6015  0.1573
  104SAPE  H15R10623   2.868   3.239   3.870  0.5680 -0.3049  2.1777
  104SAPE  C21610624   2.718   3.107   3.974  0.5953 -0.3638  0.3870
  104SAPE  H16R10625   2.740   3.001   3.996  0.1822 -1.1396 -2.7231
  104SAPE  H16S10626   2.611   3.104   3.945  0.5121  0.1913  0.6221
  104SAPE  C21710627   2.734   3.192   4.096 -0.1535 -0.9099  0.4580
  104SAPE  H17R10628   2.708   3.292   4.056 -0.4047 -1.0561  0.2550
  104SAPE  H17S10629   2.844   3.190   4.114  0.5070  0.6636 -2.9780
  104SAPE  C21810630   2.656   3.152   4.228  0.3128 -0.4456 -0.3321
  104SAPE  H18R10631   2.696   3.218   4.309 -1.5504  0.3661 -0.0550
  104SAPE  H18S10632   2.698   3.054   4.257  0.8202 -0.1040  0.1028
  104SAPE  C21910633   2.510   3.165   4.223  0.6663  0.3134  0.4810
  104SAPE  H19R10634   2.481   3.100   4.138  0.3917  1.5118 -0.3459
  104SAPE  H19S10635   2.484   3.272   4.211  0.2385  0.2999  1.2568
  104SAPE  C22010636   2.427   3.120   4.344 -0.2128  0.7027 -0.9709
  104SAPE  H20R10637   2.384   3.209   4.395 -1.3800  0.5822 -1.7109
  104SAPE  H20S10638   2.485   3.070   4.424 -1.4751  1.8196  0.6708
  104SAPE  H20T10639   2.339   3.058   4.315 -0.4880  0.3457  0.6048
  104SAPE   C3310640   2.338   2.618   3.091  0.2119 -0.1786  0.7159
  104SAPE   H3X10641   2.246   2.661   3.137  1.3429  2.4862  0.5747
  104SAPE   H3Y10642   2.412   2.700   3.078 -0.9927  0.9627  0.8744
  104SAPE   C3410643   2.389   2.508   3.188 -0.4519  0.1598 -0.1322
  104SAPE   H4X10644   2.464   2.449   3.132 -0.3650 -0.2922  0.4537
  104SAPE   H4Y10645   2.300   2.444   3.209  0.1132 -0.4846  0.3259
  104SAPE   C3510646   2.446   2.554   3.319 -0.5291 -0.5189  0.7318
  104SAPE   H5X10647   2.528   2.628   3.303 -0.4206 -1.1202 -1.7271
  104SAPE   H5Y10648   2.483   2.467   3.377  0.8299 -1.1423 -1.0104
  104SAPE   C3610649   2.342   2.618   3.410 -0.1374 -0.3550 -0.7914
  104SAPE   H6X10650   2.266   2.539   3.429  1.0585 -1.0837  1.1283
  104SAPE   H6Y10651   2.283   2.702   3.368 -0.0297  1.6755  2.8705
  104SAPE   C3710652   2.410   2.649   3.543  0.7629  0.3544 -0.6961
  104SAPE   H7X10653   2.481   2.734   3.543  0.4689  0.5994 -1.0419
  104SAPE   H7Y10654   2.466   2.558   3.572  3.2641  1.6850 -1.2543
  104SAPE   C3810655   2.307   2.690   3.652 -0.4637 -0.1260 -0.3719
  104SAPE   H8X10656   2.230   2.612   3.666 -1.9957  1.4326 -0.0532
  104SAPE   H8Y10657   2.252   2.777   3.611  0.2292  1.0895  1.2276
  104SAPE   C3910658   2.385   2.732   3.775  0.2354  0.3680 -0.7040
  104SAPE   H9X10659   2.469   2.801   3.755 -0.2151  0.9670 -0.5341
  104SAPE   H9Y10660   2.439   2.645   3.818  2.5967  0.8594 -2.5751
  104SAPE  C31010661   2.300   2.792   3.896 -0.2798  0.4329 -0.4099
  104SAPE  H10X10662   2.218   2.722   3.921 -0.4274  0.5649 -0.5210
  104SAPE  H10Y10663   2.242   2.880   3.860 -1.8195 -0.9556 -1.3500
  104SAPE  C31110664   2.383   2.835   4.008  0.2640  0.4910 -0.5971
  104SAPE  H11X10665   2.331   2.913   4.067  0.5189 -0.6280  1.1667
  104SAPE  H11Y10666   2.483   2.865   3.972  0.8633  1.4543  1.8132
  104SAPE  C31210667   2.418   2.722   4.105  0.3006 -0.3927  0.3529
  104SAPE  H12X10668   2.467   2.638   4.051  1.6057  2.7238 -3.5550
  104SAPE  H12Y10669   2.320   2.698   4.151 -1.1847 -1.7121 -3.2990
  104SAPE  C31310670   2.514   2.761   4.217 -0.1964  0.1219  0.0756
  104SAPE  H13X10671   2.484   2.855   4.267  0.7444  0.4494  0.0310
  104SAPE  H13Y10672   2.610   2.782   4.166  0.2476 -0.9483  0.4423
  104SAPE  C31410673   2.529   2.646   4.320 -0.4678 -0.1105 -0.8058
  104SAPE  H14X10674   2.555   2.543   4.286 -0.2668  0.1199 -1.3415
  104SAPE  H14Y10675   2.426   2.639   4.362 -0.0042 -1.4340  0.1514
  104SAPE  C31510676   2.613   2.694   4.435 -0.4428  0.3718 -0.2046
  104SAPE  H15X10677   2.591   2.799   4.462 -0.7607 -0.0147  1.1015
  104SAPE  H15Y10678   2.713   2.697   4.387  0.3126 -2.8701  1.0368
  104SAPE  C31610679   2.618   2.594   4.544  0.2450  0.3826  0.3038
  104SAPE  H16X10680   2.694   2.514   4.531  1.1746  1.3892 -0.5572
  104SAPE  H16Y10681   2.516   2.554   4.561  0.4817  0.4637  1.9419
  104SAPE  C31710682   2.665   2.653   4.683  0.3410  0.4950 -0.0193
  104SAPE  H17X10683   2.699   2.758   4.676  0.6337  0.2946 -1.7352
  104SAPE  H17Y10684   2.756   2.604   4.722 -0.4192  0.7223  2.1075
  104SAPE  C31810685   2.559   2.646   4.792  0.2146  0.1333 -0.5296
  104SAPE  H18X10686   2.496   2.737   4.784 -1.6773 -0.9765  1.0951
  104SAPE  H18Y10687   2.606   2.653   4.892  0.3277 -5.8514  0.0084
  104SAPE  H18Z10688   2.497   2.554   4.776  1.3081 -0.2481 -2.7291
  105SAPE     N10689   5.740   2.347   2.250  0.1833 -0.1931  0.2420
  105SAPE   HN110690   5.730   2.243   2.251 -1.2581 -0.1000 -1.2743
  105SAPE   HN210691   5.643   2.372   2.219 -0.4502  1.6173  3.5244
  105SAPE   HN310692   5.809   2.374   2.177 -0.1968 -0.8447 -0.3664
  105SAPE   C1210693   5.779   2.416   2.376  0.4967  0.8747  0.5252
  105SAPE  H12A10694   5.862   2.355   2.420  0.5732  1.9820  1.9276
  105SAPE  H12B10695   5.697   2.393   2.447  0.1329 -3.6674 -1.1671
  105SAPE   C1110696   5.807   2.558   2.350 -0.3968  0.2283 -0.0081
  105SAPE  H11A10697   5.912   2.571   2.314 -1.4489  1.8072 -2.6741
  105SAPE  H11B10698   5.797   2.619   2.443  0.1402  1.2073 -0.5806
  105SAPE     P10699   5.737   2.771   2.203 -0.0061  0.0902 -0.0343
  105SAPE   O1310700   5.843   2.825   2.300 -0.1764  0.0961  0.7923
  105SAPE   O1410701   5.758   2.780   2.055 -0.2377 -0.0608 -0.1491
  105SAPE   O1210702   5.717   2.614   2.252  0.0822 -0.2744  0.0575
  105SAPE   O1110703   5.602   2.846   2.231 -0.1997 -0.1418 -0.2678
  105SAPE    C110704   5.525   2.813   2.351  0.0621 -0.2772  0.1444
  105SAPE    HA10705   5.486   2.710   2.337  0.3891 -0.4518  0.5058
  105SAPE    HB10706   5.594   2.804   2.438  2.2934  1.8203 -1.3456
  105SAPE    C210707   5.407   2.906   2.390 -0.0872  0.1164  0.6061
  105SAPE    HS10708   5.354   2.925   2.294 -2.5704  2.8024  2.4455
  105SAPE   O2110709   5.461   3.036   2.436 -0.0610  0.2808 -0.0464
  105SAPE   C2110710   5.375   3.137   2.454 -0.0555 -0.7591 -0.4675
  105SAPE   O2210711   5.256   3.141   2.435 -0.2031  0.8255  0.3590
  105SAPE   C2210712   5.451   3.263   2.491 -0.0227  0.6329  0.6055
  105SAPE   H2R10713   5.546   3.241   2.543  0.0450  0.1209  0.2648
  105SAPE   H2S10714   5.473   3.327   2.403 -1.8535  0.4791  0.0176
  105SAPE    C310715   5.314   2.832   2.480 -0.2028 -0.8293  0.4236
  105SAPE    HX10716   5.273   2.750   2.417  0.0383  0.2865 -1.2313
  105SAPE    HY10717   5.226   2.898   2.496 -0.9211 -1.7184  0.1557
  105SAPE   O3110718   5.385   2.791   2.605  0.1955 -0.2240  0.1382
  105SAPE   C3110719   5.309   2.729   2.689 -0.4870  0.0476  0.3680
  105SAPE   O3210720   5.195   2.690   2.672 -0.1427  0.0592  0.3475
  105SAPE   C3210721   5.390   2.712   2.819  0.1580 -0.1897 -0.6865
  105SAPE   H2X10722   5.382   2.814   2.863 -1.0701  0.0866 -1.5433
  105SAPE   H2Y10723   5.497   2.687   2.799  0.6513  1.7064 -0.5370
  105SAPE   C2310724   5.368   3.341   2.596 -1.0666  0.1825  0.5691
  105SAPE   H3R10725   5.285   3.393   2.545  0.2593  2.4472  0.6651
  105SAPE   H3S10726   5.432   3.422   2.636  0.2011 -0.3776 -0.2889
  105SAPE   C2410727   5.303   3.270   2.704 -0.0903  0.2882 -0.8170
  105SAPE   H4R10728   5.222   3.205   2.665  0.0206 -0.6351  0.4428
  105SAPE   H4S10729   5.245   3.346   2.761 -1.5292 -1.1294 -0.3476
  105SAPE   C2510730   5.407   3.184   2.783  0.4563  0.2614  0.0335
  105SAPE   H5R10731   5.487   3.139   2.722  0.0229  1.4763 -1.4701
  105SAPE   C2610732   5.410   3.145   2.911 -0.1115  0.0174  0.3392
  105SAPE   H6R10733   5.495   3.086   2.947  0.6371 -0.4255 -2.0549
  105SAPE   C2710734   5.306   3.186   3.010 -0.0038 -0.2721  0.0146
  105SAPE   H7R10735   5.251   3.279   2.984 -0.6059 -0.2473  1.3582
  105SAPE   H7S10736   5.363   3.215   3.101  0.3842  0.6750 -0.5165
  105SAPE   C2810737   5.204   3.084   3.035  0.0080  0.8071  0.3717
  105SAPE   H8R10738   5.143   3.050   2.950  0.1241 -1.1562  1.0384
  105SAPE   C2910739   5.179   3.017   3.147 -0.0789  0.0533  0.2035
  105SAPE   H9R10740   5.089   2.953   3.153 -0.7755  0.9977 -0.1510
  105SAPE  C21010741   5.253   3.030   3.282  0.0628 -0.4886  0.7444
  105SAPE  H10R10742   5.354   3.075   3.278  0.6235 -1.3933  3.8078
  105SAPE  H10S10743   5.270   2.934   3.334 -1.0797 -1.1689 -0.1247
  105SAPE  C21110744   5.167   3.120   3.367  0.1664 -0.7253  1.2725
  105SAPE  H11R10745   5.176   3.228   3.349 -0.1817 -1.0627 -1.1012
  105SAPE  C21210746   5.072   3.093   3.453 -0.0453  0.4491  0.1731
  105SAPE  H12R10747   5.031   3.184   3.500  0.1849  0.7639 -0.2367
  105SAPE  C21310748   5.006   2.965   3.495  0.0345 -0.1388 -0.5189
  105SAPE  H13R10749   5.006   2.901   3.404 -0.0089  1.2758 -1.5173
  105SAPE  H13S10750   4.896   2.973   3.506 -0.0065 -1.7382  0.4578
  105SAPE  C21410751   5.085   2.901   3.609 -0.4478  0.5394  0.7355
  105SAPE  H14R10752   5.194   2.913   3.602 -0.4943 -0.1517 -1.8552
  105SAPE  C21510753   5.025   2.852   3.720 -0.1847 -0.0413  0.6569
  105SAPE  H15R10754   5.098   2.809   3.791  0.8909 -0.3123 -0.6019
  105SAPE  C21610755   4.878   2.853   3.754 -0.4420 -0.2131 -0.2960
  105SAPE  H16R10756   4.817   2.849   3.661  0.6159 -0.1446 -0.9992
  105SAPE  H16S10757   4.853   2.947   3.807 -0.3680 -0.3573 -0.0014
  105SAPE  C21710758   4.834   2.725   3.842 -0.3821 -0.2928 -0.3362
  105SAPE  H17R10759   4.899   2.705   3.930  0.9815  0.6141 -1.1107
  105SAPE  H17S10760   4.867   2.637   3.782 -0.1570 -1.1753  1.0467
  105SAPE  C21810761   4.687   2.707   3.873  0.3501 -0.0675  0.6050
  105SAPE  H18R10762   4.635   2.697   3.775  1.6998 -1.9460  0.0553
  105SAPE  H18S10763   4.659   2.790   3.942 -0.0064  1.3271 -1.1705
  105SAPE  C21910764   4.668   2.580   3.955  0.4995  0.5507  0.3700
  105SAPE  H19R10765   4.709   2.610   4.054 -2.0142  1.3142  1.2013
  105SAPE  H19S10766   4.722   2.494   3.909 -1.2060  0.9803 -2.5266
  105SAPE  C22010767   4.516   2.544   3.963 -0.1243  0.0822 -0.0032
  105SAPE  H20R10768   4.451   2.633   3.977  0.0043 -0.0775  1.6948
  105SAPE  H20S10769   4.492   2.465   4.038 -1.7623  0.3306 -0.2338
  105SAPE  H20T10770   4.493   2.497   3.864  1.7482 -1.6042  0.3252
  105SAPE   C3310771   5.316   2.615   2.912  0.6785  0.0200 -0.0306
  105SAPE   H3X10772   5.319   2.508   2.883 -0.0314 -0.0047 -0.0136
  105SAPE   H3Y10773   5.209   2.643   2.916 -0.4453 -3.6320 -2.1133
  105SAPE   C3410774   5.359   2.636   3.057  0.4229 -1.0008  0.1066
  105SAPE   H4X10775   5.369   2.741   3.092 -1.9785 -1.0990  1.2170
  105SAPE   H4Y10776   5.456   2.585   3.076  0.0176 -1.4093  1.1273
  105SAPE   C3510777   5.254   2.581   3.165 -0.1724 -0.2639 -0.2242
  105SAPE   H5X10778   5.226   2.475   3.149  0.5861 -0.3691 -0.8987
  105SAPE   H5Y10779   5.162   2.643   3.167 -0.0262  0.1201 -3.0208
  105SAPE   C3610780   5.313   2.588   3.307  0.1126  1.1748 -0.1218
  105SAPE   H6X10781   5.362   2.687   3.315  0.3442  1.0298  0.3175
  105SAPE   H6Y10782   5.391   2.510   3.324  1.0442  2.2986  0.8798
  105SAPE   C3710783   5.204   2.577   3.421 -0.5028 -0.2996  1.4291
  105SAPE   H7X10784   5.152   2.480   3.407 -1.4035  0.6257 -2.0314
  105SAPE   H7Y10785   5.130   2.658   3.404 -0.8989 -0.5506  1.9635
  105SAPE   C3810786   5.275   2.581   3.559 -0.1830  0.3065  0.0682
  105SAPE   H8X10787   5.304   2.687   3.571  1.1067 -0.1341  1.0521
  105SAPE   H8Y10788   5.371   2.524   3.563 -0.0972  0.3448 -1.3412
  105SAPE   C3910789   5.193   2.536   3.678 -0.5708 -0.5426  0.5749
  105SAPE   H9X10790   5.137   2.446   3.643  1.2014 -0.7760 -1.7305
  105SAPE   H9Y10791   5.116   2.608   3.714  0.4055 -0.5520  2.7864
  105SAPE  C31010792   5.271   2.489   3.805  0.3630  0.7084  0.1795
  105SAPE  H10X10793   5.334   2.572   3.844 -2.7679  1.6168  3.6345
  105SAPE  H10Y10794   5.339   2.406   3.774 -1.3148 -0.0923 -1.4467
  105SAPE  C31110795   5.176   2.449   3.922  0.0478  1.2551  0.1983
  105SAPE  H11X10796   5.118   2.361   3.886  1.4825  1.3751 -2.5241
  105SAPE  H11Y10797   5.107   2.535   3.931 -1.3061  0.0780  1.2902
  105SAPE  C31210798   5.257   2.438   4.055  0.2167 -0.0587  0.3902
  105SAPE  H12X10799   5.313   2.532   4.074 -1.8124  0.8628  2.2014
  105SAPE  H12Y10800   5.331   2.357   4.044 -1.2761 -1.4967  0.7469
  105SAPE  C31310801   5.164   2.410   4.173  0.1318 -0.3073  0.1104
  105SAPE  H13X10802   5.231   2.438   4.258 -2.6856 -0.0408  2.3009
  105SAPE  H13Y10803   5.144   2.301   4.176  0.4825 -0.3410  1.3868
  105SAPE  C31410804   5.029   2.481   4.194 -0.3442  0.1521  0.4916
  105SAPE  H14X10805   4.952   2.461   4.116 -0.1109  1.5594 -0.1071
  105SAPE  H14Y10806   5.055   2.588   4.202  0.1945  0.0185  0.5783
  105SAPE  C31510807   4.962   2.433   4.323 -0.1216 -0.5050 -0.2767
  105SAPE  H15X10808   5.036   2.458   4.402  0.1953 -1.5798 -0.2343
  105SAPE  H15Y10809   4.953   2.323   4.321 -0.6710 -0.4502 -3.1965
  105SAPE  C31610810   4.832   2.501   4.349  0.3621  0.0525 -0.3324
  105SAPE  H16X10811   4.759   2.474   4.270 -0.9529  1.4764  0.3649
  105SAPE  H16Y10812   4.851   2.610   4.346  0.8370  0.0997  2.6258
  105SAPE  C31710813   4.772   2.474   4.488 -0.1708  0.4488 -0.1087
  105SAPE  H17X10814   4.850   2.503   4.562 -0.2960 -3.1965  1.5552
  105SAPE  H17Y10815   4.776   2.364   4.502  0.3497  0.5473  0.5109
  105SAPE  C31810816   4.644   2.539   4.527 -0.3632 -0.4716 -0.1829
  105SAPE  H18X10817   4.564   2.506   4.458 -0.1815  0.2789 -0.7479
  105SAPE  H18Y10818   4.649   2.649   4.541 -1.0102 -0.5425  0.6867
  105SAPE  H18Z10819   4.613   2.502   4.628 -0.1177 -0.2645 -0.0306
  106SAPE     N10820   6.128   4.205   2.112 -0.0751  0.0718 -0.6252
  106SAPE   HN110821   6.048   4.209   2.046 -0.8287 -0.2716  0.2560
  106SAPE   HN210822   6.094   4.149   2.193  2.0188 -1.9911 -1.1560
  106SAPE   HN310823   6.139   4.300   2.154  4.4377 -0.2467 -0.9312
  106SAPE   C1210824   6.250   4.146   2.055  0.8112  0.4217 -0.3807
  106SAPE  H12A10825   6.295   4.220   1.985  0.8632  1.3259  0.5828
  106SAPE  H12B10826   6.230   4.054   1.998 -1.6220  0.7065 -0.0414
  106SAPE   C1110827   6.349   4.114   2.175  0.3723 -0.7168 -0.1044
  106SAPE  H11A10828   6.368   4.209   2.230  1.7848 -1.4571  0.7122
  106SAPE  H11B10829   6.444   4.072   2.137  0.3864 -1.3339  0.6025
  106SAPE     P10830   6.349   3.919   2.359 -0.3146  0.7235 -0.0280
  106SAPE   O1310831   6.277   3.789   2.342  0.2256  0.0481 -0.0989
  106SAPE   O1410832   6.494   3.926   2.324  0.0671 -0.5839  0.1305
  106SAPE   O1210833   6.276   4.028   2.270  0.8510 -0.0794  0.4441
  106SAPE   O1110834   6.316   3.966   2.505  0.2568 -0.5628  0.5318
  106SAPE    C110835   6.229   4.068   2.550 -0.1978  0.1472  0.0960
  106SAPE    HA10836   6.140   4.073   2.484 -0.2308  0.4924  0.1627
  106SAPE    HB10837   6.190   4.036   2.649 -1.3819 -2.9905 -1.3533
  106SAPE    C210838   6.303   4.201   2.548  0.1225 -0.6950 -0.5725
  106SAPE    HS10839   6.329   4.231   2.445 -0.6651  3.8945  0.4687
  106SAPE   O2110840   6.419   4.182   2.622  0.1094 -0.2256 -0.5407
  106SAPE   C2110841   6.515   4.269   2.597 -0.3595  0.2831 -0.3289
  106SAPE   O2210842   6.501   4.366   2.523  0.0583 -0.1220 -0.2237
  106SAPE   C2210843   6.642   4.220   2.668  0.0593  0.0374  0.9607
  106SAPE   H2R10844   6.606   4.207   2.773  1.7041  0.1409  1.5469
  106SAPE   H2S10845   6.669   4.119   2.630 -1.6707  0.8223 -2.6018
  106SAPE    C310846   6.216   4.309   2.618  1.1470  0.0843 -0.3558
  106SAPE    HX10847   6.117   4.324   2.568  0.7156  0.7477  0.6808
  106SAPE    HY10848   6.251   4.413   2.599 -2.7582  1.4629 -0.6510
  106SAPE   O3110849   6.195   4.293   2.758 -0.4106 -0.3620  0.3934
  106SAPE   C3110850   6.088   4.224   2.802  0.0349 -0.3668 -0.5790
  106SAPE   O3210851   6.002   4.181   2.731 -0.0847  0.3748  0.3945
  106SAPE   C3210852   6.101   4.214   2.952 -0.5170  0.4878 -0.0019
  106SAPE   H2X10853   6.122   4.316   2.990  1.7441 -0.0801  0.3301
  106SAPE   H2Y10854   6.190   4.150   2.971 -1.4893 -0.4576  1.4035
  106SAPE   C2310855   6.751   4.325   2.662 -0.1581 -0.1629 -0.4805
  106SAPE   H3R10856   6.705   4.424   2.682 -0.9648 -0.0237 -2.8006
  106SAPE   H3S10857   6.788   4.328   2.557 -0.5398 -2.0484 -0.6844
  106SAPE   C2410858   6.880   4.307   2.748  0.4345 -0.3093 -0.5841
  106SAPE   H4R10859   6.922   4.409   2.735 -0.2919  0.0258 -0.3246
  106SAPE   H4S10860   6.945   4.239   2.690  0.1703  0.3772 -1.6974
  106SAPE   C2510861   6.859   4.256   2.885 -0.1308 -0.3958 -0.0889
  106SAPE   H5R10862   6.885   4.150   2.899  0.6688 -0.1672  0.1693
  106SAPE   C2610863   6.819   4.326   2.988 -0.0652 -0.0025 -0.7006
  106SAPE   H6R10864   6.813   4.281   3.088 -1.3756  1.8482  0.0802
  106SAPE   C2710865   6.773   4.471   2.986  0.3039 -0.3062  0.3974
  106SAPE   H7R10866   6.823   4.546   2.921 -3.0141 -0.3311 -2.3534
  106SAPE   H7S10867   6.775   4.515   3.088  0.8420  0.5682  0.0207
  106SAPE   C2810868   6.621   4.465   2.949  1.5421 -0.1148  0.5977
  106SAPE   H8R10869   6.608   4.478   2.841  1.4237 -1.4337  0.4433
  106SAPE   C2910870   6.518   4.445   3.034  0.8724  0.1667  0.6632
  106SAPE   H9R10871   6.418   4.444   2.988  1.2709  2.7171 -0.3490
  106SAPE  C21010872   6.525   4.437   3.183 -0.3495  0.0825  0.2167
  106SAPE  H10R10873   6.566   4.534   3.218  1.5730 -0.6915  0.1603
  106SAPE  H10S10874   6.587   4.353   3.221  0.7627  0.3021 -1.0967
  106SAPE  C21110875   6.381   4.428   3.229 -0.3707 -0.3074  0.5878
  106SAPE  H11R10876   6.306   4.485   3.172  0.9445  0.1955 -0.6754
  106SAPE  C21210877   6.339   4.352   3.332  0.4986  0.6052 -0.2960
  106SAPE  H12R10878   6.232   4.360   3.358 -0.0722  0.3577 -2.4960
  106SAPE  C21310879   6.415   4.270   3.427  0.0271 -0.6067 -0.2936
  106SAPE  H13R10880   6.482   4.202   3.372  0.1362  0.4562 -1.4996
  106SAPE  H13S10881   6.336   4.209   3.476 -0.9999  1.5319  0.7772
  106SAPE  C21410882   6.494   4.339   3.535  0.6974 -1.1336 -0.6256
  106SAPE  H14R10883   6.577   4.401   3.498  1.1102 -0.5640  1.2164
  106SAPE  C21510884   6.464   4.333   3.664 -0.2913 -0.2474  0.0523
  106SAPE  H15R10885   6.522   4.403   3.726 -0.9222 -0.5124  0.9437
  106SAPE  C21610886   6.344   4.266   3.726 -0.0391 -0.3341 -0.9550
  106SAPE  H16R10887   6.347   4.170   3.783  0.5245  0.3988  0.2807
  106SAPE  H16S10888   6.276   4.227   3.648 -1.6618 -0.3745  0.4438
  106SAPE  C21710889   6.256   4.361   3.817  0.0583  0.0809  0.0385
  106SAPE  H17R10890   6.216   4.440   3.749 -0.2497 -1.1407 -1.2192
  106SAPE  H17S10891   6.316   4.415   3.893  0.4642  1.1488 -1.0076
  106SAPE  C21810892   6.136   4.282   3.868  0.0487 -0.9786  0.6395
  106SAPE  H18R10893   6.173   4.195   3.926  0.4503 -2.4490 -1.7694
  106SAPE  H18S10894   6.083   4.240   3.779  1.8846 -0.3882 -0.7709
  106SAPE  C21910895   6.047   4.360   3.961 -0.2816 -0.1020  0.7193
  106SAPE  H19R10896   6.105   4.408   4.042 -0.1435  0.3385  0.3581
  106SAPE  H19S10897   5.976   4.291   4.011  0.3811 -0.2739  1.4293
  106SAPE  C22010898   5.950   4.460   3.890 -0.1997  0.4303  0.2142
  106SAPE  H20R10899   5.893   4.424   3.802  1.0461  0.9906 -0.8478
  106SAPE  H20S10900   6.021   4.529   3.840  0.2228 -0.6603 -0.7288
  106SAPE  H20T10901   5.886   4.519   3.958  0.3994  3.0431 -1.4089
  106SAPE   C3310902   5.974   4.172   3.020 -0.1697  0.4365 -0.5567
  106SAPE   H3X10903   5.949   4.069   2.986  0.2918 -0.0127  0.4312
  106SAPE   H3Y10904   5.896   4.245   2.991  0.3459  1.3492  0.3645
  106SAPE   C3410905   5.981   4.169   3.171 -0.4309 -0.0654  0.2406
  106SAPE   H4X10906   5.875   4.144   3.197 -0.0051 -1.2296  0.8899
  106SAPE   H4Y10907   6.008   4.263   3.223  1.2807 -1.3489  1.7318
  106SAPE   C3510908   6.079   4.072   3.231 -0.4595  1.0036 -0.3388
  106SAPE   H5X10909   6.183   4.105   3.208  0.8745 -2.8271 -0.2682
  106SAPE   H5Y10910   6.078   3.975   3.176 -0.2505  0.2594  0.9543
  106SAPE   C3610911   6.064   4.040   3.381 -0.1165 -0.3344 -0.2748
  106SAPE   H6X10912   6.061   4.133   3.441  0.7592  0.3234 -1.2450
  106SAPE   H6Y10913   6.153   3.988   3.422  1.6418  0.6262 -2.7952
  106SAPE   C3710914   5.938   3.963   3.405 -0.0379  0.1758  0.0452
  106SAPE   H7X10915   5.946   3.858   3.369 -1.7041  0.0650 -0.0588
  106SAPE   H7Y10916   5.850   4.006   3.352  0.7116  0.6047 -0.8795
  106SAPE   C3810917   5.908   3.953   3.553 -0.0057  0.6037 -0.0454
  106SAPE   H8X10918   5.928   4.053   3.596  1.7729 -0.1549  0.9681
  106SAPE   H8Y10919   5.974   3.883   3.610 -2.1179 -0.8599  0.6612
  106SAPE   C3910920   5.763   3.919   3.581  0.4802 -0.2843 -0.3061
  106SAPE   H9X10921   5.752   3.815   3.545  0.7015  0.7967 -3.7009
  106SAPE   H9Y10922   5.708   3.995   3.520  0.4187 -1.2385 -1.4694
  106SAPE  C31010923   5.729   3.910   3.730  0.0799 -0.0019 -0.0037
  106SAPE  H10X10924   5.791   3.824   3.764 -1.3599 -0.5866  1.2454
  106SAPE  H10Y10925   5.620   3.885   3.730 -0.3409  1.8249 -0.1175
  106SAPE  C31110926   5.754   4.034   3.813  0.0419 -0.5508 -0.4340
  106SAPE  H11X10927   5.706   4.118   3.760  2.4135  0.4601 -1.0285
  106SAPE  H11Y10928   5.861   4.051   3.835  0.4650 -4.3073  0.9043
  106SAPE  C31210929   5.677   4.015   3.954 -0.1653 -0.4061  0.5981
  106SAPE  H12X10930   5.702   4.106   4.012  2.0361 -0.2684 -0.5100
  106SAPE  H12Y10931   5.740   3.938   4.003 -0.2140 -0.4863  0.5349
  106SAPE  C31310932   5.528   3.985   3.952  0.1681 -0.1317  0.6780
  106SAPE  H13X10933   5.474   3.996   4.049  0.3753  1.5532  0.6291
  106SAPE  H13Y10934   5.515   3.881   3.918 -1.4854  0.6792 -1.2958
  106SAPE  C31410935   5.455   4.074   3.850 -0.1151  0.8730 -0.8968
  106SAPE  H14X10936   5.476   4.062   3.742 -0.3640  1.5914 -1.0245
  106SAPE  H14Y10937   5.486   4.178   3.869 -1.0255  1.0311 -0.2336
  106SAPE  C31510938   5.301   4.060   3.875  0.1863 -0.1869 -0.5564
  106SAPE  H15X10939   5.261   4.135   3.804 -1.6966 -2.1200 -1.6100
  106SAPE  H15Y10940   5.267   4.093   3.976 -0.0358 -1.0879 -0.3302
  106SAPE  C31610941   5.238   3.923   3.832 -0.2133  0.6343 -0.5542
  106SAPE  H16X10942   5.275   3.850   3.906  0.6970  0.8516 -0.7859
  106SAPE  H16Y10943   5.287   3.895   3.736  0.5041 -2.0224  0.5363
  106SAPE  C31710944   5.091   3.916   3.827 -0.3770  0.3530 -0.5343
  106SAPE  H17X10945   5.053   4.006   3.774 -0.0952  0.5205 -0.4541
  106SAPE  H17Y10946   5.055   3.936   3.930 -1.3386 -0.6498 -0.6715
  106SAPE  C31810947   5.015   3.798   3.766 -0.1655  0.1184 -0.3344
  106SAPE  H18X10948   4.905   3.812   3.769 -0.2495 -0.4339 -0.5621
  106SAPE  H18Y10949   5.031   3.700   3.817 -2.1184  0.4163  0.8737
  106SAPE  H18Z10950   5.042   3.781   3.659  0.5190 -1.0285 -0.0033
  107SAPE     N10951   0.988   3.276   2.210 -0.8346 -1.3373  0.0806
  107SAPE   HN110952   0.914   3.341   2.178 -0.8749 -1.7057 -0.5798
  107SAPE   HN210953   1.074   3.300   2.157  0.8826  0.8392  3.6539
  107SAPE   HN310954   0.953   3.180   2.188 -2.9991 -0.6705  0.4878
  107SAPE   C1210955   1.012   3.291   2.352 -0.2711  0.6698  0.1085
  107SAPE  H12A10956   1.059   3.387   2.380  0.0316 -0.1056  2.3956
  107SAPE  H12B10957   1.096   3.221   2.375 -1.0429 -0.1136  0.5717
  107SAPE   C1110958   0.895   3.252   2.434  1.4387 -0.6044 -0.4540
  107SAPE  H11A10959   0.910   3.274   2.542 -1.8230 -0.7378  0.0822
  107SAPE  H11B10960   0.871   3.144   2.423 -0.7444 -0.5336  2.9552
  107SAPE     P10961   0.638   3.296   2.356  0.0470 -0.2241 -0.1166
  107SAPE   O1310962   0.561   3.420   2.347 -0.7887 -0.7982 -0.0254
  107SAPE   O1410963   0.660   3.222   2.231 -0.0542  0.7187 -0.0315
  107SAPE   O1210964   0.783   3.334   2.409 -0.0188  0.0271  0.0116
  107SAPE   O1110965   0.580   3.200   2.463  0.1621  0.0441 -0.4781
  107SAPE    C110966   0.554   3.255   2.594 -0.7289 -0.5718  0.2773
  107SAPE    HA10967   0.649   3.285   2.644 -1.3828  1.7441  0.1601
  107SAPE    HB10968   0.494   3.348   2.589  0.8428  0.5103  1.0807
  107SAPE    C210969   0.489   3.144   2.678  0.1745  0.4217  0.1519
  107SAPE    HS10970   0.407   3.117   2.609  0.6895  0.0284 -0.3051
  107SAPE   O2110971   0.434   3.204   2.797  0.7480 -0.6496  0.6052
  107SAPE   C2110972   0.355   3.125   2.869 -0.0803 -0.3244  0.5922
  107SAPE   O2210973   0.350   3.002   2.860  0.2652 -0.2010  0.2860
  107SAPE   C2210974   0.276   3.204   2.977 -0.2378 -0.5299 -0.4403
  107SAPE   H2R10975   0.289   3.154   3.075  0.2785 -1.5221 -1.0061
  107SAPE   H2S10976   0.324   3.304   2.977  0.7340 -0.9927 -0.5955
  107SAPE    C310977   0.593   3.023   2.715 -0.1052 -0.1144  0.2352
  107SAPE    HX10978   0.632   2.995   2.615 -1.8765 -1.1219 -0.1990
  107SAPE    HY10979   0.538   2.933   2.750 -0.1773 -0.0150  0.3762
  107SAPE   O3110980   0.697   3.057   2.809  0.2216 -0.2531  0.3218
  107SAPE   C3110981   0.823   3.033   2.768 -0.1386 -0.1610  0.3933
  107SAPE   O3210982   0.859   2.997   2.658  0.0972 -0.2083 -0.1174
  107SAPE   C3210983   0.914   3.081   2.875 -0.5592  0.4786 -0.2272
  107SAPE   H2X10984   0.863   3.153   2.943 -0.7306  0.5489 -0.4288
  107SAPE   H2Y10985   0.983   3.150   2.822 -1.6168  1.0990 -0.8154
  107SAPE   C2310986   0.126   3.220   2.944 -0.3653  0.4916 -0.4659
  107SAPE   H3R10987   0.095   3.229   2.837 -0.7065  1.8729 -0.2603
  107SAPE   H3S10988   0.101   3.321   2.984 -2.9249 -0.8451  1.4744
  107SAPE   C2410989   0.041   3.097   2.995  0.8281  0.5854  0.1657
  107SAPE   H4R10990   0.075   3.006   2.941 -0.6076 -1.1933  2.2090
  107SAPE   H4S10991  -0.061   3.110   2.951  1.5357  0.8917 -1.4355
  107SAPE   C2510992   0.044   3.080   3.140 -0.5921  0.1738 -0.4079
  107SAPE   H5R10993   0.008   3.164   3.201 -2.9287 -0.1062 -1.3168
  107SAPE   C2610994   0.096   2.979   3.209 -0.6843  0.9924 -0.5997
  107SAPE   H6R10995   0.092   2.971   3.319 -0.8635 -0.7254 -0.7118
  107SAPE   C2710996   0.164   2.843   3.166  0.0659 -0.3952 -0.1985
  107SAPE   H7R10997   0.137   2.807   3.065 -0.2715 -0.4401 -0.0917
  107SAPE   H7S10998   0.133   2.763   3.237 -0.5781 -0.5831 -0.6931
  107SAPE   C2810999   0.312   2.852   3.162  1.1068 -0.3520 -0.2119
  107SAPE   H8R11000   0.354   2.947   3.128  1.9654 -1.3999 -2.2081
  107SAPE   C2911001   0.395   2.759   3.203  0.1412  0.6181  0.0254
  107SAPE   H9R11002   0.499   2.770   3.168  0.4177 -1.6773  0.0746
  107SAPE  C21011003   0.349   2.629   3.267 -0.0654 -0.6449  0.3196
  107SAPE  H10R11004   0.276   2.585   3.196 -2.2232  3.5123 -0.2281
  107SAPE  H10S11005   0.293   2.650   3.361  2.3090  1.4506  1.3222
  107SAPE  C21111006   0.472   2.541   3.281 -0.6372 -0.0407  0.1501
  107SAPE  H11R11007   0.554   2.569   3.213 -0.2191 -1.0099  0.2491
  107SAPE  C21211008   0.485   2.442   3.371 -0.3377 -0.1632  0.1839
  107SAPE  H12R11009   0.571   2.374   3.361 -0.6392 -0.7412  1.4070
  107SAPE  C21311010   0.381   2.400   3.474  0.2663  0.0079  0.5230
  107SAPE  H13R11011   0.374   2.290   3.489  0.0215 -0.1389 -0.6570
  107SAPE  H13S11012   0.282   2.433   3.436 -1.8571 -1.1399  4.7522
  107SAPE  C21411013   0.402   2.442   3.618 -0.3272 -0.5891 -0.2314
  107SAPE  H14R11014   0.498   2.411   3.661 -0.5630 -1.8365 -0.5843
  107SAPE  C21511015   0.329   2.521   3.695 -0.1188  0.2818 -0.0661
  107SAPE  H15R11016   0.361   2.523   3.801 -0.7295 -0.9837  0.1528
  107SAPE  C21611017   0.199   2.594   3.656 -0.1823 -0.1974 -0.0661
  107SAPE  H16R11018   0.117   2.560   3.723  2.3002 -4.1830  1.1505
  107SAPE  H16S11019   0.170   2.577   3.550  1.4152 -1.4745 -0.3097
  107SAPE  C21711020   0.223   2.745   3.672  0.7287 -0.9078  0.1978
  107SAPE  H17R11021   0.320   2.779   3.630  0.5191  0.9436  1.1382
  107SAPE  H17S11022   0.234   2.755   3.782  1.9002  1.1122 -0.0914
  107SAPE  C21811023   0.111   2.836   3.608  0.3599  0.2576 -0.8260
  107SAPE  H18R11024   0.107   2.806   3.501 -1.3615  4.0116 -1.9128
  107SAPE  H18S11025   0.150   2.941   3.611 -1.4473  0.9094  0.4181
  107SAPE  C21911026  -0.026   2.815   3.679 -0.3243  0.6371  0.7063
  107SAPE  H19R11027  -0.061   2.713   3.653 -1.6853  0.6822  2.2652
  107SAPE  H19S11028  -0.095   2.894   3.641  0.5898  0.3937 -1.5495
  107SAPE  C22011029  -0.015   2.831   3.827 -0.2679  0.0926 -0.7850
  107SAPE  H20R11030   0.039   2.926   3.848 -0.0224 -0.3698  0.7478
  107SAPE  H20S11031   0.037   2.748   3.880  0.7521  1.4582  0.3865
  107SAPE  H20T11032  -0.111   2.846   3.879  0.7135  2.8924  0.2882
  107SAPE   C3311033   1.000   2.961   2.931 -0.4413  0.3474 -0.2697
  107SAPE   H3X11034   1.076   3.012   2.994  0.5465 -0.8129 -0.4996
  107SAPE   H3Y11035   1.046   2.916   2.841  0.2608  0.8612 -0.1661
  107SAPE   C3411036   0.913   2.862   3.018 -0.4763 -0.6152 -0.3714
  107SAPE   H4X11037   0.965   2.764   3.031 -2.2980 -1.3761  1.4745
  107SAPE   H4Y11038   0.828   2.826   2.956  0.6612 -0.0418 -2.2855
  107SAPE   C3511039   0.856   2.913   3.154  0.6124 -0.8123  0.2223
  107SAPE   H5X11040   0.794   2.829   3.192  0.0820 -0.0415  1.0650
  107SAPE   H5Y11041   0.795   3.003   3.132  0.8375 -1.2933 -2.6163
  107SAPE   C3611042   0.967   2.958   3.244 -0.7846  0.3550 -0.3899
  107SAPE   H6X11043   1.009   3.057   3.215  1.9938 -0.2595  1.2857
  107SAPE   H6Y11044   1.052   2.887   3.238 -1.2167 -0.2978  0.9521
  107SAPE   C3711045   0.936   2.965   3.390 -0.2633  0.7298  0.2597
  107SAPE   H7X11046   0.907   2.860   3.413  2.8011 -0.9993 -3.3367
  107SAPE   H7Y11047   0.854   3.036   3.417 -0.2002  0.4722  1.1430
  107SAPE   C3811048   1.063   3.015   3.473 -0.1665  0.5244 -0.3193
  107SAPE   H8X11049   1.114   3.099   3.421 -0.2369  1.2611  0.8044
  107SAPE   H8Y11050   1.146   2.942   3.470 -0.2997  0.3671 -0.1519
  107SAPE   C3911051   1.029   3.044   3.620  0.1005 -0.1000 -0.3362
  107SAPE   H9X11052   0.997   2.949   3.668 -1.0845  0.6278  0.3152
  107SAPE   H9Y11053   0.943   3.112   3.635 -0.6899 -1.1588 -0.0328
  107SAPE  C31011054   1.156   3.099   3.699  0.5209  0.1765  0.0313
  107SAPE  H10X11055   1.170   3.201   3.657 -3.1011  1.2260  1.1562
  107SAPE  H10Y11056   1.241   3.029   3.689  0.3252  0.0053 -0.4879
  107SAPE  C31111057   1.131   3.123   3.851  0.2461  0.4624  0.0176
  107SAPE  H11X11058   1.156   3.041   3.922 -1.7436 -1.5228 -1.4835
  107SAPE  H11Y11059   1.024   3.144   3.872  0.7605  1.7040  1.4609
  107SAPE  C31211060   1.209   3.247   3.906  0.4759 -0.4770 -0.3702
  107SAPE  H12X11061   1.164   3.332   3.849  1.5737  0.6341  0.3924
  107SAPE  H12Y11062   1.315   3.250   3.872  1.4247 -0.1019  2.4712
  107SAPE  C31311063   1.193   3.278   4.052  0.2629 -0.0366  0.4578
  107SAPE  H13X11064   1.226   3.189   4.109  0.3710 -0.7172 -0.6412
  107SAPE  H13Y11065   1.086   3.288   4.079 -0.1470 -0.6030 -0.9352
  107SAPE  C31411066   1.284   3.388   4.109 -0.3418  0.0481 -0.5401
  107SAPE  H14X11067   1.264   3.487   4.063  0.4423  1.5164  2.1355
  107SAPE  H14Y11068   1.387   3.358   4.083 -0.1576  0.4635 -0.3074
  107SAPE  C31511069   1.291   3.403   4.268 -0.5852  0.6989  0.6806
  107SAPE  H15X11070   1.376   3.469   4.294 -1.3532  1.2554  1.8425
  107SAPE  H15Y11071   1.319   3.310   4.323 -2.7165 -1.3501 -1.5461
  107SAPE  C31611072   1.152   3.444   4.328 -0.8746  0.8081 -0.2728
  107SAPE  H16X11073   1.088   3.354   4.327  3.0953 -2.1873 -1.9813
  107SAPE  H16Y11074   1.107   3.533   4.279 -0.8672  1.0305  0.1245
  107SAPE  C31711075   1.163   3.484   4.478  0.3672  0.7037  1.2447
  107SAPE  H17X11076   1.205   3.587   4.484 -0.2959  1.1541 -1.5080
  107SAPE  H17Y11077   1.242   3.427   4.532  0.4125 -2.0699 -1.5991
  107SAPE  C31811078   1.032   3.468   4.561 -0.6023 -0.1070  0.5719
  107SAPE  H18X11079   0.938   3.507   4.516 -1.5463 -1.1148  1.6437
  107SAPE  H18Y11080   1.050   3.518   4.658  1.1568  1.6187 -0.6110
  107SAPE  H18Z11081   1.006   3.362   4.584 -2.2194  0.3331  0.8540
  108SAPE     N11082   0.606   3.673   2.307 -0.0278  0.6572 -0.0790
  108SAPE   HN111083   0.600   3.570   2.307 -1.7223  0.7428 -0.8324
  108SAPE   HN211084   0.517   3.713   2.269 -1.1933 -2.5395 -0.8374
  108SAPE   HN311085   0.684   3.704   2.245  0.2359 -0.5410 -0.3528
  108SAPE   C1211086   0.622   3.710   2.453 -0.0044 -0.2407 -0.2963
  108SAPE  H12A11087   0.732   3.720   2.467  0.1865 -0.1629 -1.7726
  108SAPE  H12B11088   0.585   3.627   2.516 -2.6606  1.7832  0.8963
  108SAPE   C1111089   0.552   3.850   2.475  0.0484  0.4800 -0.0993
  108SAPE  H11A11090   0.625   3.920   2.429  0.4786  1.1568  1.6112
  108SAPE  H11B11091   0.551   3.859   2.585 -0.4960 -1.2648  0.0600
  108SAPE     P11092   0.375   3.999   2.367 -0.1560 -0.2605 -0.0381
  108SAPE   O1311093   0.461   4.029   2.248 -0.7885 -0.4312  0.3087
  108SAPE   O1411094   0.228   3.999   2.348 -0.6052 -0.8739  0.5226
  108SAPE   O1211095   0.420   3.852   2.426  0.3769 -0.0753 -0.0317
  108SAPE   O1111096   0.402   4.091   2.497 -0.0371 -0.4730  0.0432
  108SAPE    C111097   0.311   4.079   2.608 -0.5141 -0.3826 -0.0860
  108SAPE    HA11098   0.215   4.026   2.590 -0.0655 -1.7245  1.3591
  108SAPE    HB11099   0.364   4.028   2.691 -0.7692  1.5630  1.3036
  108SAPE    C211100   0.288   4.221   2.663 -0.3931 -0.1712  0.4648
  108SAPE    HS11101   0.214   4.275   2.600  0.5080  2.7682  1.8325
  108SAPE   O2111102   0.415   4.284   2.678  0.7127 -0.5577  0.7689
  108SAPE   C2111103   0.465   4.340   2.567 -0.0516 -0.0161  0.3290
  108SAPE   O2211104   0.400   4.368   2.466 -0.2858  0.6204 -0.3400
  108SAPE   C2211105   0.608   4.380   2.590  0.2975  0.0557 -0.9658
  108SAPE   H2R11106   0.633   4.472   2.532  1.8123  1.2913  1.5498
  108SAPE   H2S11107   0.635   4.397   2.696  2.9340 -0.8039 -1.4793
  108SAPE    C311108   0.226   4.206   2.800  0.4749 -0.3129 -0.6654
  108SAPE    HX11109   0.206   4.304   2.849  2.2627 -0.9406  1.4165
  108SAPE    HY11110   0.289   4.152   2.874  1.1362  2.9815  1.2731
  108SAPE   O3111111   0.110   4.125   2.795 -0.3312 -0.3026  0.3992
  108SAPE   C3111112  -0.004   4.197   2.757  0.2885 -0.4402  0.2806
  108SAPE   O3211113  -0.002   4.316   2.755  0.3272  0.4141  0.0018
  108SAPE   C3211114  -0.126   4.107   2.740  0.5281 -0.3508 -0.1368
  108SAPE   H2X11115  -0.107   4.019   2.675  1.0552  0.5375 -1.1994
  108SAPE   H2Y11116  -0.200   4.167   2.682  0.9643  0.5073  0.1857
  108SAPE   C2311117   0.696   4.266   2.532 -0.1462 -0.1531  0.1423
  108SAPE   H3R11118   0.788   4.312   2.490 -1.1464  0.0910 -1.8410
  108SAPE   H3S11119   0.649   4.218   2.443 -1.9681 -1.9223  2.0132
  108SAPE   C2411120   0.733   4.160   2.638  0.1174  0.5670  0.3241
  108SAPE   H4R11121   0.642   4.119   2.687 -1.4232  0.2661 -2.6933
  108SAPE   H4S11122   0.779   4.210   2.726  0.5872  0.9328 -0.1217
  108SAPE   C2511123   0.826   4.059   2.591 -0.2616 -0.1243  0.1454
  108SAPE   H5R11124   0.857   4.075   2.487 -0.4735  1.4508  0.3099
  108SAPE   C2611125   0.858   3.955   2.664  0.3002  0.3071 -0.5689
  108SAPE   H6R11126   0.944   3.894   2.633 -0.7676 -2.0732  1.0107
  108SAPE   C2711127   0.791   3.914   2.798  0.1201 -0.0656  0.4012
  108SAPE   H7R11128   0.684   3.887   2.787 -0.5861  1.9771  1.8555
  108SAPE   H7S11129   0.806   3.995   2.873  0.0791  0.6102 -0.3131
  108SAPE   C2811130   0.879   3.800   2.846 -0.0081 -0.2602 -0.9086
  108SAPE   H8R11131   0.987   3.821   2.841  0.0565  0.1012  1.6464
  108SAPE   C2911132   0.839   3.681   2.884  0.2211 -0.7060  0.6310
  108SAPE   H9R11133   0.920   3.611   2.910 -0.0963 -2.0223 -1.7634
  108SAPE  C21011134   0.697   3.634   2.887 -0.1782 -0.3216 -0.0092
  108SAPE  H10R11135   0.638   3.684   2.807 -0.9329  1.5979  1.7131
  108SAPE  H10S11136   0.639   3.667   2.975 -1.5672 -0.4556 -0.8626
  108SAPE  C21111137   0.686   3.485   2.869  0.4090  0.5852  0.7285
  108SAPE  H11R11138   0.648   3.459   2.769 -0.4970 -2.6501  1.8554
  108SAPE  C21211139   0.703   3.385   2.957 -0.6196 -0.3811  0.0284
  108SAPE  H12R11140   0.670   3.284   2.926 -1.7238 -0.2115  0.6133
  108SAPE  C21311141   0.752   3.401   3.101  0.0816 -1.1008 -0.2725
  108SAPE  H13R11142   0.823   3.486   3.110 -1.9878  0.4686  2.2702
  108SAPE  H13S11143   0.816   3.318   3.137  0.3723 -0.4048  0.8256
  108SAPE  C21411144   0.637   3.424   3.195  0.0966  0.5209 -0.8670
  108SAPE  H14R11145   0.594   3.525   3.184  0.9947  0.8767 -1.1483
  108SAPE  C21511146   0.559   3.320   3.244  0.9181 -0.2241  0.6637
  108SAPE  H15R11147   0.482   3.353   3.316 -0.2507 -1.2052 -0.1219
  108SAPE  C21611148   0.584   3.169   3.227 -0.2990  0.2507  0.0426
  108SAPE  H16R11149   0.694   3.158   3.237 -0.4784 -1.8263 -0.1318
  108SAPE  H16S11150   0.552   3.140   3.124  0.9864  1.4657 -0.7153
  108SAPE  C21711151   0.510   3.082   3.327  1.0870  1.0046 -0.1255
  108SAPE  H17R11152   0.518   2.977   3.293 -0.4327  0.5559  0.8853
  108SAPE  H17S11153   0.403   3.109   3.320 -0.0085 -1.4630  5.1165
  108SAPE  C21811154   0.566   3.092   3.466 -0.4078 -0.4716 -0.8267
  108SAPE  H18R11155   0.546   3.191   3.512  1.7751 -1.6109  2.8181
  108SAPE  H18S11156   0.675   3.079   3.447 -0.0277  0.8616  0.3525
  108SAPE  C21911157   0.525   2.981   3.561 -0.4731 -0.7004  0.4398
  108SAPE  H19R11158   0.543   2.886   3.507  1.9864  0.0832 -0.1581
  108SAPE  H19S11159   0.417   2.988   3.587 -1.0709 -3.6032 -1.0622
  108SAPE  C22011160   0.614   2.983   3.689  0.4682  0.0136  0.1367
  108SAPE  H20R11161   0.598   2.889   3.746 -1.7930  0.9270  1.0730
  108SAPE  H20S11162   0.600   3.072   3.753  0.1070  1.6775 -2.1787
  108SAPE  H20T11163   0.720   2.970   3.659  0.4885 -0.7679  0.5196
  108SAPE   C3311164  -0.181   4.049   2.874  0.3835 -0.1461 -0.4405
  108SAPE   H3X11165  -0.239   4.113   2.943  1.1697 -0.5714  0.6141
  108SAPE   H3Y11166  -0.095   4.033   2.942  0.9507  0.6323 -0.9758
  108SAPE   C3411167  -0.265   3.920   2.845  0.3710  0.3898 -0.1294
  108SAPE   H4X11168  -0.212   3.846   2.781 -0.7670  1.1302 -1.9435
  108SAPE   H4Y11169  -0.353   3.953   2.787 -0.5485  0.4572  1.2887
  108SAPE   C3511170  -0.320   3.849   2.969  0.2169  0.5522 -0.0231
  108SAPE   H5X11171  -0.367   3.924   3.036 -0.4072 -0.3379  0.5363
  108SAPE   H5Y11172  -0.396   3.781   2.924  0.7742  0.9954 -1.6822
  108SAPE   C3611173  -0.211   3.776   3.053 -0.1793 -0.4776  0.9215
  108SAPE   H6X11174  -0.124   3.844   3.069  0.8393 -2.2808  3.4435
  108SAPE   H6Y11175  -0.168   3.695   2.990  2.1515 -0.1656  2.0700
  108SAPE   C3711176  -0.250   3.723   3.193 -0.1446  0.5312 -0.3756
  108SAPE   H7X11177  -0.357   3.693   3.186 -0.5289  1.5824  0.8398
  108SAPE   H7Y11178  -0.241   3.816   3.252  0.4817  1.5867 -2.0902
  108SAPE   C3811179  -0.168   3.609   3.243  0.5893 -0.3553  0.3717
  108SAPE   H8X11180  -0.192   3.522   3.179 -0.4690 -1.3585  2.0831
  108SAPE   H8Y11181  -0.208   3.586   3.345  1.2032  0.3679  0.7827
  108SAPE   C3911182  -0.025   3.627   3.242  0.6763  0.5450 -0.7286
  108SAPE   H9X11183   0.003   3.705   3.316  1.7046 -1.8095  1.4593
  108SAPE   H9Y11184  -0.010   3.662   3.137 -0.6583  0.1202 -1.0666
  108SAPE  C31011185   0.052   3.494   3.254  0.1676  0.3508  0.1593
  108SAPE  H10X11186   0.114   3.479   3.163  0.5004 -2.9144  0.8779
  108SAPE  H10Y11187  -0.015   3.406   3.264 -0.6914  0.9959  0.1011
  108SAPE  C31111188   0.133   3.497   3.384 -0.2824  0.5464  0.2033
  108SAPE  H11X11189   0.087   3.525   3.481  1.4680  1.8153  0.6781
  108SAPE  H11Y11190   0.218   3.567   3.371 -0.4222  1.5489  4.1573
  108SAPE  C31211191   0.190   3.357   3.413  0.5290 -0.9005 -0.7906
  108SAPE  H12X11192   0.254   3.342   3.324 -0.3470  2.1789 -2.0140
  108SAPE  H12Y11193   0.098   3.294   3.416  1.3201 -2.1024 -1.4865
  108SAPE  C31311194   0.263   3.344   3.547 -0.7218  0.0475  0.3654
  108SAPE  H13X11195   0.322   3.437   3.562 -1.9176  0.6366  1.4853
  108SAPE  H13Y11196   0.330   3.257   3.538  1.5592  1.6121  1.6071
  108SAPE  C31411197   0.164   3.321   3.667  0.3316  0.3784  0.1271
  108SAPE  H14X11198   0.130   3.216   3.653 -0.8055  0.5473  1.4674
  108SAPE  H14Y11199   0.085   3.399   3.655  1.4680  1.3684 -1.0827
  108SAPE  C31511200   0.230   3.328   3.801 -0.4174 -0.1376 -0.1696
  108SAPE  H15X11201   0.147   3.300   3.869  0.5598 -0.3878  0.9244
  108SAPE  H15Y11202   0.267   3.429   3.827 -1.5108 -0.1187  1.3307
  108SAPE  C31611203   0.345   3.226   3.823  0.2975 -0.3529  0.1562
  108SAPE  H16X11204   0.436   3.254   3.765  0.4665 -0.2456  0.4699
  108SAPE  H16Y11205   0.315   3.126   3.786  0.3213  0.0328 -0.9247
  108SAPE  C31711206   0.380   3.226   3.976  0.6118  0.3827  0.6098
  108SAPE  H17X11207   0.292   3.179   4.025  0.2673  0.4121  0.0216
  108SAPE  H17Y11208   0.386   3.332   4.009  1.2623  0.1429  1.2716
  108SAPE  C31811209   0.512   3.144   4.005 -0.8132 -0.6939  0.0327
  108SAPE  H18X11210   0.507   3.040   3.967 -0.3486 -0.1384 -1.6179
  108SAPE  H18Y11211   0.548   3.134   4.109  2.3268 -1.2481 -1.0320
  108SAPE  H18Z11212   0.597   3.188   3.948 -1.4088  0.8381  0.3046
  109SAPE     N11213   5.236   1.198   1.879  0.4247 -0.5132 -0.1078
  109SAPE   HN111214   5.163   1.153   1.937 -0.1226  1.9132  1.1874
  109SAPE   HN211215   5.228   1.164   1.781  2.4869  0.5347 -0.6859
  109SAPE   HN311216   5.328   1.162   1.911  0.6545  1.1267  1.1355
  109SAPE   C1211217   5.218   1.346   1.892 -0.3095 -0.3651  0.2748
  109SAPE  H12A11218   5.112   1.374   1.878 -0.9293 -1.0586  3.3552
  109SAPE  H12B11219   5.277   1.393   1.810 -1.2118  1.5225  0.6880
  109SAPE   C1111220   5.285   1.405   2.022 -0.3728  0.4053  0.3073
  109SAPE  H11A11221   5.268   1.514   2.038  0.4096  0.2945  2.0051
  109SAPE  H11B11222   5.395   1.398   2.014 -0.3620  0.3135  0.5304
  109SAPE     P11223   5.246   1.371   2.282  0.2267 -0.0859  0.1360
  109SAPE   O1311224   5.384   1.350   2.334  1.0318  0.3865  0.2713
  109SAPE   O1411225   5.182   1.506   2.294  0.5266  0.1860  0.1479
  109SAPE   O1211226   5.240   1.329   2.135  0.0796 -0.0509  0.5752
  109SAPE   O1111227   5.151   1.259   2.353 -0.4685  0.5991  0.0301
  109SAPE    C111228   5.026   1.225   2.302  0.1696 -0.4789  0.5536
  109SAPE    HA11229   4.996   1.264   2.202  0.8547  0.8283  0.8444
  109SAPE    HB11230   5.016   1.115   2.302 -0.1260 -0.4531  1.5531
  109SAPE    C211231   4.911   1.276   2.387 -0.4624  0.2636 -0.3613
  109SAPE    HS11232   4.915   1.386   2.397 -0.2559  0.1523  0.8716
  109SAPE   O2111233   4.926   1.208   2.517 -0.5727 -0.0406 -0.3000
  109SAPE   C2111234   4.967   1.284   2.618 -0.1213 -0.7648  0.7117
  109SAPE   O2211235   4.976   1.409   2.609 -0.7073 -0.2328 -0.8547
  109SAPE   C2211236   5.016   1.205   2.739  0.3663  0.6082  0.3898
  109SAPE   H2R11237   4.941   1.220   2.820  2.0499  1.3881  1.8292
  109SAPE   H2S11238   5.019   1.098   2.707 -0.7158  1.1213 -1.5270
  109SAPE    C311239   4.777   1.236   2.329 -0.1207  0.5553 -0.7224
  109SAPE    HX11240   4.789   1.126   2.315 -1.5076  0.2845  0.1143
  109SAPE    HY11241   4.762   1.285   2.230 -1.8496  0.7063 -0.3995
  109SAPE   O3111242   4.673   1.279   2.419  0.1887 -0.1140  0.1750
  109SAPE   C3111243   4.567   1.206   2.439  0.3302  0.4790 -0.6512
  109SAPE   O3211244   4.548   1.094   2.392  0.1559  0.4308 -0.1166
  109SAPE   C3211245   4.468   1.286   2.522 -1.2687  0.3983 -0.3366
  109SAPE   H2X11246   4.414   1.360   2.459  0.2522  0.9949 -0.9789
  109SAPE   H2Y11247   4.515   1.334   2.611 -1.3261 -0.3106  0.0785
  109SAPE   C2311248   5.156   1.254   2.792 -0.2796  0.6596  0.9349
  109SAPE   H3R11249   5.167   1.198   2.888 -1.7696  1.1129  1.3859
  109SAPE   H3S11250   5.132   1.358   2.822 -2.2453  0.6785 -0.5947
  109SAPE   C2411251   5.272   1.226   2.702  0.2414 -0.1477  0.0814
  109SAPE   H4R11252   5.259   1.270   2.601 -1.1247 -0.6308  0.0416
  109SAPE   H4S11253   5.287   1.120   2.673 -1.2296 -0.5034  0.5829
  109SAPE   C2511254   5.403   1.280   2.746 -0.1271 -0.1261  0.0685
  109SAPE   H5R11255   5.441   1.372   2.700 -2.1804  0.5423 -0.3527
  109SAPE   C2611256   5.490   1.215   2.820 -0.3735 -0.1405 -0.6982
  109SAPE   H6R11257   5.579   1.265   2.861 -0.5292 -0.0159 -0.5099
  109SAPE   C2711258   5.483   1.073   2.877  0.4578 -0.4878  0.0767
  109SAPE   H7R11259   5.420   1.007   2.815 -0.2245  0.5114 -0.3126
  109SAPE   H7S11260   5.426   1.078   2.972 -1.2839  1.0282 -1.0240
  109SAPE   C2811261   5.629   1.020   2.892 -0.1017 -0.0880  0.3282
  109SAPE   H8R11262   5.711   1.094   2.902  0.1366 -0.1526 -1.0734
  109SAPE   C2911263   5.657   0.889   2.894  0.4645  0.0991  0.2795
  109SAPE   H9R11264   5.762   0.860   2.900  0.7045  0.5515 -1.5594
  109SAPE  C21011265   5.552   0.778   2.890  0.0245  0.1357 -0.0508
  109SAPE  H10R11266   5.498   0.784   2.793  0.6559  0.7549 -0.3757
  109SAPE  H10S11267   5.481   0.797   2.973  0.0005 -1.4398  0.2955
  109SAPE  C21111268   5.597   0.637   2.889  0.1354  0.7878  0.3225
  109SAPE  H11R11269   5.636   0.604   2.792 -1.1486 -0.6110  0.2505
  109SAPE  C21211270   5.584   0.547   2.983 -0.7048 -0.6314 -0.1815
  109SAPE  H12R11271   5.610   0.442   2.961  0.9067  0.2109 -2.4464
  109SAPE  C21311272   5.516   0.577   3.111  0.2494 -0.6165 -0.4837
  109SAPE  H13R11273   5.407   0.559   3.098  0.6663 -2.9437 -0.9975
  109SAPE  H13S11274   5.539   0.677   3.153  1.1183 -1.7918  1.9494
  109SAPE  C21411275   5.552   0.470   3.215  0.0118 -0.3016  0.2508
  109SAPE  H14R11276   5.555   0.376   3.158 -0.8513 -0.6669  0.8003
  109SAPE  C21511277   5.587   0.471   3.346  0.4757  0.1208 -0.1786
  109SAPE  H15R11278   5.601   0.369   3.386  1.1982  0.5443  0.6691
  109SAPE  C21611279   5.606   0.589   3.431  0.4757  0.3620  0.2017
  109SAPE  H16R11280   5.626   0.683   3.375  0.2573  1.0254  1.2109
  109SAPE  H16S11281   5.701   0.578   3.488  0.1577  0.7569  0.8090
  109SAPE  C21711282   5.478   0.619   3.504  0.0983 -0.9338 -0.1710
  109SAPE  H17R11283   5.392   0.633   3.436 -0.7903 -1.3106  0.8546
  109SAPE  H17S11284   5.496   0.722   3.542 -1.6953 -1.2458  1.5779
  109SAPE  C21811285   5.437   0.520   3.616 -0.0356  0.6489 -0.4840
  109SAPE  H18R11286   5.524   0.498   3.683 -0.6190  0.7385  0.3142
  109SAPE  H18S11287   5.417   0.422   3.568 -0.6377 -0.2869  1.6218
  109SAPE  C21911288   5.320   0.568   3.704 -0.5577 -0.1576  0.0976
  109SAPE  H19R11289   5.221   0.590   3.658 -0.9038 -1.7827  0.0258
  109SAPE  H19S11290   5.345   0.665   3.752 -1.4101  0.6290 -1.0129
  109SAPE  C22011291   5.287   0.468   3.811 -0.5686  0.7704  0.2228
  109SAPE  H20R11292   5.265   0.368   3.767  1.1510  0.0531  0.9635
  109SAPE  H20S11293   5.199   0.494   3.874  0.0177 -0.7484  1.7063
  109SAPE  H20T11294   5.378   0.456   3.873  0.0756  1.0377 -0.6539
  109SAPE   C3311295   4.364   1.184   2.569 -0.0279 -1.0110 -0.2094
  109SAPE   H3X11296   4.407   1.089   2.609  0.6117 -0.8302 -0.4617
  109SAPE   H3Y11297   4.290   1.177   2.487 -1.7238  0.1530  1.1891
  109SAPE   C3411298   4.278   1.232   2.691  0.0750 -0.3202  0.1976
  109SAPE   H4X11299   4.207   1.155   2.726 -0.9241  0.0509 -0.9710
  109SAPE   H4Y11300   4.225   1.326   2.663  1.5425  0.1137 -1.2206
  109SAPE   C3511301   4.356   1.262   2.821 -0.3614  0.1463 -0.3479
  109SAPE   H5X11302   4.415   1.355   2.804  0.4117 -0.2169  0.3268
  109SAPE   H5Y11303   4.437   1.189   2.839  0.0362  0.7353  0.2718
  109SAPE   C3611304   4.260   1.262   2.943  0.0441 -0.0855 -0.5919
  109SAPE   H6X11305   4.210   1.163   2.951 -1.9416  0.9108 -0.1903
  109SAPE   H6Y11306   4.186   1.345   2.936 -0.2389 -0.3678 -1.0056
  109SAPE   C3711307   4.338   1.275   3.078 -0.6683 -0.3272  0.3456
  109SAPE   H7X11308   4.402   1.365   3.081  1.6180 -1.9144 -0.2225
  109SAPE   H7Y11309   4.401   1.185   3.090  0.8536  0.3680 -2.1670
  109SAPE   C3811310   4.254   1.267   3.209 -0.3403 -0.5981  0.0318
  109SAPE   H8X11311   4.299   1.198   3.284  0.4745 -0.1348 -0.0272
  109SAPE   H8Y11312   4.151   1.235   3.184 -0.7283 -0.3201  1.2306
  109SAPE   C3911313   4.250   1.400   3.283 -0.0642  0.1661  0.0583
  109SAPE   H9X11314   4.217   1.478   3.212 -0.7020  0.6003  0.8356
  109SAPE   H9Y11315   4.355   1.433   3.299 -0.1409 -0.3519  1.6985
  109SAPE  C31011316   4.167   1.410   3.405 -0.5625  0.1710 -0.2529
  109SAPE  H10X11317   4.173   1.518   3.429  0.2987 -0.4447  2.5475
  109SAPE  H10Y11318   4.217   1.358   3.489 -0.9858 -1.2273 -0.8464
  109SAPE  C31111319   4.023   1.360   3.393 -0.3242 -0.5404 -0.3872
  109SAPE  H11X11320   4.039   1.251   3.404  2.3393  0.0518  1.9147
  109SAPE  H11Y11321   3.974   1.395   3.299 -0.4423  2.0980  0.6096
  109SAPE  C31211322   3.929   1.390   3.516  0.2026  0.8179  0.2509
  109SAPE  H12X11323   3.944   1.494   3.551 -1.8515  0.6159  1.8184
  109SAPE  H12Y11324   3.978   1.325   3.592  0.2435  0.3070 -0.2097
  109SAPE  C31311325   3.782   1.358   3.485  0.6141  0.1691 -0.5438
  109SAPE  H13X11326   3.771   1.252   3.453 -0.6679  0.5898 -1.5378
  109SAPE  H13Y11327   3.751   1.409   3.391 -0.9372 -0.4046 -0.3564
  109SAPE  C31411328   3.685   1.401   3.595  0.1050  0.3174 -0.0662
  109SAPE  H14X11329   3.683   1.512   3.599  0.7395  0.2717  1.6679
  109SAPE  H14Y11330   3.734   1.377   3.691 -0.0978  3.1623  0.8024
  109SAPE  C31511331   3.547   1.339   3.576 -0.2304  0.1703 -0.5052
  109SAPE  H15X11332   3.563   1.231   3.597  1.2005  0.3193 -0.7841
  109SAPE  H15Y11333   3.536   1.360   3.468  0.3647 -0.9153 -0.7917
  109SAPE  C31611334   3.431   1.393   3.650 -0.4802  0.1558 -0.1099
  109SAPE  H16X11335   3.419   1.501   3.625 -1.0408  0.0659 -0.2460
  109SAPE  H16Y11336   3.466   1.386   3.755 -0.5675  1.0886 -0.0136
  109SAPE  C31711337   3.306   1.314   3.625  0.5845 -0.2296  0.0900
  109SAPE  H17X11338   3.282   1.298   3.517 -2.0008  1.9822  0.2973
  109SAPE  H17Y11339   3.227   1.371   3.677  1.7598  1.2704  0.2482
  109SAPE  C31811340   3.306   1.175   3.684 -0.0098  0.6377 -0.6026
  109SAPE  H18X11341   3.325   1.172   3.794 -0.2439  1.3187 -0.5429
  109SAPE  H18Y11342   3.382   1.119   3.625 -0.5889 -1.0807  0.2479
  109SAPE  H18Z11343   3.207   1.131   3.658  0.0696  0.5569 -0.7677
  110SAPE     N11344   3.774   6.985   1.931  0.5018 -0.1140 -0.6144
  110SAPE   HN111345   3.747   7.080   1.897 -0.3175  0.9920  2.8719
  110SAPE   HN211346   3.794   7.000   2.032 -0.2977  0.0017 -0.4649
  110SAPE   HN311347   3.858   6.952   1.879  0.5922  1.3397 -1.4302
  110SAPE   C1211348   3.660   6.894   1.911 -0.7054 -0.0712 -0.2868
  110SAPE  H12A11349   3.621   6.918   1.810 -0.1547  1.9078 -0.0680
  110SAPE  H12B11350   3.582   6.929   1.983 -0.1337 -0.9100  0.7511
  110SAPE   C1111351   3.698   6.750   1.944  0.0663 -0.4122 -0.1186
  110SAPE  H11A11352   3.743   6.766   2.044 -0.2286 -1.1827  0.1482
  110SAPE  H11B11353   3.771   6.708   1.872 -0.6435 -1.2979 -0.3371
  110SAPE     P11354   3.538   6.594   2.080 -0.3263 -0.1927  0.1552
  110SAPE   O1311355   3.452   6.483   2.052  0.6245  0.0808 -0.5178
  110SAPE   O1411356   3.664   6.559   2.154  0.2541  0.3598 -0.0212
  110SAPE   O1211357   3.577   6.665   1.949  0.6370 -0.5207  0.6041
  110SAPE   O1111358   3.447   6.693   2.165 -0.2618 -0.8269 -0.0620
  110SAPE    C111359   3.507   6.770   2.273  0.1385 -0.0781  0.1765
  110SAPE    HA11360   3.489   6.709   2.364  2.4945 -0.1336  0.6325
  110SAPE    HB11361   3.614   6.794   2.258  0.2884 -0.2872  0.9425
  110SAPE    C211362   3.422   6.898   2.309 -0.1592  0.6513 -0.7153
  110SAPE    HS11363   3.446   6.960   2.221  3.2060  1.1728  0.5068
  110SAPE   O2111364   3.469   6.965   2.429  0.8318 -0.5926 -0.6958
  110SAPE   C2111365   3.430   7.087   2.441  0.6530 -0.1435 -0.2977
  110SAPE   O2211366   3.380   7.156   2.354  0.4275 -0.1028 -0.5957
  110SAPE   C2211367   3.480   7.146   2.578  0.4367  0.9320  0.2121
  110SAPE   H2R11368   3.554   7.225   2.553 -2.2181  2.2302 -3.9679
  110SAPE   H2S11369   3.392   7.204   2.612  0.6899  2.1422 -1.1742
  110SAPE    C311370   3.273   6.874   2.325 -0.4218 -0.2309  0.4513
  110SAPE    HX11371   3.238   6.976   2.300  1.6482  0.1972 -0.8585
  110SAPE    HY11372   3.237   6.796   2.255  0.7842  1.8265 -2.5489
  110SAPE   O3111373   3.230   6.846   2.460  0.5184 -0.2369  0.9058
  110SAPE   C3111374   3.207   6.712   2.480  0.0651 -0.6974 -0.6239
  110SAPE   O3211375   3.251   6.618   2.412  0.1473 -0.2384  0.3253
  110SAPE   C3211376   3.129   6.702   2.607  0.3241  0.0764  0.5638
  110SAPE   H2X11377   3.029   6.749   2.591  0.2562 -0.6984 -1.4901
  110SAPE   H2Y11378   3.190   6.745   2.689 -2.4571  1.2600  2.0928
  110SAPE   C2311379   3.524   7.043   2.682  0.8702 -0.0779 -0.0386
  110SAPE   H3R11380   3.627   7.014   2.653  0.0159 -2.6237 -0.6607
  110SAPE   H3S11381   3.468   6.947   2.678 -0.2401  0.5759 -0.5427
  110SAPE   C2411382   3.533   7.099   2.829  0.0530 -0.1751 -0.0965
  110SAPE   H4R11383   3.529   7.208   2.806 -1.5320 -0.1504  0.2647
  110SAPE   H4S11384   3.618   7.061   2.890 -0.4493 -1.8041 -0.3984
  110SAPE   C2511385   3.404   7.067   2.897 -0.3454 -0.0640  0.4540
  110SAPE   H5R11386   3.312   7.066   2.836 -1.3623 -0.2974  1.9753
  110SAPE   C2611387   3.387   7.015   3.020  0.0512 -0.3327  0.2408
  110SAPE   H6R11388   3.288   6.976   3.048  0.0065 -0.4134 -0.0310
  110SAPE   C2711389   3.501   6.979   3.114 -0.4487  0.4818  0.0210
  110SAPE   H7R11390   3.561   7.072   3.124 -1.0365  0.7619  1.0830
  110SAPE   H7S11391   3.576   6.912   3.067  1.8308  2.9174  0.0246
  110SAPE   C2811392   3.444   6.919   3.239  0.7311 -0.2201 -0.4071
  110SAPE   H8R11393   3.375   6.838   3.215  0.3586  0.5309 -1.9263
  110SAPE   C2911394   3.444   6.979   3.363 -0.3117 -0.2227  0.0708
  110SAPE   H9R11395   3.399   6.920   3.445  0.7304 -2.6562 -1.0505
  110SAPE  C21011396   3.501   7.115   3.390 -0.4550 -0.3485 -0.4118
  110SAPE  H10R11397   3.550   7.154   3.298 -2.8236 -2.3088 -2.5949
  110SAPE  H10S11398   3.581   7.115   3.467  0.0304  3.9625 -0.8340
  110SAPE  C21111399   3.387   7.215   3.407 -0.3133 -0.2243  0.1205
  110SAPE  H11R11400   3.333   7.223   3.311 -0.3111 -0.5125  0.0936
  110SAPE  C21211401   3.354   7.290   3.514  0.8122 -0.3524 -0.1329
  110SAPE  H12R11402   3.267   7.356   3.498 -1.1100 -2.6981  0.2544
  110SAPE  C21311403   3.412   7.291   3.651 -0.8691  0.1221 -1.0164
  110SAPE  H13R11404   3.504   7.353   3.637  0.8939 -1.8494  1.3647
  110SAPE  H13S11405   3.449   7.189   3.672 -1.9436 -0.8911 -3.9190
  110SAPE  C21411406   3.336   7.345   3.765  0.2705  0.1902 -0.1208
  110SAPE  H14R11407   3.369   7.438   3.813  3.4331 -0.7177 -0.4220
  110SAPE  C21511408   3.227   7.286   3.817  0.5191 -0.1502 -1.0645
  110SAPE  H15R11409   3.175   7.347   3.892 -0.4972  0.3020 -2.1327
  110SAPE  C21611410   3.151   7.161   3.789  0.4938  0.3181 -0.3088
  110SAPE  H16R11411   3.141   7.099   3.880 -2.3127  3.7636  1.9120
  110SAPE  H16S11412   3.207   7.106   3.711 -1.4300 -0.1996 -1.3554
  110SAPE  C21711413   3.008   7.195   3.737 -0.2994 -0.4318 -0.9399
  110SAPE  H17R11414   2.955   7.097   3.741  0.1088 -0.6498 -0.7293
  110SAPE  H17S11415   3.015   7.246   3.639  0.7774  0.5969 -0.3459
  110SAPE  C21811416   2.923   7.294   3.822 -0.0353  0.1796 -0.4138
  110SAPE  H18R11417   2.967   7.395   3.810 -2.1576  1.3134  1.1837
  110SAPE  H18S11418   2.924   7.268   3.930 -1.0208  2.1043  0.0663
  110SAPE  C21911419   2.777   7.311   3.763  0.3594  0.1506  0.0550
  110SAPE  H19R11420   2.782   7.321   3.653 -2.6919  0.2783 -0.1197
  110SAPE  H19S11421   2.745   7.411   3.800 -0.9763 -0.4010  0.3982
  110SAPE  C22011422   2.673   7.205   3.801 -0.1081  0.2924  0.1816
  110SAPE  H20R11423   2.682   7.118   3.733 -1.6108  0.4064 -0.1799
  110SAPE  H20S11424   2.574   7.251   3.782 -0.7201 -2.1444 -2.9283
  110SAPE  H20T11425   2.683   7.197   3.912  3.0098  1.7371  0.0413
  110SAPE   C3311426   3.111   6.550   2.657 -0.0672  0.7202 -0.9327
  110SAPE   H3X11427   3.202   6.487   2.656 -1.4159 -1.3459  1.4501
  110SAPE   H3Y11428   3.037   6.497   2.593  1.3052  1.0129 -2.7877
  110SAPE   C3411429   3.067   6.529   2.797  0.9106  0.0866 -0.0013
  110SAPE   H4X11430   2.963   6.568   2.805  1.5635  1.4617  2.2263
  110SAPE   H4Y11431   3.113   6.592   2.876  0.6155 -0.9987  1.0515
  110SAPE   C3511432   3.087   6.386   2.837  0.2636 -0.3801 -0.3152
  110SAPE   H5X11433   3.194   6.372   2.813  0.3362 -1.1705  0.4647
  110SAPE   H5Y11434   3.033   6.314   2.772 -0.1276 -0.6751  0.3272
  110SAPE   C3611435   3.060   6.343   2.984  0.9588  0.0845  0.5482
  110SAPE   H6X11436   3.087   6.236   2.994 -1.8091 -0.8540 -1.6069
  110SAPE   H6Y11437   2.954   6.355   3.014  0.6909  0.5067 -0.5400
  110SAPE   C3711438   3.149   6.420   3.082 -0.1500  0.5484  0.9505
  110SAPE   H7X11439   3.144   6.528   3.058  3.2377  0.1888 -1.8743
  110SAPE   H7Y11440   3.258   6.408   3.060 -0.1564  1.7010  0.2497
  110SAPE   C3811441   3.125   6.381   3.228  0.1471 -0.1875  0.3780
  110SAPE   H8X11442   3.195   6.441   3.290 -0.0731  1.3315 -0.8002
  110SAPE   H8Y11443   3.154   6.275   3.245  1.9606  0.0295 -1.1889
  110SAPE   C3911444   2.990   6.421   3.295 -0.3059  0.6582  0.2387
  110SAPE   H9X11445   2.898   6.379   3.249 -0.0118  0.6288 -0.3320
  110SAPE   H9Y11446   2.997   6.530   3.318  0.2690  1.0411 -1.6484
  110SAPE  C31011447   2.990   6.369   3.438  0.9063 -0.0709 -0.0712
  110SAPE  H10X11448   3.087   6.386   3.490  1.9546 -0.2313 -1.9337
  110SAPE  H10Y11449   2.982   6.258   3.432  3.2064 -0.2096 -1.1538
  110SAPE  C31111450   2.879   6.430   3.525  0.4119  0.2615 -0.3259
  110SAPE  H11X11451   2.782   6.409   3.476 -0.6879  0.1054  1.8795
  110SAPE  H11Y11452   2.889   6.540   3.522  1.8070  0.0946 -3.4484
  110SAPE  C31211453   2.884   6.366   3.665  0.2769  0.1333  0.3557
  110SAPE  H12X11454   2.988   6.377   3.703  0.8969 -1.3400 -0.8690
  110SAPE  H12Y11455   2.857   6.259   3.669  0.8103 -0.0324 -0.5180
  110SAPE  C31311456   2.781   6.437   3.766 -0.3233  0.6295 -0.0568
  110SAPE  H13X11457   2.676   6.422   3.732  0.2640  0.8902 -2.0397
  110SAPE  H13Y11458   2.808   6.545   3.766  1.3847  0.2293  1.2600
  110SAPE  C31411459   2.802   6.387   3.906 -0.2477  0.6297  0.4196
  110SAPE  H14X11460   2.912   6.390   3.924 -0.4692  1.8866  1.6501
  110SAPE  H14Y11461   2.763   6.283   3.903 -1.5121  1.1255 -2.2628
  110SAPE  C31511462   2.730   6.485   4.008 -0.4254  0.3339 -0.3362
  110SAPE  H15X11463   2.622   6.492   3.984 -0.9532  0.1662  1.9213
  110SAPE  H15Y11464   2.779   6.585   4.002 -0.1256  0.2958  1.1775
  110SAPE  C31611465   2.752   6.424   4.148 -0.2076  0.4306  0.0098
  110SAPE  H16X11466   2.856   6.439   4.184 -0.3925 -0.5508  0.9686
  110SAPE  H16Y11467   2.736   6.314   4.140 -2.6383  0.7028  0.5683
  110SAPE  C31711468   2.650   6.471   4.255 -0.1635  0.1713  0.2852
  110SAPE  H17X11469   2.549   6.433   4.227 -0.3423  1.2042 -0.5167
  110SAPE  H17Y11470   2.639   6.581   4.267 -0.9174  0.3967 -2.1493
  110SAPE  C31811471   2.683   6.417   4.397  0.3231  0.3621 -0.4884
  110SAPE  H18X11472   2.608   6.451   4.471  0.8324  1.7648 -0.6038
  110SAPE  H18Y11473   2.782   6.450   4.435  0.9998  0.2164 -2.0664
  110SAPE  H18Z11474   2.686   6.307   4.407 -1.7548  0.4319  1.1082
  111SAPE     N11475   1.665   0.047   2.198 -0.1023 -0.3071  0.0221
  111SAPE   HN111476   1.620  -0.012   2.271  1.0732 -2.4176 -0.9111
  111SAPE   HN211477   1.588   0.073   2.134  1.2924  0.3541 -1.4074
  111SAPE   HN311478   1.742   0.002   2.144 -1.1636 -0.9796 -0.9397
  111SAPE   C1211479   1.710   0.169   2.269 -0.2503 -0.4763 -0.2016
  111SAPE  H12A11480   1.770   0.142   2.359 -1.1959 -1.5972  0.1164
  111SAPE  H12B11481   1.619   0.209   2.320  0.0998 -0.1052  0.1331
  111SAPE   C1111482   1.777   0.272   2.186  0.0208 -0.4188  1.0416
  111SAPE  H11A11483   1.795   0.362   2.249  3.1132  0.4215 -0.9286
  111SAPE  H11B11484   1.713   0.311   2.104  0.7951  0.8007  1.0165
  111SAPE     P11485   2.043   0.269   2.137 -0.0210  0.0298  0.3347
  111SAPE   O1311486   2.130   0.161   2.101  0.0660  0.6955  0.0347
  111SAPE   O1411487   2.040   0.386   2.046  0.0165 -0.2310 -0.4838
  111SAPE   O1211488   1.896   0.212   2.132  0.3901  0.0156 -0.2624
  111SAPE   O1111489   2.065   0.304   2.291  0.1997 -0.5058  0.0398
  111SAPE    C111490   2.157   0.251   2.390 -0.0453 -0.2635 -0.3689
  111SAPE    HA11491   2.139   0.293   2.492  1.0735 -0.6750  0.0035
  111SAPE    HB11492   2.132   0.143   2.393  1.5662 -0.6943 -2.0501
  111SAPE    C211493   2.308   0.267   2.359  0.6364  0.4928 -0.0505
  111SAPE    HS11494   2.323   0.214   2.262  0.9220 -0.0232  0.2772
  111SAPE   O2111495   2.377   0.203   2.466 -0.2569  0.2096 -0.3956
  111SAPE   C2111496   2.398   0.074   2.460 -1.0811  0.1844  0.3446
  111SAPE   O2211497   2.369   0.001   2.368 -0.1929  0.4923  0.3829
  111SAPE   C2211498   2.459   0.010   2.587 -0.4226 -0.2548  0.3775
  111SAPE   H2R11499   2.487  -0.094   2.559  3.5368  0.9782 -0.6047
  111SAPE   H2S11500   2.541   0.068   2.634  1.3961 -2.1231 -0.4003
  111SAPE    C311501   2.354   0.414   2.349 -0.3008  0.4987  0.2703
  111SAPE    HX11502   2.304   0.445   2.254  1.4175 -2.4258 -1.6611
  111SAPE    HY11503   2.463   0.425   2.333 -0.7172  2.3661 -1.5366
  111SAPE   O3111504   2.304   0.498   2.462 -0.3023  0.0113  0.1738
  111SAPE   C3111505   2.291   0.628   2.438 -0.6488  0.4386 -0.2079
  111SAPE   O3211506   2.313   0.682   2.331  0.1639 -0.4913 -0.1880
  111SAPE   C3211507   2.245   0.698   2.563 -0.8499 -0.2332  0.2579
  111SAPE   H2X11508   2.175   0.631   2.618 -0.6112  0.0403  0.8989
  111SAPE   H2Y11509   2.195   0.790   2.525  2.7720  2.1049  0.8442
  111SAPE   C2311510   2.339  -0.018   2.684 -0.7360  0.4171 -0.4851
  111SAPE   H3R11511   2.393  -0.050   2.776 -1.5619 -0.2661 -0.2306
  111SAPE   H3S11512   2.278  -0.095   2.633 -1.6696  2.4473 -2.4912
  111SAPE   C2411513   2.244   0.099   2.717  0.0648  0.1179 -0.3311
  111SAPE   H4R11514   2.172   0.067   2.796 -0.2942  0.4358 -0.5277
  111SAPE   H4S11515   2.193   0.108   2.619 -3.4517 -0.4292  1.3732
  111SAPE   C2511516   2.328   0.210   2.766  0.2356 -0.3706  0.2357
  111SAPE   H5R11517   2.342   0.295   2.698  1.5335  0.8144  1.9307
  111SAPE   C2611518   2.389   0.227   2.888 -0.8109  0.0495  0.4832
  111SAPE   H6R11519   2.456   0.313   2.894  0.4825 -0.7988 -1.5583
  111SAPE   C2711520   2.388   0.124   3.000 -0.0922  0.1610  0.2803
  111SAPE   H7R11521   2.319   0.039   2.979  1.3224 -0.6884 -1.0812
  111SAPE   H7S11522   2.355   0.178   3.091 -2.3575 -0.4452 -0.1685
  111SAPE   C2811523   2.528   0.061   3.012  0.1583 -0.5568 -0.6229
  111SAPE   H8R11524   2.577   0.035   2.917  0.8190  1.6767 -0.9398
  111SAPE   C2911525   2.600   0.030   3.124  0.0949  0.0016 -0.3861
  111SAPE   H9R11526   2.694  -0.025   3.117 -0.5951 -1.5930  2.0480
  111SAPE  C21011527   2.539   0.051   3.258 -0.1109 -0.3765 -0.1938
  111SAPE  H10R11528   2.429   0.067   3.258  0.0342  0.6563 -1.3972
  111SAPE  H10S11529   2.579   0.143   3.306 -1.2691 -0.3193  0.6832
  111SAPE  C21111530   2.575  -0.057   3.359  0.3418 -0.1174 -0.1570
  111SAPE  H11R11531   2.683  -0.077   3.369  0.2174 -0.9052 -0.3974
  111SAPE  C21211532   2.501  -0.130   3.442  0.3972  0.1385 -0.2515
  111SAPE  H12R11533   2.548  -0.199   3.514 -0.4377 -2.6574 -2.2851
  111SAPE  C21311534   2.349  -0.126   3.462 -1.1505 -0.1930 -0.3765
  111SAPE  H13R11535   2.306  -0.112   3.361 -1.3477 -0.2423 -0.2995
  111SAPE  H13S11536   2.337  -0.030   3.517  0.9084 -0.2249  0.1778
  111SAPE  C21411537   2.276  -0.235   3.534  0.2692 -0.6398  0.0137
  111SAPE  H14R11538   2.235  -0.306   3.460  1.0203 -0.0511 -0.9850
  111SAPE  C21511539   2.254  -0.257   3.663  0.3762 -0.3468 -0.0480
  111SAPE  H15R11540   2.197  -0.348   3.688 -1.5302  0.3000 -1.8909
  111SAPE  C21611541   2.302  -0.172   3.779 -0.2116  0.4119 -0.4025
  111SAPE  H16R11542   2.334  -0.072   3.742  0.0270  0.5649  0.2167
  111SAPE  H16S11543   2.390  -0.220   3.826 -0.1899 -1.1562 -1.9856
  111SAPE  C21711544   2.198  -0.174   3.895 -0.2911 -0.0291  0.0457
  111SAPE  H17R11545   2.178  -0.276   3.933  0.6742  0.7890  2.8975
  111SAPE  H17S11546   2.107  -0.119   3.863 -1.4315 -0.6800  2.1274
  111SAPE  C21811547   2.264  -0.107   4.022 -0.6038 -0.1698 -0.1606
  111SAPE  H18R11548   2.187  -0.084   4.099  1.0267  0.3315  1.3577
  111SAPE  H18S11549   2.307  -0.014   3.980  0.7937  0.1796  1.9614
  111SAPE  C21911550   2.380  -0.184   4.090  0.3514 -0.2719  0.2610
  111SAPE  H19R11551   2.412  -0.128   4.180 -2.2005  0.0062  1.0455
  111SAPE  H19S11552   2.471  -0.186   4.026  0.8890 -2.2643  1.0687
  111SAPE  C22011553   2.348  -0.328   4.118  0.8510 -0.3534 -0.0522
  111SAPE  H20R11554   2.430  -0.379   4.172  1.1536 -0.7933 -0.9275
  111SAPE  H20S11555   2.338  -0.399   4.033 -0.9421 -0.4106  0.1858
  111SAPE  H20T11556   2.252  -0.338   4.173  0.5323 -0.0329 -0.5424
  111SAPE   C3311557   2.377   0.731   2.643 -0.2567  0.5509  0.1925
  111SAPE   H3X11558   2.454   0.780   2.579 -0.5733  0.7121 -0.0623
  111SAPE   H3Y11559   2.409   0.633   2.687 -3.4717 -0.2851  0.7486
  111SAPE   C3411560   2.350   0.820   2.766  0.3112 -0.8882 -0.1471
  111SAPE   H4X11561   2.326   0.923   2.734 -0.2334 -0.6131  1.0932
  111SAPE   H4Y11562   2.442   0.839   2.826  0.7207  0.3697 -1.1630
  111SAPE   C3511563   2.245   0.772   2.867  0.1709 -0.0606 -0.1499
  111SAPE   H5X11564   2.141   0.787   2.830  0.2625 -0.9194 -0.7681
  111SAPE   H5Y11565   2.244   0.844   2.952  1.0399 -1.3553  0.9834
  111SAPE   C3611566   2.260   0.631   2.924 -0.3678  0.3866  0.5715
  111SAPE   H6X11567   2.368   0.611   2.913 -0.8775 -1.5743 -1.2695
  111SAPE   H6Y11568   2.215   0.555   2.857 -0.2706  1.1679 -0.3793
  111SAPE   C3711569   2.199   0.624   3.060 -0.0460  0.1914  0.1129
  111SAPE   H7X11570   2.092   0.654   3.061  0.3929  1.7661  0.8379
  111SAPE   H7Y11571   2.257   0.696   3.122  1.3894 -2.7295  2.2617
  111SAPE   C3811572   2.218   0.478   3.112 -0.0764  0.0065 -1.0222
  111SAPE   H8X11573   2.323   0.444   3.110  0.3978  1.0551  2.3421
  111SAPE   H8Y11574   2.158   0.406   3.052 -2.2010  1.1932 -0.3978
  111SAPE   C3911575   2.166   0.474   3.257  0.4994  0.3738  0.2656
  111SAPE   H9X11576   2.059   0.447   3.262  1.3752 -3.2496  1.0722
  111SAPE   H9Y11577   2.179   0.567   3.315 -1.6583  1.2429 -0.6062
  111SAPE  C31011578   2.242   0.380   3.347 -0.4455  0.1181 -0.0935
  111SAPE  H10X11579   2.349   0.410   3.345 -1.3119  3.5490  1.7204
  111SAPE  H10Y11580   2.238   0.277   3.303 -2.1328  1.2710 -2.8297
  111SAPE  C31111581   2.192   0.391   3.483  0.2064 -0.0605  0.2344
  111SAPE  H11X11582   2.088   0.352   3.482 -0.5233  1.7759 -2.2261
  111SAPE  H11Y11583   2.190   0.496   3.519 -1.7893 -1.6616  5.2176
  111SAPE  C31211584   2.273   0.309   3.580 -0.5286  0.1557  0.4826
  111SAPE  H12X11585   2.379   0.336   3.568  0.1280 -2.0522  1.0054
  111SAPE  H12Y11586   2.251   0.201   3.564 -0.7047  0.2937 -0.1958
  111SAPE  C31311587   2.230   0.337   3.724  0.1455  0.0107 -0.8463
  111SAPE  H13X11588   2.126   0.300   3.734 -0.0546  1.3098  2.5920
  111SAPE  H13Y11589   2.230   0.447   3.739 -1.3921 -0.0447 -0.3609
  111SAPE  C31411590   2.313   0.257   3.834 -0.3133  0.6642  0.5201
  111SAPE  H14X11591   2.329   0.149   3.813  0.0307  0.3766  2.2416
  111SAPE  H14Y11592   2.258   0.276   3.928 -0.3197  3.1183  0.0515
  111SAPE  C31511593   2.455   0.312   3.851 -1.0396 -0.5441  0.7424
  111SAPE  H15X11594   2.440   0.422   3.862  0.6418 -0.3537  1.4044
  111SAPE  H15Y11595   2.511   0.321   3.755 -1.7319  1.7455  0.5289
  111SAPE  C31611596   2.547   0.251   3.964  0.6373 -0.7106 -0.9078
  111SAPE  H16X11597   2.643   0.307   3.964  1.2311 -1.6631  0.5562
  111SAPE  H16Y11598   2.562   0.143   3.942 -0.2310 -0.5719 -2.1784
  111SAPE  C31711599   2.491   0.247   4.111 -0.1514 -0.1028 -0.7434
  111SAPE  H17X11600   2.390   0.201   4.121 -0.5185  0.6233 -1.0965
  111SAPE  H17Y11601   2.462   0.350   4.140  1.2601  0.2704 -0.5954
  111SAPE  C31811602   2.584   0.185   4.210 -0.1651 -0.1295 -0.4879
  111SAPE  H18X11603   2.533   0.193   4.309 -0.5001 -0.0525 -0.6669
  111SAPE  H18Y11604   2.686   0.230   4.209 -1.4427  3.0243  1.4870
  111SAPE  H18Z11605   2.590   0.078   4.181  1.5238 -0.0240 -0.5855
  112SAPE     N11606   6.511   5.040   2.115  0.6629  0.2130  0.2576
  112SAPE   HN111607   6.572   5.002   2.039  0.4255  0.6986 -0.1792
  112SAPE   HN211608   6.458   4.958   2.152  0.3860  0.9165  1.4412
  112SAPE   HN311609   6.453   5.113   2.071 -0.0589  0.7743  2.0881
  112SAPE   C1211610   6.599   5.109   2.223  0.4968  0.0135 -0.0916
  112SAPE  H12A11611   6.663   5.189   2.178  1.0470 -0.6585 -0.5138
  112SAPE  H12B11612   6.661   5.024   2.259 -1.4640 -1.0724  0.8135
  112SAPE   C1111613   6.520   5.181   2.338  0.6851  0.1969  0.4739
  112SAPE  H11A11614   6.594   5.218   2.412 -0.7344  1.9339  1.0709
  112SAPE  H11B11615   6.461   5.102   2.389  0.1395 -0.2668 -0.8467
  112SAPE     P11616   6.469   5.431   2.282 -0.2205 -0.2514 -0.6499
  112SAPE   O1311617   6.582   5.442   2.185  0.5405  0.0065 -0.1542
  112SAPE   O1411618   6.347   5.508   2.248 -0.1759  0.0701  0.9858
  112SAPE   O1211619   6.420   5.284   2.296 -0.8073 -0.3952 -0.7564
  112SAPE   O1111620   6.528   5.458   2.428  0.3159 -0.9751 -0.0701
  112SAPE    C111621   6.435   5.530   2.511  0.7577 -0.8050  0.1142
  112SAPE    HA11622   6.444   5.638   2.484 -1.1631 -0.5578  0.4282
  112SAPE    HB11623   6.329   5.502   2.492  0.4437  0.5327 -0.1878
  112SAPE    C211624   6.451   5.500   2.666  0.6910  0.2411 -0.1663
  112SAPE    HS11625   6.375   5.561   2.720  0.4687 -1.1440  1.1393
  112SAPE   O2111626   6.583   5.534   2.714 -0.1529 -0.9259 -0.5049
  112SAPE   C2111627   6.610   5.664   2.718 -0.5586 -0.3387 -0.3593
  112SAPE   O2211628   6.537   5.751   2.676 -0.0214  0.7530  0.2878
  112SAPE   C2211629   6.735   5.698   2.798 -0.0693 -0.2838  0.7127
  112SAPE   H2R11630   6.815   5.726   2.727  0.0342 -1.5554  0.3194
  112SAPE   H2S11631   6.706   5.782   2.865 -3.7551 -1.4796  0.7655
  112SAPE    C311632   6.419   5.351   2.704 -0.1137  0.0589  0.1261
  112SAPE    HX11633   6.507   5.299   2.661 -0.8520  0.0786 -1.4376
  112SAPE    HY11634   6.331   5.320   2.645 -1.7502  2.2853  1.3341
  112SAPE   O3111635   6.394   5.319   2.837 -0.6078  0.0250  0.8740
  112SAPE   C3111636   6.491   5.285   2.921  1.1587  0.1158  0.3607
  112SAPE   O3211637   6.606   5.260   2.886 -0.1005 -0.0621  0.0466
  112SAPE   C3211638   6.441   5.289   3.061 -0.4791 -0.1900 -0.7303
  112SAPE   H2X11639   6.419   5.188   3.102  1.0451  0.5486  2.0108
  112SAPE   H2Y11640   6.346   5.346   3.058 -0.8656 -0.8582 -1.4696
  112SAPE   C2311641   6.784   5.582   2.897  0.0852  0.3613  0.1030
  112SAPE   H3R11642   6.774   5.493   2.833  0.1877  2.2379 -2.6140
  112SAPE   H3S11643   6.719   5.572   2.986  1.2874 -0.9721  0.8432
  112SAPE   C2411644   6.926   5.620   2.948 -0.0311 -0.3011 -0.3050
  112SAPE   H4R11645   6.912   5.693   3.031  0.8402  1.4491 -1.6504
  112SAPE   H4S11646   6.994   5.666   2.873 -0.3381 -0.9583 -0.9871
  112SAPE   C2511647   7.000   5.496   2.981 -0.0104  0.0289 -0.5000
  112SAPE   H5R11648   7.024   5.432   2.896 -0.3383 -1.2605  0.3541
  112SAPE   C2611649   7.054   5.457   3.100  0.5631 -0.6663 -0.0201
  112SAPE   H6R11650   7.101   5.358   3.110  1.5371 -0.0620  1.4981
  112SAPE   C2711651   7.039   5.548   3.225 -0.1296  0.0770 -0.6231
  112SAPE   H7R11652   7.043   5.652   3.186 -0.2931 -0.9038 -3.3432
  112SAPE   H7S11653   7.132   5.535   3.285 -2.3170 -2.4011  2.3946
  112SAPE   C2811654   6.916   5.522   3.307 -0.6518  0.1540  0.3488
  112SAPE   H8R11655   6.835   5.469   3.255 -0.2763 -0.9376  0.8616
  112SAPE   C2911656   6.893   5.554   3.434 -0.1212  0.4285  0.0931
  112SAPE   H9R11657   6.792   5.528   3.469  0.3397 -0.0076  1.1192
  112SAPE  C21011658   6.978   5.622   3.532  0.1733  0.2526  0.1569
  112SAPE  H10R11659   6.930   5.722   3.546  0.2229  0.4586 -1.1518
  112SAPE  H10S11660   7.080   5.637   3.490  0.6426 -1.2749  0.7355
  112SAPE  C21111661   6.990   5.538   3.658 -0.0738 -0.3288  0.3868
  112SAPE  H11R11662   6.897   5.483   3.680 -1.2881  1.3501 -0.4240
  112SAPE  C21211663   7.099   5.544   3.735 -0.3683  0.5249 -0.0094
  112SAPE  H12R11664   7.098   5.496   3.834  3.0655  0.9719  0.3273
  112SAPE  C21311665   7.210   5.642   3.710 -0.6337  0.2530  0.0848
  112SAPE  H13R11666   7.217   5.704   3.802 -3.3942 -1.1564  1.3204
  112SAPE  H13S11667   7.199   5.718   3.630 -1.9627 -0.5313 -0.5008
  112SAPE  C21411668   7.341   5.568   3.696  0.2311  0.3891 -0.2869
  112SAPE  H14R11669   7.363   5.535   3.594 -0.9730 -0.4637 -0.2684
  112SAPE  C21511670   7.433   5.537   3.793  0.4354  0.3731  0.8509
  112SAPE  H15R11671   7.501   5.454   3.770 -0.5939 -0.4440  0.7350
  112SAPE  C21611672   7.427   5.573   3.939  0.8170 -0.1019 -0.6265
  112SAPE  H16R11673   7.328   5.614   3.970  0.5096  0.9310 -2.8978
  112SAPE  H16S11674   7.500   5.656   3.953 -1.7224  2.0635  0.4375
  112SAPE  C21711675   7.472   5.451   4.022 -0.1140 -0.0669 -0.3936
  112SAPE  H17R11676   7.570   5.417   3.981  0.6464 -0.9839  2.0442
  112SAPE  H17S11677   7.393   5.375   4.013  0.0618 -0.4912  1.3545
  112SAPE  C21811678   7.504   5.494   4.177  0.3032 -0.5298 -0.8316
  112SAPE  H18R11679   7.535   5.399   4.226  4.2693  1.4255  0.6408
  112SAPE  H18S11680   7.409   5.538   4.214 -0.3840  0.2853 -3.4333
  112SAPE  C21911681   7.622   5.588   4.182 -0.4987 -0.4958 -0.5888
  112SAPE  H19R11682   7.584   5.686   4.147  0.4193  0.9637  2.3256
  112SAPE  H19S11683   7.703   5.544   4.119 -0.1349  0.9448 -1.1712
  112SAPE  C22011684   7.669   5.612   4.327 -0.5807 -0.5722  0.0866
  112SAPE  H20R11685   7.762   5.673   4.327  0.8321 -2.6711  0.5136
  112SAPE  H20S11686   7.689   5.514   4.374  1.1689  0.1271  0.8741
  112SAPE  H20T11687   7.584   5.663   4.377 -1.9385 -3.1202  0.4248
  112SAPE   C3311688   6.541   5.362   3.161 -0.0684 -0.6489 -0.3891
  112SAPE   H3X11689   6.563   5.465   3.125  1.5938 -0.2261  1.7566
  112SAPE   H3Y11690   6.644   5.322   3.161  0.5075  0.7945 -0.4500
  112SAPE   C3411691   6.487   5.366   3.307  0.0253  0.0970 -0.0961
  112SAPE   H4X11692   6.380   5.392   3.319  0.0940  0.6414 -0.6482
  112SAPE   H4Y11693   6.553   5.432   3.366 -0.0708 -0.5419  0.7350
  112SAPE   C3511694   6.499   5.231   3.378 -0.3581  0.3798  0.5233
  112SAPE   H5X11695   6.599   5.183   3.369 -0.4129  0.2261  0.7298
  112SAPE   H5Y11696   6.427   5.158   3.335 -2.1910  2.1381  0.5502
  112SAPE   C3611697   6.465   5.247   3.527 -0.2059  0.3122 -0.9934
  112SAPE   H6X11698   6.360   5.219   3.549 -0.0837 -1.8085 -2.9130
  112SAPE   H6Y11699   6.498   5.347   3.562  0.6960 -0.7277  1.2160
  112SAPE   C3711700   6.548   5.151   3.607 -0.6135 -0.1208  0.9386
  112SAPE   H7X11701   6.651   5.148   3.567 -2.7683 -0.6784 -5.1716
  112SAPE   H7Y11702   6.513   5.046   3.592  2.6810 -1.0282 -0.7810
  112SAPE   C3811703   6.543   5.171   3.755 -0.3202 -0.5057 -0.7567
  112SAPE   H8X11704   6.441   5.153   3.795 -0.1183  1.1273  0.5246
  112SAPE   H8Y11705   6.581   5.272   3.779 -1.1538 -1.0942  3.4485
  112SAPE   C3911706   6.636   5.064   3.822 -0.2418  0.1038 -0.2034
  112SAPE   H9X11707   6.726   5.043   3.761 -0.8742  1.3246 -1.6320
  112SAPE   H9Y11708   6.583   4.967   3.832  1.0665 -0.4276  1.7274
  112SAPE  C31011709   6.682   5.106   3.962 -0.3307  0.5263 -0.4203
  112SAPE  H10X11710   6.714   5.212   3.958 -0.6597  0.5627 -2.0461
  112SAPE  H10Y11711   6.770   5.054   4.006 -0.5814  0.1666 -0.3403
  112SAPE  C31111712   6.567   5.100   4.062  0.5076 -0.1621 -0.3030
  112SAPE  H11X11713   6.535   4.995   4.080  0.0397 -0.1862 -1.2483
  112SAPE  H11Y11714   6.473   5.144   4.021  0.5343  0.7564  0.6106
  112SAPE  C31211715   6.594   5.175   4.185  0.2462  0.1774 -0.1238
  112SAPE  H12X11716   6.659   5.265   4.173 -0.7111  0.9368  0.3341
  112SAPE  H12Y11717   6.665   5.113   4.244  1.6355  1.0596 -0.8286
  112SAPE  C31311718   6.474   5.207   4.282  0.2384  0.2561  0.7781
  112SAPE  H13X11719   6.413   5.115   4.296 -0.9626  1.1073  1.1840
  112SAPE  H13Y11720   6.406   5.287   4.246  0.4859 -0.7198 -2.0149
  112SAPE  C31411721   6.530   5.245   4.419  0.6194 -0.2425 -0.6518
  112SAPE  H14X11722   6.586   5.339   4.399  2.8222 -1.7010 -1.5366
  112SAPE  H14Y11723   6.597   5.165   4.457  0.9886 -0.6539 -2.1390
  112SAPE  C31511724   6.414   5.283   4.508 -0.1233 -0.5477 -0.3533
  112SAPE  H15X11725   6.345   5.196   4.504 -2.9483  1.6040  0.0684
  112SAPE  H15Y11726   6.368   5.369   4.456  1.1038  0.2216 -0.1831
  112SAPE  C31611727   6.465   5.312   4.650  0.1838 -0.2612 -0.1019
  112SAPE  H16X11728   6.548   5.385   4.640 -0.6658  0.6443 -0.6285
  112SAPE  H16Y11729   6.512   5.218   4.683  2.0345  0.8362  0.4251
  112SAPE  C31711730   6.354   5.364   4.745 -0.5488 -0.1570  0.2686
  112SAPE  H17X11731   6.278   5.283   4.741  0.3177 -1.0521  1.7431
  112SAPE  H17Y11732   6.305   5.457   4.708  2.1673  1.1680 -0.1154
  112SAPE  C31811733   6.408   5.397   4.873  0.3947  0.7807 -0.1702
  112SAPE  H18X11734   6.459   5.495   4.860  1.9637 -0.3137 -2.6236
  112SAPE  H18Y11735   6.483   5.323   4.909  0.8208  2.4135  2.4744
  112SAPE  H18Z11736   6.332   5.417   4.952  1.5690  1.8085  0.7204
  113SAPE     N11737   0.350   4.284   2.187  0.4249  0.0001  0.5211
  113SAPE   HN111738   0.305   4.266   2.279  1.4267  0.5811  1.1284
  113SAPE   HN211739   0.306   4.375   2.163  0.9349 -0.0584 -0.6835
  113SAPE   HN311740   0.325   4.212   2.115 -0.0294  0.2776  0.3973
  113SAPE   C1211741   0.496   4.328   2.187  0.1082  0.3854 -0.4561
  113SAPE  H12A11742   0.536   4.302   2.087  0.6975 -1.2396  0.1968
  113SAPE  H12B11743   0.557   4.279   2.266 -1.1275  2.5623  1.9349
  113SAPE   C1111744   0.507   4.476   2.197 -0.2966 -0.7927 -0.7469
  113SAPE  H11A11745   0.609   4.509   2.169 -0.5582 -0.3065 -1.1323
  113SAPE  H11B11746   0.504   4.506   2.304 -0.0208 -2.3516 -0.2820
  113SAPE     P11747   0.418   4.692   2.091  0.1332 -0.0731 -0.0308
  113SAPE   O1311748   0.533   4.704   1.999  0.2621 -0.2740  0.0697
  113SAPE   O1411749   0.291   4.758   2.071 -0.0083 -0.5313 -0.8259
  113SAPE   O1211750   0.399   4.537   2.120  0.3375  0.3829 -0.1052
  113SAPE   O1111751   0.470   4.741   2.233  0.4171  0.5508 -0.9022
  113SAPE    C111752   0.367   4.803   2.318 -0.1325 -0.6091  0.3306
  113SAPE    HA11753   0.343   4.903   2.275  0.4238 -0.7584 -0.3415
  113SAPE    HB11754   0.276   4.743   2.340  0.2293 -0.6110  1.8941
  113SAPE    C211755   0.425   4.844   2.456  0.6031 -0.3158  0.7133
  113SAPE    HS11756   0.346   4.886   2.522 -1.1199  0.4347 -1.7520
  113SAPE   O2111757   0.526   4.944   2.430 -0.2858  0.3436  0.1384
  113SAPE   C2111758   0.576   5.014   2.532 -0.1463  0.0112 -0.5396
  113SAPE   O2211759   0.524   5.027   2.640 -0.7660  0.2249 -0.3617
  113SAPE   C2211760   0.694   5.084   2.471  0.1018 -0.1725  0.3075
  113SAPE   H2R11761   0.761   5.002   2.435 -0.9829 -1.2175  0.6332
  113SAPE   H2S11762   0.658   5.134   2.379 -1.0571  0.1822  0.9453
  113SAPE    C311763   0.484   4.716   2.517  0.0948 -0.2631  0.5278
  113SAPE    HX11764   0.584   4.713   2.469  0.0276  2.6118  0.0897
  113SAPE    HY11765   0.423   4.626   2.497 -1.1544  0.7853 -0.5133
  113SAPE   O3111766   0.487   4.724   2.666 -0.5419  0.1628  0.8970
  113SAPE   C3111767   0.606   4.728   2.726  0.2788  0.2522  0.3061
  113SAPE   O3211768   0.714   4.713   2.664 -0.3676 -0.1668 -0.4595
  113SAPE   C3211769   0.602   4.759   2.876 -0.3126  0.2423  0.5764
  113SAPE   H2X11770   0.590   4.869   2.889 -0.1221  0.4646 -1.0856
  113SAPE   H2Y11771   0.691   4.726   2.934 -0.8420 -2.6638 -0.2045
  113SAPE   C2311772   0.764   5.184   2.566  0.2640 -0.1317  0.6700
  113SAPE   H3R11773   0.867   5.193   2.525  0.1259 -1.8796 -0.1170
  113SAPE   H3S11774   0.772   5.134   2.665  1.4812 -1.4964 -0.1007
  113SAPE   C2411775   0.681   5.311   2.589  0.1839  0.1645 -0.7321
  113SAPE   H4R11776   0.588   5.279   2.639  1.3861 -0.6697  1.0375
  113SAPE   H4S11777   0.656   5.346   2.487  0.3833 -1.0187 -1.1840
  113SAPE   C2511778   0.761   5.418   2.660  0.1640 -0.2918  0.3333
  113SAPE   H5R11779   0.847   5.450   2.599  2.1495 -4.1633  0.9753
  113SAPE   C2611780   0.730   5.455   2.790  0.9967 -0.4078  0.3516
  113SAPE   H6R11781   0.793   5.524   2.849 -1.4200  1.4899  0.8254
  113SAPE   C2711782   0.617   5.397   2.869  0.2367  0.0864 -0.0109
  113SAPE   H7R11783   0.610   5.290   2.840  0.0425 -0.4386  1.9188
  113SAPE   H7S11784   0.516   5.439   2.844  0.3157 -0.0260 -0.5312
  113SAPE   C2811785   0.631   5.413   3.016  0.3182 -0.8525  0.1400
  113SAPE   H8R11786   0.660   5.514   3.049 -1.0031 -1.0086  1.8145
  113SAPE   C2911787   0.607   5.319   3.109  0.3016 -0.3925  0.2595
  113SAPE   H9R11788   0.619   5.350   3.214  2.0491  1.8363 -0.5567
  113SAPE  C21011789   0.569   5.178   3.070 -0.1190 -1.3887  0.3335
  113SAPE  H10R11790   0.655   5.111   3.050  0.8621  0.0177 -0.2255
  113SAPE  H10S11791   0.516   5.172   2.973  0.1719 -1.6724  0.1936
  113SAPE  C21111792   0.480   5.111   3.171 -0.3159  0.1606 -0.5138
  113SAPE  H11R11793   0.372   5.125   3.156 -0.7110 -1.2936  0.8024
  113SAPE  C21211794   0.521   5.023   3.265 -0.2972 -0.1357 -0.4627
  113SAPE  H12R11795   0.445   4.974   3.328  1.1057  0.2870  1.6204
  113SAPE  C21311796   0.663   4.971   3.297  0.1066 -0.3055 -0.0858
  113SAPE  H13R11797   0.741   5.028   3.242 -1.1798  0.5267 -1.0849
  113SAPE  H13S11798   0.672   4.872   3.248 -0.8173  0.8654 -2.7630
  113SAPE  C21411799   0.661   4.964   3.443 -0.0163  0.8690 -0.8668
  113SAPE  H14R11800   0.680   5.060   3.493  0.0031 -1.0402  3.0165
  113SAPE  C21511801   0.639   4.857   3.522 -0.0487  0.6406  0.3602
  113SAPE  H15R11802   0.673   4.862   3.627  2.8390 -0.0328 -0.5096
  113SAPE  C21611803   0.603   4.717   3.473  0.0463  0.1309  0.0844
  113SAPE  H16R11804   0.648   4.637   3.535  0.7870 -1.1898 -2.1189
  113SAPE  H16S11805   0.637   4.709   3.367 -0.6272 -0.2100 -0.1099
  113SAPE  C21711806   0.451   4.706   3.455  0.1400 -0.8022 -0.1416
  113SAPE  H17R11807   0.434   4.649   3.361  0.0710  0.5617 -0.9761
  113SAPE  H17S11808   0.413   4.809   3.435  2.1807 -0.2385 -1.2601
  113SAPE  C21811809   0.376   4.649   3.579 -0.0068 -0.0953  0.1442
  113SAPE  H18R11810   0.379   4.714   3.669 -1.3582 -1.3034  1.0683
  113SAPE  H18S11811   0.415   4.547   3.600  1.5733  0.4000 -0.2828
  113SAPE  C21911812   0.230   4.622   3.545  0.0761  0.6168 -0.2276
  113SAPE  H19R11813   0.231   4.547   3.463  1.1353 -1.1946  1.4204
  113SAPE  H19S11814   0.165   4.703   3.505  1.4792  0.8310 -2.1495
  113SAPE  C22011815   0.156   4.577   3.671  0.0301 -0.1218 -0.2309
  113SAPE  H20R11816   0.046   4.566   3.658 -0.1534 -2.7279  2.9990
  113SAPE  H20S11817   0.171   4.662   3.741 -0.3559  0.9516 -1.4330
  113SAPE  H20T11818   0.181   4.482   3.722 -0.5549  1.0273  2.3281
  113SAPE   C3311819   0.476   4.704   2.955  0.0099 -0.2316  0.3677
  113SAPE   H3X11820   0.384   4.742   2.906 -0.0421  1.7643  1.9467
  113SAPE   H3Y11821   0.475   4.737   3.062 -0.7165  1.2032 -0.0695
  113SAPE   C3411822   0.462   4.550   2.950 -0.5269  0.7821 -0.2237
  113SAPE   H4X11823   0.443   4.527   2.843  0.8496  0.1149 -0.3409
  113SAPE   H4Y11824   0.376   4.516   3.011  0.0149 -0.7091 -0.2645
  113SAPE   C3511825   0.592   4.470   2.983  0.0673  0.3513  0.2746
  113SAPE   H5X11826   0.627   4.506   3.083 -2.1038  1.8757  0.5107
  113SAPE   H5Y11827   0.661   4.479   2.897  0.7161 -2.7359  0.4116
  113SAPE   C3611828   0.568   4.316   2.988  0.3873  0.2439 -0.3088
  113SAPE   H6X11829   0.553   4.276   2.886 -0.2988  1.9081 -0.8761
  113SAPE   H6Y11830   0.476   4.295   3.046  0.7987 -0.7953 -0.0206
  113SAPE   C3711831   0.691   4.236   3.049 -0.1318 -0.1489  0.2192
  113SAPE   H7X11832   0.747   4.293   3.127  1.0616  0.6017 -1.1523
  113SAPE   H7Y11833   0.770   4.226   2.971  0.1595  0.5613  0.4169
  113SAPE   C3811834   0.643   4.104   3.095 -0.0017  0.0355 -0.3491
  113SAPE   H8X11835   0.566   4.117   3.174 -1.4355 -2.4117 -1.2490
  113SAPE   H8Y11836   0.583   4.049   3.018 -0.1932  0.9921 -0.8951
  113SAPE   C3911837   0.761   4.033   3.156  0.1095 -0.7897 -0.6396
  113SAPE   H9X11838   0.840   4.110   3.172 -1.2676  0.6546 -0.6612
  113SAPE   H9Y11839   0.796   3.954   3.086  1.2682  0.5473 -1.5940
  113SAPE  C31011840   0.734   3.975   3.296 -0.2594  0.0702  0.3613
  113SAPE  H10X11841   0.699   4.051   3.369  1.5477  1.4577 -0.1825
  113SAPE  H10Y11842   0.834   3.951   3.338 -0.0030 -2.0568 -1.4225
  113SAPE  C31111843   0.647   3.851   3.289  0.6714  0.0037  0.0419
  113SAPE  H11X11844   0.675   3.787   3.203 -0.6550  0.6144 -0.8616
  113SAPE  H11Y11845   0.537   3.868   3.283  0.5737 -0.9877 -1.0548
  113SAPE  C31211846   0.667   3.758   3.412  0.0001  0.6293 -0.1376
  113SAPE  H12X11847   0.775   3.733   3.413 -0.1470  0.0384  1.3133
  113SAPE  H12Y11848   0.603   3.669   3.396 -2.4964  2.0321  1.6330
  113SAPE  C31311849   0.630   3.831   3.545  0.1063  0.3904 -0.3301
  113SAPE  H13X11850   0.697   3.920   3.551 -0.6709  1.0372 -1.0654
  113SAPE  H13Y11851   0.664   3.757   3.621 -1.2988 -1.6112 -1.6124
  113SAPE  C31411852   0.484   3.868   3.555 -0.2223 -0.3634  0.7170
  113SAPE  H14X11853   0.415   3.781   3.546  0.4461 -0.7976 -0.2168
  113SAPE  H14Y11854   0.447   3.939   3.478  0.8767 -0.6171 -0.0416
  113SAPE  C31511855   0.446   3.930   3.689  0.4811 -0.3102  0.1608
  113SAPE  H15X11856   0.519   4.008   3.718 -0.1418  1.4019 -2.6627
  113SAPE  H15Y11857   0.449   3.852   3.768 -1.6930 -0.0501  0.5184
  113SAPE  C31611858   0.302   3.997   3.692 -0.1620 -0.5464 -0.2683
  113SAPE  H16X11859   0.277   4.032   3.795 -0.6816  1.7313 -1.1488
  113SAPE  H16Y11860   0.234   3.912   3.670 -1.9059  0.1838  2.1462
  113SAPE  C31711861   0.278   4.117   3.601  0.3843  0.0581  0.4791
  113SAPE  H17X11862   0.174   4.155   3.603  0.0356 -0.9168  0.7674
  113SAPE  H17Y11863   0.298   4.076   3.499 -0.5719  0.8394 -0.0315
  113SAPE  C31811864   0.371   4.241   3.608 -0.6046  0.5412  0.7958
  113SAPE  H18X11865   0.362   4.281   3.711  1.8369 -1.4473  1.8402
  113SAPE  H18Y11866   0.343   4.320   3.536 -0.0978  1.3783  1.5148
  113SAPE  H18Z11867   0.479   4.221   3.590 -0.2696  1.0702  2.1679
  114SAPE     N11868   3.197   6.508   2.173 -0.4993 -0.7813 -0.0051
  114SAPE   HN111869   3.224   6.550   2.265  1.3720 -0.9431 -0.4482
  114SAPE   HN211870   3.288   6.481   2.130  0.9947  2.8695  0.7030
  114SAPE   HN311871   3.167   6.588   2.114 -1.6837 -1.0322  0.2494
  114SAPE   C1211872   3.091   6.401   2.163  0.2783  0.2079 -0.2765
  114SAPE  H12A11873   3.129   6.316   2.224 -0.0182 -1.4901 -2.3941
  114SAPE  H12B11874   3.090   6.365   2.058  0.6213  1.2716 -0.6400
  114SAPE   C1111875   2.959   6.461   2.215  0.4851 -0.2562 -0.3033
  114SAPE  H11A11876   2.974   6.486   2.322  0.5945 -0.6673 -0.2220
  114SAPE  H11B11877   2.884   6.380   2.226  0.7841 -0.6233 -0.9031
  114SAPE     P11878   2.862   6.711   2.189  0.1235  0.3609 -0.1231
  114SAPE   O1311879   2.979   6.768   2.257  0.0598  0.0031 -0.2009
  114SAPE   O1411880   2.802   6.795   2.085  0.2888 -0.3486 -0.5172
  114SAPE   O1211881   2.910   6.570   2.131  0.5830  0.3120 -0.2130
  114SAPE   O1111882   2.748   6.676   2.297 -0.3290  0.1492  0.6561
  114SAPE    C111883   2.620   6.616   2.263  0.1198 -0.5236  0.4283
  114SAPE    HA11884   2.602   6.611   2.153 -0.5235 -1.3790  0.5627
  114SAPE    HB11885   2.614   6.511   2.300  2.6387 -1.2883 -1.2429
  114SAPE    C211886   2.501   6.708   2.313 -0.6020  0.3887 -0.4069
  114SAPE    HS11887   2.512   6.795   2.244 -2.2581  0.4736 -0.5887
  114SAPE   O2111888   2.522   6.745   2.447 -0.2731 -0.5825 -0.2453
  114SAPE   C2111889   2.491   6.873   2.486  0.1147  0.1182  0.3710
  114SAPE   O2211890   2.442   6.953   2.411 -0.4270 -0.4082  0.2731
  114SAPE   C2211891   2.559   6.902   2.621  0.0697 -0.7355  0.0655
  114SAPE   H2R11892   2.580   6.802   2.664 -1.9025 -2.0128 -1.8966
  114SAPE   H2S11893   2.655   6.957   2.608  0.0559 -0.1581  2.1498
  114SAPE    C311894   2.365   6.628   2.297  0.2488 -0.4017  0.4964
  114SAPE    HX11895   2.348   6.592   2.193  2.1229  1.1106 -0.3672
  114SAPE    HY11896   2.282   6.699   2.316 -1.1030 -1.5748 -1.0232
  114SAPE   O3111897   2.360   6.504   2.383 -0.2006  0.0925  0.2055
  114SAPE   C3111898   2.312   6.530   2.505  0.2374  0.0708 -0.2769
  114SAPE   O3211899   2.255   6.632   2.536  0.3328  0.0248  0.7103
  114SAPE   C3211900   2.335   6.405   2.594 -0.0128 -0.0101  0.1232
  114SAPE   H2X11901   2.414   6.345   2.545 -0.0899  0.7128 -0.9077
  114SAPE   H2Y11902   2.239   6.351   2.579  0.2072 -0.5628  0.6705
  114SAPE   C2311903   2.455   6.970   2.709 -0.2028  0.5882 -0.3983
  114SAPE   H3R11904   2.356   6.924   2.688 -0.1063  0.1853  0.0308
  114SAPE   H3S11905   2.447   7.076   2.674  1.0051  0.7045 -0.3305
  114SAPE   C2411906   2.483   6.971   2.861 -0.1100  0.2039  0.2475
  114SAPE   H4R11907   2.576   7.031   2.870  0.2524 -0.4609  0.9979
  114SAPE   H4S11908   2.508   6.876   2.913 -2.0786  0.3882  1.5853
  114SAPE   C2511909   2.377   7.050   2.939 -0.0148 -0.8441  0.0162
  114SAPE   H5R11910   2.369   7.158   2.920 -1.4090 -0.5570  2.0526
  114SAPE   C2611911   2.299   7.000   3.034  0.5144  0.2834  0.8930
  114SAPE   H6R11912   2.207   7.055   3.058  0.2766  0.1386  0.3252
  114SAPE   C2711913   2.297   6.869   3.097  0.0698 -0.3094 -0.2544
  114SAPE   H7R11914   2.301   6.879   3.208  0.8071  0.0165 -0.3079
  114SAPE   H7S11915   2.389   6.816   3.063 -0.1402 -0.4059 -0.6772
  114SAPE   C2811916   2.188   6.770   3.067  0.4621  0.1646 -0.3134
  114SAPE   H8R11917   2.207   6.705   2.980  0.4005  2.9178 -2.4642
  114SAPE   C2911918   2.087   6.730   3.138 -0.7002  0.3017 -0.1214
  114SAPE   H9R11919   2.015   6.661   3.092  0.1941 -0.5671 -0.2089
  114SAPE  C21011920   2.055   6.787   3.275 -0.0435  0.3146  0.4934
  114SAPE  H10R11921   1.947   6.808   3.277 -0.2282 -0.6284  1.2415
  114SAPE  H10S11922   2.093   6.891   3.284  2.6937 -0.7695  2.3389
  114SAPE  C21111923   2.104   6.698   3.386  0.0657  0.3822 -1.0226
  114SAPE  H11R11924   2.166   6.613   3.355  0.1391  0.1755 -0.3117
  114SAPE  C21211925   2.075   6.713   3.520  0.4912  0.0904  0.2405
  114SAPE  H12R11926   2.085   6.623   3.582  1.6285  1.3480  1.9206
  114SAPE  C21311927   1.987   6.820   3.580 -0.2357 -0.1151  0.0514
  114SAPE  H13R11928   1.976   6.902   3.506 -0.8663 -0.6830 -0.4847
  114SAPE  H13S11929   2.035   6.868   3.669  0.8095 -0.3430 -0.3769
  114SAPE  C21411930   1.846   6.782   3.619 -0.5372 -0.1639  0.0060
  114SAPE  H14R11931   1.778   6.825   3.543 -0.9322  0.4355  0.6931
  114SAPE  C21511932   1.810   6.718   3.724 -0.6145 -0.2010  0.0211
  114SAPE  H15R11933   1.702   6.705   3.742 -0.3989 -0.2001  1.3657
  114SAPE  C21611934   1.897   6.668   3.834  0.5996  0.2329 -0.3438
  114SAPE  H16R11935   2.001   6.677   3.796  0.3882  1.6327 -0.6231
  114SAPE  H16S11936   1.878   6.559   3.847  0.7519  0.3740  1.1825
  114SAPE  C21711937   1.876   6.731   3.969 -0.5348 -0.3678  0.3636
  114SAPE  H17R11938   1.911   6.669   4.054 -1.7646 -1.5571  0.0037
  114SAPE  H17S11939   1.767   6.734   3.988 -0.7368 -2.0043 -0.5125
  114SAPE  C21811940   1.955   6.871   3.974 -0.0087 -0.2496 -0.5441
  114SAPE  H18R11941   1.926   6.934   3.887  2.0341  0.4930 -0.7010
  114SAPE  H18S11942   2.065   6.864   3.974  0.0045 -0.0158 -0.8951
  114SAPE  C21911943   1.906   6.958   4.099  0.0332  0.2637 -0.0307
  114SAPE  H19R11944   1.969   7.044   4.130 -0.2235 -0.4936  2.7428
  114SAPE  H19S11945   1.924   6.885   4.181  0.9227  0.0243 -0.4349
  114SAPE  C22011946   1.751   6.988   4.107  0.0811  0.1419  0.1063
  114SAPE  H20R11947   1.721   7.066   4.034 -1.3935 -1.7055 -1.3015
  114SAPE  H20S11948   1.724   7.012   4.213 -1.1141 -0.9128  0.0505
  114SAPE  H20T11949   1.696   6.895   4.084  2.0631 -0.6667 -1.4297
  114SAPE   C3311950   2.362   6.426   2.739  0.9600 -0.1662 -0.1128
  114SAPE   H3X11951   2.322   6.338   2.794  0.4780 -0.3479 -0.7460
  114SAPE   H3Y11952   2.281   6.496   2.769  2.4846  1.7560 -0.3915
  114SAPE   C3411953   2.503   6.472   2.771 -0.0200  0.1948 -0.1308
  114SAPE   H4X11954   2.523   6.564   2.713  0.0056  0.6565  0.6109
  114SAPE   H4Y11955   2.566   6.386   2.740 -1.0712 -0.9694  0.8886
  114SAPE   C3511956   2.517   6.496   2.929 -0.3847  0.4989  0.1415
  114SAPE   H5X11957   2.485   6.407   2.987 -0.9622  0.2161 -0.6029
  114SAPE   H5Y11958   2.481   6.599   2.952 -0.5643  0.4909 -0.1089
  114SAPE   C3611959   2.666   6.513   2.970  0.7058 -0.3833  0.4290
  114SAPE   H6X11960   2.695   6.613   2.932 -1.5842  0.0751 -0.1653
  114SAPE   H6Y11961   2.715   6.424   2.924  0.3443 -0.2247 -0.2556
  114SAPE   C3711962   2.690   6.511   3.122 -0.3128  0.0868 -0.3915
  114SAPE   H7X11963   2.799   6.531   3.132 -0.4744  1.3115 -0.9914
  114SAPE   H7Y11964   2.671   6.407   3.154  0.1433 -0.1311 -0.8151
  114SAPE   C3811965   2.605   6.611   3.199 -0.1088  0.8052 -0.4434
  114SAPE   H8X11966   2.497   6.584   3.190  0.0122 -0.3209  1.3135
  114SAPE   H8Y11967   2.612   6.715   3.159 -0.5921  1.5875  1.4562
  114SAPE   C3911968   2.646   6.610   3.343 -0.0509  0.7965  0.5485
  114SAPE   H9X11969   2.757   6.617   3.343 -0.1693  2.9388 -0.9830
  114SAPE   H9Y11970   2.625   6.509   3.386  0.8624  0.3467 -0.0373
  114SAPE  C31011971   2.574   6.706   3.436  0.3742 -0.3720  0.7581
  114SAPE  H10X11972   2.470   6.669   3.450 -0.0789 -0.3553 -2.1936
  114SAPE  H10Y11973   2.572   6.810   3.397  0.8683  0.1302  2.0515
  114SAPE  C31111974   2.636   6.708   3.573 -0.3570 -0.0540  0.4719
  114SAPE  H11X11975   2.747   6.707   3.567 -0.3406 -0.5701  0.8004
  114SAPE  H11Y11976   2.609   6.611   3.621  2.1401 -0.0522  2.0211
  114SAPE  C31211977   2.575   6.815   3.666  0.5383  0.4134  0.4297
  114SAPE  H12X11978   2.571   6.908   3.605  1.0277  0.3706  0.3332
  114SAPE  H12Y11979   2.650   6.834   3.746 -0.3557  2.7974  0.7397
  114SAPE  C31311980   2.439   6.788   3.727 -0.2111  0.5537 -0.3034
  114SAPE  H13X11981   2.363   6.769   3.648 -1.7630  0.8497  1.0836
  114SAPE  H13Y11982   2.415   6.885   3.777  0.8142  0.7896 -0.2647
  114SAPE  C31411983   2.409   6.669   3.820  0.5572 -0.3067 -0.4864
  114SAPE  H14X11984   2.476   6.691   3.906  0.0573  0.2410 -0.2281
  114SAPE  H14Y11985   2.442   6.579   3.764  2.5363  1.0457 -1.5596
  114SAPE  C31511986   2.258   6.654   3.853  0.3818  0.6507 -0.0687
  114SAPE  H15X11987   2.203   6.631   3.759  0.9457 -0.8742 -0.0241
  114SAPE  H15Y11988   2.219   6.748   3.898 -1.6573 -0.0709 -0.2689
  114SAPE  C31611989   2.223   6.533   3.948 -0.0004 -0.5201 -0.3002
  114SAPE  H16X11990   2.275   6.444   3.906 -0.9462 -1.8324  1.2130
  114SAPE  H16Y11991   2.114   6.515   3.957 -0.1218  0.4944  0.3448
  114SAPE  C31711992   2.263   6.553   4.093  0.7781  0.0855  0.2900
  114SAPE  H17X11993   2.201   6.640   4.122 -0.0116 -0.9288  1.6814
  114SAPE  H17Y11994   2.373   6.570   4.102  0.4391  1.4100  2.1028
  114SAPE  C31811995   2.219   6.426   4.168 -0.4449 -0.2611 -0.1345
  114SAPE  H18X11996   2.247   6.428   4.276  0.1097  0.0732 -0.2827
  114SAPE  H18Y11997   2.282   6.345   4.125  1.3021  1.2656 -0.4957
  114SAPE  H18Z11998   2.110   6.407   4.160 -0.2503 -1.1628 -0.8100
  115SAPE     N11999   0.182   5.781   2.136 -0.3365  0.5921  0.5823
  115SAPE   HN112000   0.220   5.706   2.075 -0.4739  1.1839 -0.2342
  115SAPE   HN212001   0.127   5.850   2.081 -2.1002 -2.6199 -1.9112
  115SAPE   HN312002   0.265   5.831   2.174  2.4084 -3.0156 -0.4170
  115SAPE   C1212003   0.106   5.715   2.247  0.7265  0.5929  0.2691
  115SAPE  H12A12004   0.110   5.793   2.327  0.5157  1.1153 -0.2271
  115SAPE  H12B12005   0.165   5.627   2.281 -0.7731 -0.6327 -0.2699
  115SAPE   C1112006  -0.034   5.681   2.203  0.2836 -0.6827  0.3396
  115SAPE  H11A12007  -0.080   5.628   2.289 -1.5073 -1.5222 -1.1006
  115SAPE  H11B12008  -0.023   5.605   2.122 -0.8356  1.8308 -2.2624
  115SAPE     P12009  -0.260   5.805   2.141 -0.6495  0.0633 -0.0841
  115SAPE   O1312010  -0.302   5.950   2.126 -0.0663 -0.0759 -0.1741
  115SAPE   O1412011  -0.290   5.730   2.021  0.0111  0.6064  0.3291
  115SAPE   O1212012  -0.105   5.795   2.162  0.6362 -0.1258 -0.1852
  115SAPE   O1112013  -0.313   5.735   2.278 -0.1107 -0.0210  0.0367
  115SAPE    C112014  -0.403   5.632   2.264  0.1082  0.6181 -0.2368
  115SAPE    HA12015  -0.469   5.647   2.176  2.1091  1.0369 -1.6998
  115SAPE    HB12016  -0.352   5.534   2.262 -0.5723  0.2563  0.1732
  115SAPE    C212017  -0.504   5.612   2.386 -0.2289  0.5879 -0.2796
  115SAPE    HS12018  -0.591   5.557   2.345  1.4382 -1.8302 -0.6953
  115SAPE   O2112019  -0.541   5.748   2.430  0.1973 -0.2957  0.1096
  115SAPE   C2112020  -0.619   5.815   2.355 -1.0327  0.4103  0.2607
  115SAPE   O2212021  -0.667   5.778   2.248  0.1963 -0.1605 -0.0888
  115SAPE   C2212022  -0.639   5.950   2.422 -0.3868  0.6266  0.2492
  115SAPE   H2R12023  -0.710   6.005   2.356  0.2903  3.3909  1.7611
  115SAPE   H2S12024  -0.683   5.921   2.519 -0.0202  0.4998  0.3782
  115SAPE    C312025  -0.456   5.519   2.505 -0.1667 -1.2936  0.0737
  115SAPE    HX12026  -0.419   5.422   2.465  1.2910  0.1121 -2.0798
  115SAPE    HY12027  -0.538   5.498   2.577 -0.9219 -2.3281 -1.0619
  115SAPE   O3112028  -0.350   5.582   2.578  0.1706 -0.6470 -0.0666
  115SAPE   C3112029  -0.221   5.562   2.554  0.5697  0.4053 -0.5230
  115SAPE   O3212030  -0.179   5.473   2.481  0.1892 -0.4664  0.6898
  115SAPE   C3212031  -0.135   5.655   2.645 -0.0015  0.0531  0.2075
  115SAPE   H2X12032  -0.154   5.625   2.750 -0.1505  0.3854  0.2745
  115SAPE   H2Y12033  -0.176   5.756   2.627  1.3241  0.0598 -3.1794
  115SAPE   C2312034  -0.511   6.040   2.416 -0.2817 -0.3590 -0.4914
  115SAPE   H3R12035  -0.529   6.143   2.453 -2.4029  0.0617 -2.6260
  115SAPE   H3S12036  -0.485   6.053   2.309  0.9432  1.4159 -0.0077
  115SAPE   C2412037  -0.397   5.986   2.500 -0.4306  0.4571 -0.0771
  115SAPE   H4R12038  -0.358   5.886   2.474 -0.7306  0.4955 -0.6802
  115SAPE   H4S12039  -0.444   5.970   2.600  0.5476  0.0495  0.3242
  115SAPE   C2512040  -0.273   6.077   2.494  0.4987 -0.3932 -1.1250
  115SAPE   H5R12041  -0.211   6.075   2.404  1.7073 -0.5201 -0.2949
  115SAPE   C2612042  -0.224   6.146   2.605  0.1444 -0.1139 -0.1537
  115SAPE   H6R12043  -0.130   6.201   2.591  0.0431 -0.0069 -0.4233
  115SAPE   C2712044  -0.283   6.142   2.751  0.4284  0.0118  0.0547
  115SAPE   H7R12045  -0.382   6.191   2.750 -0.0433 -0.9048  1.0207
  115SAPE   H7S12046  -0.218   6.208   2.812  0.2982  0.0625  0.1382
  115SAPE   C2812047  -0.296   6.007   2.813  0.4860 -0.4019 -0.2217
  115SAPE   H8R12048  -0.302   5.922   2.743 -0.0664 -1.1309  0.6998
  115SAPE   C2912049  -0.317   5.985   2.941  0.7265  0.8213 -0.1722
  115SAPE   H9R12050  -0.320   5.879   2.969 -0.2498  0.7501 -0.5226
  115SAPE  C21012051  -0.323   6.081   3.059  0.0778  0.2784  0.7522
  115SAPE  H10R12052  -0.429   6.080   3.094 -0.5090 -3.1806 -0.9481
  115SAPE  H10S12053  -0.301   6.185   3.028  1.4518 -0.2059  0.0968
  115SAPE  C21112054  -0.236   6.049   3.178 -0.1622 -0.1390  0.2359
  115SAPE  H11R12055  -0.172   5.960   3.169  2.7672  2.2095 -3.5211
  115SAPE  C21212056  -0.249   6.107   3.293  0.3168  0.4165 -0.4018
  115SAPE  H12R12057  -0.183   6.078   3.376 -1.3739  1.2815  1.2699
  115SAPE  C21312058  -0.353   6.209   3.336 -0.4658 -0.3925 -0.0781
  115SAPE  H13R12059  -0.406   6.245   3.246 -2.0171  1.2360  1.4371
  115SAPE  H13S12060  -0.301   6.296   3.383 -1.8360  0.6133 -0.3886
  115SAPE  C21412061  -0.465   6.156   3.429  0.2210 -0.3128 -0.1598
  115SAPE  H14R12062  -0.532   6.081   3.383  1.4538 -0.7747 -1.2286
  115SAPE  C21512063  -0.474   6.169   3.562 -0.5053 -0.6697  0.3328
  115SAPE  H15R12064  -0.559   6.127   3.617 -1.3471 -0.5229 -0.8347
  115SAPE  C21612065  -0.363   6.237   3.646  0.0420  0.1284  0.2669
  115SAPE  H16R12066  -0.414   6.308   3.713 -1.9407  0.3846 -1.4461
  115SAPE  H16S12067  -0.289   6.304   3.598  0.2043 -0.5336 -0.4244
  115SAPE  C21712068  -0.283   6.139   3.729  0.1300 -0.1220  0.1053
  115SAPE  H17R12069  -0.201   6.197   3.777  0.8534 -0.8623 -0.2282
  115SAPE  H17S12070  -0.239   6.063   3.661  0.0590 -1.4531  1.5225
  115SAPE  C21812071  -0.365   6.070   3.835  0.3070  0.2682 -0.3301
  115SAPE  H18R12072  -0.469   6.048   3.801  0.0240 -0.9558  1.2585
  115SAPE  H18S12073  -0.387   6.130   3.926 -0.0534 -0.9191  0.3702
  115SAPE  C21912074  -0.314   5.932   3.870  0.1494  0.8282  0.7923
  115SAPE  H19R12075  -0.205   5.944   3.858  0.0540  0.5543 -0.4028
  115SAPE  H19S12076  -0.349   5.849   3.805  2.2990  0.6690 -0.1644
  115SAPE  C22012077  -0.327   5.887   4.016 -0.2397 -0.4641 -0.8825
  115SAPE  H20R12078  -0.273   5.792   4.029  0.6667  0.2766  0.8800
  115SAPE  H20S12079  -0.433   5.874   4.044 -0.8936  1.8153 -2.1380
  115SAPE  H20T12080  -0.291   5.970   4.081 -1.0667 -0.7903 -0.0140
  115SAPE   C3312081   0.009   5.660   2.604  0.0268  0.6201  0.1249
  115SAPE   H3X12082   0.019   5.662   2.493 -0.4261 -1.1842  0.0426
  115SAPE   H3Y12083   0.051   5.562   2.635  2.1687  1.5778  0.3844
  115SAPE   C3412084   0.101   5.770   2.668 -0.1964  0.5759 -0.6860
  115SAPE   H4X12085   0.205   5.733   2.671 -0.4628 -0.1776 -0.6079
  115SAPE   H4Y12086   0.080   5.783   2.777 -0.4204  0.8812 -0.7666
  115SAPE   C3512087   0.086   5.911   2.606  0.0227 -0.8651  0.5781
  115SAPE   H5X12088  -0.020   5.942   2.612  0.4512  0.5230  1.1432
  115SAPE   H5Y12089   0.103   5.898   2.497  1.4905  1.0224  0.5518
  115SAPE   C3612090   0.173   6.024   2.659  0.1637 -0.5388 -0.3262
  115SAPE   H6X12091   0.127   6.108   2.602  0.3863 -0.1208  0.1114
  115SAPE   H6Y12092   0.283   6.016   2.648  0.3819 -0.7319  1.7566
  115SAPE   C3712093   0.143   6.055   2.811  0.0773  0.0495 -0.0081
  115SAPE   H7X12094   0.046   6.022   2.854  0.3544  1.5955  1.8705
  115SAPE   H7Y12095   0.144   6.165   2.820  3.3277  0.0571  0.4376
  115SAPE   C3812096   0.258   5.996   2.900 -0.7596 -0.3558  0.8226
  115SAPE   H8X12097   0.353   6.000   2.843 -0.3553  0.5261  1.5479
  115SAPE   H8Y12098   0.239   5.889   2.922  3.0070 -1.4465 -0.9016
  115SAPE   C3912099   0.268   6.071   3.041  0.2196 -0.3625  0.0220
  115SAPE   H9X12100   0.369   6.048   3.082  0.5965  0.4296 -0.4512
  115SAPE   H9Y12101   0.199   6.032   3.118 -0.9722 -0.0609 -0.8783
  115SAPE  C31012102   0.284   6.230   3.035  0.9007 -0.9400  0.0038
  115SAPE  H10X12103   0.342   6.258   2.944  0.3080 -3.3054 -1.1560
  115SAPE  H10Y12104   0.346   6.244   3.126  0.4152  1.5389 -0.0385
  115SAPE  C31112105   0.159   6.321   3.047  0.4180 -0.3590  0.2858
  115SAPE  H11X12106   0.118   6.335   2.945 -0.2332 -1.6026  0.3668
  115SAPE  H11Y12107   0.186   6.425   3.075  1.4807 -0.0920 -1.6186
  115SAPE  C31212108   0.044   6.277   3.143  0.0069 -0.4252  0.0700
  115SAPE  H12X12109   0.022   6.169   3.125  1.5308 -0.7231 -0.0806
  115SAPE  H12Y12110  -0.051   6.320   3.107  0.1520 -0.5856 -0.5110
  115SAPE  C31312111   0.073   6.307   3.294  0.4067 -0.3041  0.2521
  115SAPE  H13X12112   0.183   6.299   3.308  1.1171  1.7054 -3.5912
  115SAPE  H13Y12113   0.014   6.239   3.359 -2.4936  0.5320 -1.4087
  115SAPE  C31412114   0.041   6.456   3.330  1.4073  0.0539 -0.4251
  115SAPE  H14X12115  -0.064   6.479   3.300  0.6808 -1.1172  1.1587
  115SAPE  H14Y12116   0.112   6.524   3.277 -2.6291  5.3177  0.4422
  115SAPE  C31512117   0.057   6.493   3.474 -0.1123 -0.2779  0.1020
  115SAPE  H15X12118   0.068   6.604   3.470  0.0090 -0.3059 -0.3284
  115SAPE  H15Y12119   0.145   6.448   3.525 -1.5347 -1.2037  1.7950
  115SAPE  C31612120  -0.062   6.456   3.564  0.1762 -0.9079 -0.9753
  115SAPE  H16X12121  -0.066   6.352   3.602 -0.6140 -0.9239 -1.1155
  115SAPE  H16Y12122  -0.156   6.471   3.507  0.9276 -0.4027 -2.0969
  115SAPE  C31712123  -0.060   6.550   3.696  0.2428  0.3187  0.1155
  115SAPE  H17X12124  -0.108   6.646   3.664  0.2336 -0.4648 -2.2855
  115SAPE  H17Y12125   0.043   6.561   3.735  0.0128  0.4827  0.6889
  115SAPE  C31812126  -0.134   6.485   3.820 -0.2397 -0.4573  0.5123
  115SAPE  H18X12127  -0.244   6.474   3.808 -0.1304 -0.3948 -0.5990
  115SAPE  H18Y12128  -0.108   6.544   3.910  0.9941  0.5646 -0.4913
  115SAPE  H18Z12129  -0.093   6.384   3.838  1.4779  0.4454  1.8120
  116SAPE     N12130   7.097   0.923   2.211  0.3422  0.1042  0.5375
  116SAPE   HN112131   7.118   0.855   2.136 -0.9945  0.9833 -0.6591
  116SAPE   HN212132   7.178   0.981   2.242 -0.1537  0.6166  0.8692
  116SAPE   HN312133   7.058   0.873   2.293 -3.2449  1.4010 -0.2752
  116SAPE   C1212134   6.997   1.035   2.171 -0.3346  0.3522 -0.5064
  116SAPE  H12A12135   6.938   1.011   2.081 -0.1255  1.7032 -1.0162
  116SAPE  H12B12136   7.044   1.131   2.141 -1.1585  1.5216  1.8430
  116SAPE   C1112137   6.904   1.070   2.284 -0.0852 -0.1041  0.1657
  116SAPE  H11A12138   6.866   0.981   2.340  1.0037 -0.4036  0.4393
  116SAPE  H11B12139   6.818   1.110   2.226 -0.3888 -0.4402  0.3815
  116SAPE     P12140   6.903   1.304   2.398  0.1915  0.3935 -0.2139
  116SAPE   O1312141   6.977   1.411   2.327  0.6176 -0.2414 -0.1345
  116SAPE   O1412142   6.756   1.301   2.372  0.3980 -0.2590  0.2427
  116SAPE   O1212143   6.969   1.160   2.376  0.2851  0.5219  0.0331
  116SAPE   O1112144   6.930   1.321   2.550  0.0029 -0.1260  0.5234
  116SAPE    C112145   7.005   1.238   2.639 -0.3437  0.2473 -0.4009
  116SAPE    HA12146   6.979   1.265   2.743 -0.7356  1.9936 -0.9421
  116SAPE    HB12147   6.970   1.135   2.619  0.0060  0.3149 -1.3881
  116SAPE    C212148   7.158   1.264   2.616 -0.0178  0.3923 -0.0889
  116SAPE    HS12149   7.181   1.255   2.508 -0.8641 -2.0168 -0.0908
  116SAPE   O2112150   7.231   1.162   2.690  0.1188  0.4115  0.0945
  116SAPE   C2112151   7.358   1.148   2.651 -0.4403  0.1695 -0.1632
  116SAPE   O2212152   7.409   1.208   2.555 -0.1336  0.0463 -0.2527
  116SAPE   C2212153   7.427   1.029   2.724  0.2916 -0.1677  0.3990
  116SAPE   H2R12154   7.403   0.928   2.684 -0.4228 -0.0558  0.5431
  116SAPE   H2S12155   7.535   1.038   2.696  0.6574 -0.9352  1.5424
  116SAPE    C312156   7.209   1.410   2.659  0.6158  0.7517  0.2957
  116SAPE    HX12157   7.147   1.490   2.613 -0.6080  0.8280  2.0651
  116SAPE    HY12158   7.309   1.419   2.611 -0.8201  0.7931 -2.8565
  116SAPE   O3112159   7.217   1.421   2.801 -0.2573  0.4445 -0.1357
  116SAPE   C3112160   7.120   1.476   2.871 -0.4599  0.0792  0.6914
  116SAPE   O3212161   7.016   1.520   2.829 -0.4352  0.0863 -0.9665
  116SAPE   C3212162   7.167   1.474   3.016  0.5769 -0.3917  0.1600
  116SAPE   H2X12163   7.077   1.486   3.080 -0.3293 -2.4414 -0.6928
  116SAPE   H2Y12164   7.238   1.559   3.028  0.2518 -0.1268  0.2194
  116SAPE   C2312165   7.423   1.038   2.880  0.1462 -0.0892  0.4112
  116SAPE   H3R12166   7.325   1.006   2.922  0.4917  1.0520  2.1264
  116SAPE   H3S12167   7.436   1.145   2.909  1.7322 -0.0781 -0.3107
  116SAPE   C2412168   7.543   0.962   2.948 -0.0419  0.0958  0.4462
  116SAPE   H4R12169   7.637   1.014   2.919 -0.3159  0.3098 -0.0522
  116SAPE   H4S12170   7.551   0.864   2.897 -2.2747 -0.0182  0.3029
  116SAPE   C2512171   7.528   0.931   3.100 -0.0265 -0.7854 -0.1927
  116SAPE   H5R12172   7.458   0.847   3.116  0.6932 -1.3839 -0.1607
  116SAPE   C2612173   7.603   0.972   3.205  0.3394 -0.3994  0.3514
  116SAPE   H6R12174   7.576   0.939   3.306 -0.1567 -0.3719  0.2276
  116SAPE   C2712175   7.716   1.073   3.179 -0.1525 -0.0311  0.8298
  116SAPE   H7R12176   7.685   1.177   3.156 -0.8315  0.2210  2.8215
  116SAPE   H7S12177   7.774   1.045   3.088 -0.3688 -0.5350  0.8430
  116SAPE   C2812178   7.813   1.069   3.296  0.8074  0.1563  0.4925
  116SAPE   H8R12179   7.912   1.026   3.274 -0.0243 -2.0151  0.9190
  116SAPE   C2912180   7.785   1.126   3.418 -0.1200 -0.4465 -0.3515
  116SAPE   H9R12181   7.857   1.127   3.501 -3.0485 -0.4041  2.2922
  116SAPE  C21012182   7.657   1.206   3.451  0.0323  0.0148  0.5220
  116SAPE  H10R12183   7.588   1.134   3.501 -0.3652 -0.6092 -0.8963
  116SAPE  H10S12184   7.602   1.224   3.356 -1.9820 -1.2015  1.4250
  116SAPE  C21112185   7.680   1.332   3.532 -0.3423  0.2184 -0.0006
  116SAPE  H11R12186   7.706   1.417   3.467  0.8580  0.5102  0.8328
  116SAPE  C21212187   7.684   1.332   3.671 -0.6347 -0.5159 -0.2885
  116SAPE  H12R12188   7.713   1.422   3.728  1.2715 -0.7594 -0.8640
  116SAPE  C21312189   7.663   1.208   3.758  0.6386 -1.0437  0.1797
  116SAPE  H13R12190   7.683   1.116   3.699 -0.8892 -0.8019 -0.7474
  116SAPE  H13S12191   7.556   1.218   3.786  1.3287  0.2251  2.4667
  116SAPE  C21412192   7.759   1.210   3.874 -0.3018  0.4732 -0.9073
  116SAPE  H14R12193   7.866   1.231   3.858  0.7342 -3.2458  0.8026
  116SAPE  C21512194   7.720   1.179   3.996 -0.0604 -0.5131  0.2333
  116SAPE  H15R12195   7.788   1.181   4.083 -0.3288 -2.3387  0.4987
  116SAPE  C21612196   7.582   1.152   4.047 -0.5921 -0.5115  0.0882
  116SAPE  H16R12197   7.502   1.137   3.970 -0.4627 -1.3074  0.1106
  116SAPE  H16S12198   7.537   1.230   4.112 -0.2802  0.5490 -0.9431
  116SAPE  C21712199   7.604   1.023   4.140 -0.0738 -0.5579 -0.0733
  116SAPE  H17R12200   7.525   1.035   4.216 -0.4150  2.0625 -0.7648
  116SAPE  H17S12201   7.699   1.037   4.195 -0.5849  2.2797  0.1827
  116SAPE  C21812202   7.593   0.886   4.075  0.4575  0.2428  0.4951
  116SAPE  H18R12203   7.643   0.900   3.977  1.3387 -2.4274  0.5028
  116SAPE  H18S12204   7.483   0.874   4.071  0.6495 -1.2089 -0.9738
  116SAPE  C21912205   7.663   0.774   4.145  0.5033  0.6482  0.4488
  116SAPE  H19R12206   7.765   0.806   4.177  0.0362  1.0673  1.5285
  116SAPE  H19S12207   7.664   0.683   4.082  0.0822  0.3007  0.9423
  116SAPE  C22012208   7.601   0.741   4.277  0.1304  0.8380  0.2617
  116SAPE  H20R12209   7.600   0.825   4.349  1.3234 -0.3018  1.6326
  116SAPE  H20S12210   7.640   0.645   4.317 -0.2081  0.2765 -0.7295
  116SAPE  H20T12211   7.495   0.712   4.263  0.4624 -1.2404  1.7946
  116SAPE   C3312212   7.244   1.342   3.048 -0.1463 -0.1531 -0.3160
  116SAPE   H3X12213   7.349   1.365   3.018  0.0272  2.4485  2.0603
  116SAPE   H3Y12214   7.212   1.255   2.987  0.6267  0.0465 -1.0199
  116SAPE   C3412215   7.236   1.306   3.197  0.3079 -0.1254  0.0509
  116SAPE   H4X12216   7.288   1.212   3.225 -1.1321 -0.5541  1.3289
  116SAPE   H4Y12217   7.130   1.295   3.230 -0.0190  1.3738 -0.4529
  116SAPE   C3512218   7.292   1.415   3.294 -0.4816 -0.0618 -0.0567
  116SAPE   H5X12219   7.246   1.513   3.266 -3.2523 -1.3350 -0.1122
  116SAPE   H5Y12220   7.403   1.419   3.288 -0.4907  0.8486  0.2897
  116SAPE   C3612221   7.249   1.383   3.437  0.4831 -0.0287  0.5704
  116SAPE   H6X12222   7.285   1.282   3.469  2.0647  0.1909 -0.4599
  116SAPE   H6Y12223   7.139   1.389   3.449 -0.0248 -3.6419 -1.3888
  116SAPE   C3712224   7.317   1.477   3.539  0.4235  0.2671 -0.5694
  116SAPE   H7X12225   7.258   1.571   3.528 -2.5010 -1.7604 -3.0508
  116SAPE   H7Y12226   7.426   1.488   3.520  0.3653  1.4483 -0.3112
  116SAPE   C3812227   7.313   1.413   3.682  0.6946  0.0024 -0.9939
  116SAPE   H8X12228   7.400   1.345   3.681 -0.5042 -1.5570 -2.5020
  116SAPE   H8Y12229   7.214   1.361   3.685  0.1560  1.0524 -0.2609
  116SAPE   C3912230   7.327   1.517   3.798 -0.2075  0.3915 -0.0169
  116SAPE   H9X12231   7.412   1.581   3.766  0.7811  0.2921  2.2725
  116SAPE   H9Y12232   7.351   1.463   3.892  0.3842 -1.4064 -1.1843
  116SAPE  C31012233   7.206   1.607   3.819  0.0371 -0.0953  0.3861
  116SAPE  H10X12234   7.135   1.539   3.870 -0.2597 -1.4929 -1.8253
  116SAPE  H10Y12235   7.162   1.624   3.719  0.0568  0.5526  0.4870
  116SAPE  C31112236   7.220   1.731   3.906 -1.0267  0.4692 -1.1108
  116SAPE  H11X12237   7.322   1.772   3.889  0.1342 -0.3342  3.3114
  116SAPE  H11Y12238   7.214   1.688   4.008 -0.6139  2.0056 -0.4226
  116SAPE  C31212239   7.114   1.842   3.911 -0.6169  0.0661 -0.2142
  116SAPE  H12X12240   7.126   1.923   3.837  3.7941  0.2358  0.5830
  116SAPE  H12Y12241   7.127   1.886   4.013  0.4160 -4.0669  1.5388
  116SAPE  C31312242   6.964   1.785   3.906 -0.5853 -0.1533 -0.2406
  116SAPE  H13X12243   6.955   1.721   3.816  0.9904  2.7093 -2.5227
  116SAPE  H13Y12244   6.906   1.875   3.879 -2.6273 -1.1683  0.7044
  116SAPE  C31412245   6.914   1.725   4.039  0.5382  0.2018 -0.6019
  116SAPE  H14X12246   6.933   1.807   4.111 -0.2336 -0.3090  0.1969
  116SAPE  H14Y12247   6.977   1.638   4.067  2.6792  1.3136 -1.7938
  116SAPE  C31512248   6.767   1.702   4.035  0.2476  0.1967 -0.1553
  116SAPE  H15X12249   6.745   1.602   3.992  2.0532  0.4237 -1.6848
  116SAPE  H15Y12250   6.717   1.781   3.974  0.5606  0.5736  0.0735
  116SAPE  C31612251   6.713   1.724   4.176 -0.1697 -0.2899  0.1517
  116SAPE  H16X12252   6.761   1.816   4.216 -2.4102  0.5362  1.0025
  116SAPE  H16Y12253   6.740   1.636   4.237  0.6024 -1.1393 -1.3877
  116SAPE  C31712254   6.560   1.725   4.177  0.0803  0.0841  0.4304
  116SAPE  H17X12255   6.524   1.705   4.281  0.1616 -0.2319  0.3976
  116SAPE  H17Y12256   6.507   1.659   4.105 -0.4098  0.2056  0.6704
  116SAPE  C31812257   6.501   1.863   4.149  0.8420 -0.5535 -0.0746
  116SAPE  H18X12258   6.394   1.866   4.120  0.9293  2.6524 -0.1815
  116SAPE  H18Y12259   6.538   1.904   4.052 -0.6095  0.3191 -0.2702
  116SAPE  H18Z12260   6.532   1.945   4.216  0.3708 -0.7017  0.3241
  117SOPE     N12261   2.182   3.878   6.196 -0.1550  0.3468 -0.4405
  117SOPE   HN112262   2.218   3.900   6.290 -1.8326  3.2516 -0.4128
  117SOPE   HN212263   2.186   3.956   6.128 -0.1704  1.6832  1.0735
  117SOPE   HN312264   2.080   3.873   6.216 -0.0096 -0.9402  0.0263
  117SOPE   C1212265   2.247   3.750   6.151 -0.5447  0.3470 -0.3995
  117SOPE  H12A12266   2.241   3.730   6.042  2.3546 -0.4260 -0.4546
  117SOPE  H12B12267   2.200   3.664   6.202 -1.0637  0.7019 -0.2825
  117SOPE   C1112268   2.396   3.745   6.197 -0.8762  0.2289 -0.2742
  117SOPE  H11A12269   2.459   3.821   6.146  0.5141 -0.0133  1.0503
  117SOPE  H11B12270   2.428   3.646   6.158 -1.2405 -0.3790  0.9288
  117SOPE     P12271   2.522   3.825   6.417  0.5434 -0.2326 -0.2591
  117SOPE   O1312272   2.533   3.748   6.545  0.3331 -0.0426 -0.3818
  117SOPE   O1412273   2.477   3.967   6.427  0.4248  0.1698 -0.0687
  117SOPE   O1212274   2.415   3.743   6.338 -0.6500  0.6181  0.7845
  117SOPE   O1112275   2.658   3.812   6.337 -0.0881 -0.0282  0.3873
  117SOPE    C112276   2.729   3.690   6.314  0.4571 -0.7610  0.6023
  117SOPE    HA12277   2.663   3.610   6.273 -0.9297  0.9600 -0.5725
  117SOPE    HB12278   2.767   3.653   6.412  0.1407 -1.9439  0.2842
  117SOPE    C212279   2.853   3.697   6.220 -0.2092  0.7081 -0.5755
  117SOPE    HS12280   2.931   3.760   6.269 -0.9786  1.2180  0.0213
  117SOPE   O2112281   2.804   3.737   6.087 -1.0923  0.1085  0.3388
  117SOPE   C2112282   2.821   3.860   6.054  0.4665 -0.1964  0.0037
  117SOPE   O2212283   2.856   3.943   6.135 -0.0271 -0.3721 -0.0965
  117SOPE   C2212284   2.797   3.875   5.902  0.1481 -0.3999  0.2571
  117SOPE   H2R12285   2.846   3.967   5.865  1.8164 -1.1063  0.6741
  117SOPE   H2S12286   2.686   3.875   5.889  0.1157 -0.0710  0.5332
  117SOPE    C312287   2.917   3.559   6.210 -0.3148  0.7405 -0.0618
  117SOPE    HX12288   2.835   3.491   6.180  0.2763 -0.2103  0.4592
  117SOPE    HY12289   2.951   3.528   6.311  0.0054  1.7994  0.1678
  117SOPE   O3112290   3.028   3.557   6.121 -0.3969  0.3994 -0.2500
  117SOPE   C3112291   3.072   3.434   6.097 -0.3144  0.0509 -0.5547
  117SOPE   O3212292   3.007   3.335   6.118  0.1836  0.6901  0.3322
  117SOPE   C3212293   3.197   3.455   6.022  0.4782  0.1239 -0.5933
  117SOPE   H2X12294   3.261   3.530   6.072 -0.7730 -0.4063  1.8636
  117SOPE   H2Y12295   3.175   3.505   5.925  0.2593 -0.0334 -0.6242
  117SOPE   C2312296   2.857   3.751   5.818 -0.2833 -0.3645  0.2782
  117SOPE   H3R12297   2.819   3.653   5.853  2.2183 -1.2406  0.6450
  117SOPE   H3S12298   2.967   3.749   5.833  0.1117  2.3131 -1.7231
  117SOPE   C2412299   2.819   3.762   5.670  0.2684 -0.4682  0.9070
  117SOPE   H4R12300   2.712   3.739   5.651 -0.6550  2.3386  2.4399
  117SOPE   H4S12301   2.855   3.861   5.634 -0.0987 -1.0738 -1.2215
  117SOPE   C2512302   2.890   3.652   5.596  0.2382  0.2056  0.4315
  117SOPE   H5R12303   2.998   3.679   5.606 -0.3946  3.5698 -1.1895
  117SOPE   H5S12304   2.869   3.553   5.643 -0.0838 -1.1077 -2.3521
  117SOPE   C2612305   2.848   3.642   5.443 -0.4207 -0.1523 -0.3319
  117SOPE   H6R12306   2.886   3.551   5.393 -0.7850 -0.3090 -0.3250
  117SOPE   H6S12307   2.738   3.651   5.432 -0.1521  0.9512 -2.2638
  117SOPE   C2712308   2.910   3.762   5.369  0.1803 -0.3653  0.7744
  117SOPE   H7R12309   2.887   3.859   5.418 -2.8441 -1.3929  1.4570
  117SOPE   H7S12310   3.017   3.731   5.370  0.2681 -0.1183 -1.0132
  117SOPE   C2812311   2.857   3.767   5.230 -0.2541 -0.0080  0.0321
  117SOPE   H8R12312   2.928   3.833   5.176  0.6398 -0.1695  1.0039
  117SOPE   H8S12313   2.854   3.669   5.177 -2.4183  0.1161 -0.1357
  117SOPE   C2912314   2.721   3.838   5.211  0.0119  0.7051 -0.2860
  117SOPE   H9112315   2.682   3.888   5.301 -0.8699 -2.0136  0.8771
  117SOPE  C21012316   2.637   3.824   5.114  0.2264 -0.6788  0.1440
  117SOPE  H10112317   2.549   3.890   5.113 -0.1403 -1.1873 -1.6941
  117SOPE  C21112318   2.662   3.739   4.986  0.4903 -0.2803 -0.2657
  117SOPE  H11R12319   2.569   3.680   4.972  0.4856 -0.6858  1.3744
  117SOPE  H11S12320   2.743   3.668   5.012  1.7758  1.1356 -0.3251
  117SOPE  C21212321   2.705   3.820   4.861  0.1109 -0.5797  0.0528
  117SOPE  H12R12322   2.629   3.901   4.862  1.0928  0.3505  0.6262
  117SOPE  H12S12323   2.686   3.763   4.768 -1.4111 -0.8445  0.5105
  117SOPE  C21312324   2.845   3.884   4.864 -0.5650  0.0547 -0.5280
  117SOPE  H13R12325   2.853   3.954   4.950 -1.9098  1.6313 -1.6620
  117SOPE  H13S12326   2.869   3.943   4.773  1.3713 -1.7975 -1.2483
  117SOPE  C21412327   2.956   3.771   4.870 -0.0040 -0.0341  0.1971
  117SOPE  H14R12328   2.957   3.740   4.763  1.1549  2.4114 -0.5329
  117SOPE  H14S12329   2.930   3.683   4.932  1.0406 -0.5398 -0.0845
  117SOPE  C21512330   3.093   3.816   4.908 -0.2973  0.5341 -0.2915
  117SOPE  H15R12331   3.165   3.732   4.900  0.2131  1.0044 -0.6287
  117SOPE  H15S12332   3.083   3.851   5.013 -0.0688  1.0521 -0.4455
  117SOPE  C21612333   3.147   3.934   4.822  0.7053  0.3208 -0.0081
  117SOPE  H16R12334   3.066   4.009   4.810 -0.8181 -0.6622  3.5920
  117SOPE  H16S12335   3.175   3.887   4.725  1.0254 -0.2281  0.3503
  117SOPE  C21712336   3.269   4.008   4.873  0.6618 -0.3823  0.2948
  117SOPE  H17R12337   3.256   4.073   4.962  0.9647 -0.7496  0.6102
  117SOPE  H17S12338   3.295   4.078   4.791  0.0474 -0.5137 -0.0166
  117SOPE  C21812339   3.390   3.929   4.906 -0.5667  0.8250 -0.7057
  117SOPE  H18R12340   3.382   3.876   5.003 -0.2967 -1.7291 -2.0223
  117SOPE  H18S12341   3.476   3.997   4.923  2.2754 -2.2689 -2.0625
  117SOPE  H18T12342   3.418   3.855   4.828 -1.0224 -1.4966  1.2775
  117SOPE   C3312343   3.288   3.333   6.007  0.4065  0.5816 -0.1973
  117SOPE   H3X12344   3.236   3.252   5.952  1.0830 -1.4289  2.0361
  117SOPE   H3Y12345   3.319   3.280   6.099 -1.2362 -0.7236 -0.3838
  117SOPE   C3412346   3.413   3.349   5.920 -0.0231 -0.0611 -0.3082
  117SOPE   H4X12347   3.499   3.297   5.967  1.3097  1.5622 -0.9079
  117SOPE   H4Y12348   3.439   3.457   5.927 -1.0112  0.2306 -1.0649
  117SOPE   C3512349   3.392   3.314   5.763 -0.1998 -0.1881  0.3850
  117SOPE   H5X12350   3.365   3.207   5.750 -0.3395 -0.6471  3.8244
  117SOPE   H5Y12351   3.495   3.329   5.726  0.0660 -1.5860  0.5407
  117SOPE   C3612352   3.297   3.406   5.682 -0.3017  0.0644 -0.1955
  117SOPE   H6X12353   3.342   3.506   5.698 -0.6990  0.1305  0.5025
  117SOPE   H6Y12354   3.199   3.398   5.733  0.1867 -1.7876  0.4757
  117SOPE   C3712355   3.282   3.373   5.534  0.2117  0.1955  0.4294
  117SOPE   H7X12356   3.207   3.293   5.518 -1.1740  1.9857 -2.4264
  117SOPE   H7Y12357   3.373   3.332   5.486 -1.3012  1.2137 -3.4843
  117SOPE   C3812358   3.221   3.483   5.437 -0.7616 -0.3055 -0.6076
  117SOPE   H8X12359   3.277   3.576   5.462  0.5484 -1.5179  1.0579
  117SOPE   H8Y12360   3.119   3.511   5.471 -0.8524 -0.4725 -0.7433
  117SOPE   C3912361   3.223   3.462   5.282  0.0461 -0.1752 -0.8502
  117SOPE   H9X12362   3.319   3.413   5.252 -0.4536 -0.4097 -2.0780
  117SOPE   H9Y12363   3.226   3.564   5.237 -0.5302 -0.2732 -1.1154
  117SOPE  C31012364   3.106   3.386   5.223  0.3680  0.1896  0.7564
  117SOPE  H10X12365   3.017   3.437   5.266  0.8867 -0.0212  2.1040
  117SOPE  H10Y12366   3.109   3.283   5.264  0.9630 -0.2582 -0.4228
  117SOPE  C31112367   3.112   3.401   5.071  0.8306  0.7060  0.4708
  117SOPE  H11X12368   3.169   3.317   5.026 -1.0181  0.0267 -0.6477
  117SOPE  H11Y12369   3.153   3.499   5.039 -1.3585  2.2956  2.3915
  117SOPE  C31212370   2.972   3.400   5.005 -0.4283  0.7796 -1.1494
  117SOPE  H12X12371   2.902   3.472   5.052 -1.6808 -0.8905 -0.4273
  117SOPE  H12Y12372   2.931   3.299   5.026 -0.3566  1.2820  1.4527
  117SOPE  C31312373   2.973   3.405   4.851  0.2954  0.3244 -0.2566
  117SOPE  H13X12374   3.028   3.314   4.820 -0.7764 -0.6846  0.7281
  117SOPE  H13Y12375   3.030   3.497   4.826 -1.5368  1.4907 -0.2605
  117SOPE  C31412376   2.832   3.409   4.786 -0.2505 -0.0356 -0.1247
  117SOPE  H14X12377   2.769   3.478   4.846  0.0654  0.5225 -0.4276
  117SOPE  H14Y12378   2.783   3.309   4.787  1.0185 -0.6708  0.6519
  117SOPE  C31512379   2.827   3.449   4.639  0.2877  0.2561  0.3972
  117SOPE  H15X12380   2.913   3.391   4.599  0.7732  1.0914  0.2007
  117SOPE  H15Y12381   2.866   3.553   4.632 -1.9573  1.1114  0.1739
  117SOPE  C31612382   2.687   3.427   4.567 -0.0458  0.5834  0.9772
  117SOPE  H16X12383   2.647   3.328   4.598 -1.2602  0.8091  0.2021
  117SOPE  H16Y12384   2.710   3.428   4.458  1.1652  0.3677  1.2294
  117SOPE  C31712385   2.590   3.534   4.599  0.2653  0.2656  0.6392
  117SOPE  H17X12386   2.632   3.633   4.571 -1.2484  0.8176  0.2398
  117SOPE  H17Y12387   2.564   3.549   4.706 -0.8319 -0.6702  0.5139
  117SOPE  C31812388   2.465   3.530   4.510 -0.1900 -0.0272 -0.1968
  117SOPE  H18X12389   2.479   3.549   4.402 -0.1629 -0.2906 -0.2400
  117SOPE  H18Y12390   2.389   3.604   4.544  1.2581  0.9780  0.9315
  117SOPE  H18Z12391   2.415   3.431   4.515  1.7966 -1.0352  0.4609
  118SOPE     N12392   4.741   6.350   6.667  0.5176 -0.1922  0.4060
  118SOPE   HN112393   4.727   6.344   6.564 -0.3355 -1.6340  0.5965
  118SOPE   HN212394   4.664   6.301   6.717  0.4348  0.5445  0.9942
  118SOPE   HN312395   4.734   6.450   6.693  1.7620  0.1737 -0.6274
  118SOPE   C1212396   4.871   6.285   6.701  0.5071 -0.2372  0.7291
  118SOPE  H12A12397   4.867   6.283   6.812  0.1370 -0.0511  0.7198
  118SOPE  H12B12398   4.951   6.356   6.672 -1.0642  0.4141 -2.2438
  118SOPE   C1112399   4.895   6.153   6.617 -0.0230 -0.0359 -0.2635
  118SOPE  H11A12400   4.819   6.078   6.648 -1.5196  0.9425 -1.4788
  118SOPE  H11B12401   4.997   6.116   6.642 -0.1022 -0.8534 -1.0900
  118SOPE     P12402   4.978   6.243   6.393 -0.1143  0.0666 -0.0129
  118SOPE   O1312403   5.117   6.198   6.419 -1.2374 -0.3065  0.2695
  118SOPE   O1412404   4.952   6.392   6.398 -0.1702 -0.1232 -0.1159
  118SOPE   O1212405   4.876   6.164   6.480 -0.3441  0.6222  0.3649
  118SOPE   O1112406   4.947   6.193   6.248 -0.1528  0.0242  0.0543
  118SOPE    C112407   4.836   6.234   6.169 -0.4727 -0.6104  0.6955
  118SOPE    HA12408   4.874   6.298   6.086  1.9609 -0.4268  1.9235
  118SOPE    HB12409   4.766   6.306   6.216  1.8556  1.8761  0.4316
  118SOPE    C212410   4.776   6.104   6.120 -0.6712  0.9717  0.3936
  118SOPE    HS12411   4.743   6.041   6.206 -0.2817  0.9549  0.5340
  118SOPE   O2112412   4.876   6.035   6.054 -0.2664  1.1379  0.1377
  118SOPE   C2112413   4.860   5.909   6.029 -0.3120  1.2721 -0.1969
  118SOPE   O2212414   4.769   5.835   6.058 -0.2145 -0.0254 -0.2382
  118SOPE   C2212415   4.979   5.861   5.948 -0.2599 -0.6165 -0.3994
  118SOPE   H2R12416   5.067   5.871   6.014 -0.2404  0.3917 -0.5710
  118SOPE   H2S12417   4.977   5.933   5.863 -1.2099  2.6881  2.3248
  118SOPE    C312418   4.653   6.123   6.025 -1.4263  0.2162  0.0005
  118SOPE    HX12419   4.572   6.189   6.063 -0.2384  1.1353  0.9838
  118SOPE    HY12420   4.615   6.023   5.996  0.7169 -0.7645  0.4730
  118SOPE   O3112421   4.690   6.177   5.896 -0.7566  0.6654 -0.5123
  118SOPE   C3112422   4.685   6.314   5.886  0.0719 -1.1092  0.1186
  118SOPE   O3212423   4.650   6.394   5.970  0.0709  0.4988 -0.1892
  118SOPE   C3212424   4.721   6.351   5.743 -0.2866 -0.6179 -0.2550
  118SOPE   H2X12425   4.633   6.410   5.709 -2.6992 -3.8695  0.0832
  118SOPE   H2Y12426   4.728   6.255   5.688 -0.0163 -1.1298  0.6534
  118SOPE   C2312427   4.973   5.710   5.913  1.1938  0.4729 -0.0161
  118SOPE   H3R12428   4.893   5.684   5.840  1.1580 -2.9660  1.1823
  118SOPE   H3S12429   4.951   5.660   6.009 -0.2606 -3.1885 -2.1356
  118SOPE   C2412430   5.104   5.667   5.850  0.3510  0.2953 -0.7822
  118SOPE   H4R12431   5.189   5.716   5.902 -1.1695  1.2294  0.8728
  118SOPE   H4S12432   5.101   5.559   5.876 -0.2472  0.5897  0.3951
  118SOPE   C2512433   5.121   5.700   5.704 -0.6385 -0.6222  0.0946
  118SOPE   H5R12434   5.043   5.637   5.655 -1.7545  1.5296 -0.9705
  118SOPE   H5S12435   5.106   5.806   5.675 -1.3069 -1.4140 -2.6281
  118SOPE   C2612436   5.253   5.639   5.648  0.8128  0.0024 -0.1588
  118SOPE   H6R12437   5.336   5.674   5.713  1.3778 -0.7644 -0.4622
  118SOPE   H6S12438   5.251   5.529   5.660 -0.6044 -0.0455 -0.7133
  118SOPE   C2712439   5.291   5.665   5.498  0.4239 -1.2246  0.1721
  118SOPE   H7R12440   5.247   5.766   5.484  2.1592 -0.2122  1.7522
  118SOPE   H7S12441   5.399   5.685   5.486  0.3053  0.3950  1.4736
  118SOPE   C2812442   5.242   5.568   5.385  0.6666 -0.3576 -0.5085
  118SOPE   H8R12443   5.260   5.464   5.422  2.2299 -0.9964 -2.9196
  118SOPE   H8S12444   5.135   5.572   5.357  0.2737  2.6283  1.2990
  118SOPE   C2912445   5.322   5.604   5.258 -0.3166  0.4261 -0.0513
  118SOPE   H9112446   5.344   5.711   5.241  2.7614 -0.0303  0.6778
  118SOPE  C21012447   5.394   5.519   5.182  0.9036 -0.2949  0.0005
  118SOPE  H10112448   5.446   5.566   5.097 -1.3742  0.4469 -1.0417
  118SOPE  C21112449   5.417   5.373   5.196  0.5009 -0.0932  0.5162
  118SOPE  H11R12450   5.345   5.324   5.265  0.0802 -0.6604 -0.3157
  118SOPE  H11S12451   5.516   5.352   5.244  1.0658 -0.0860 -0.6389
  118SOPE  C21212452   5.407   5.299   5.057 -0.2189  0.2412 -0.0642
  118SOPE  H12R12453   5.411   5.193   5.087 -0.7436  0.3656  0.4603
  118SOPE  H12S12454   5.491   5.330   4.992  0.0943  1.7785  1.0491
  118SOPE  C21312455   5.268   5.304   4.982 -0.3989 -0.5256 -0.2530
  118SOPE  H13R12456   5.257   5.408   4.944 -1.4895 -0.7574 -0.5760
  118SOPE  H13S12457   5.186   5.273   5.050  0.5417 -1.4734  0.4629
  118SOPE  C21412458   5.259   5.210   4.859 -0.1762 -0.6340  0.6007
  118SOPE  H14R12459   5.174   5.220   4.787 -0.2092 -0.1416  0.7045
  118SOPE  H14S12460   5.270   5.103   4.889  1.7105 -0.3747  0.8985
  118SOPE  C21512461   5.384   5.234   4.758  0.3474 -0.4442  0.1377
  118SOPE  H15R12462   5.391   5.140   4.699 -0.6853  1.1049 -2.5554
  118SOPE  H15S12463   5.484   5.240   4.805  1.4921  0.9870 -2.3512
  118SOPE  C21612464   5.376   5.362   4.670 -0.6652  0.2848  0.1289
  118SOPE  H16R12465   5.354   5.454   4.728 -4.2909 -0.0926 -0.5099
  118SOPE  H16S12466   5.289   5.338   4.605  1.0724 -2.9551 -1.0879
  118SOPE  C21712467   5.502   5.373   4.584 -0.6591  0.1610  0.1146
  118SOPE  H17R12468   5.499   5.288   4.512 -0.9538 -0.3361  0.7100
  118SOPE  H17S12469   5.602   5.367   4.633 -0.9048 -1.8762  0.4255
  118SOPE  C21812470   5.509   5.506   4.500  0.2407 -0.8006  0.0491
  118SOPE  H18R12471   5.498   5.586   4.576 -1.6313 -1.1126  0.1373
  118SOPE  H18S12472   5.428   5.511   4.424 -0.0912  0.5301  0.4866
  118SOPE  H18T12473   5.601   5.508   4.438  0.7166 -0.5261  0.7643
  118SOPE   C3312474   4.847   6.435   5.722 -0.8787 -0.3401 -0.2079
  118SOPE   H3X12475   4.934   6.369   5.739 -1.4882 -1.0827  0.0243
  118SOPE   H3Y12476   4.851   6.514   5.800 -1.8780 -0.8905  0.4097
  118SOPE   C3412477   4.863   6.492   5.582 -0.2062  0.4342  0.5405
  118SOPE   H4X12478   4.962   6.541   5.566  0.0395 -0.2652 -0.0806
  118SOPE   H4Y12479   4.788   6.567   5.550 -0.2995 -0.6169 -1.7728
  118SOPE   C3512480   4.849   6.375   5.481  0.4448 -0.3638 -0.5913
  118SOPE   H5X12481   4.741   6.350   5.472  0.7855 -1.2602 -2.6186
  118SOPE   H5Y12482   4.913   6.294   5.524  0.8020 -0.6494 -1.6429
  118SOPE   C3612483   4.909   6.407   5.340 -0.9923  0.2407  0.1772
  118SOPE   H6X12484   4.870   6.508   5.312 -1.6807 -0.0673  0.0094
  118SOPE   H6Y12485   4.874   6.335   5.263  0.2317  0.1236 -0.2877
  118SOPE   C3712486   5.061   6.416   5.349 -0.1195 -0.3872 -0.3632
  118SOPE   H7X12487   5.091   6.315   5.382  0.9745  0.1651  0.3652
  118SOPE   H7Y12488   5.100   6.482   5.429 -0.2850 -0.9855  0.2150
  118SOPE   C3812489   5.143   6.442   5.227 -0.3539  0.3841  0.0528
  118SOPE   H8X12490   5.144   6.552   5.215  0.8707  0.2285 -1.4885
  118SOPE   H8Y12491   5.082   6.409   5.141  0.1957  0.5242 -0.3948
  118SOPE   C3912492   5.288   6.383   5.225  0.2289  0.0002  0.5345
  118SOPE   H9X12493   5.296   6.276   5.255  1.8320  0.5672  2.2291
  118SOPE   H9Y12494   5.336   6.443   5.305  2.3456  1.1548 -1.5239
  118SOPE  C31012495   5.364   6.416   5.094  0.4853  0.7485  0.7615
  118SOPE  H10X12496   5.470   6.393   5.117  0.2956  0.7932  1.6924
  118SOPE  H10Y12497   5.345   6.522   5.066 -2.3006 -0.0967 -0.7411
  118SOPE  C31112498   5.331   6.322   4.972 -0.3015  0.0369  0.4507
  118SOPE  H11X12499   5.407   6.326   4.891 -1.5513 -2.2162 -0.8988
  118SOPE  H11Y12500   5.230   6.348   4.933  0.2709  0.9647 -0.4441
  118SOPE  C31212501   5.359   6.173   5.017  0.2625 -0.0148  0.0444
  118SOPE  H12X12502   5.303   6.150   5.111 -0.3417  2.1739  0.2358
  118SOPE  H12Y12503   5.467   6.153   5.031  0.1655  0.0589  0.9092
  118SOPE  C31312504   5.312   6.064   4.911  0.2115  0.2545  0.2039
  118SOPE  H13X12505   5.377   6.065   4.821 -0.2328  1.5581 -0.1133
  118SOPE  H13Y12506   5.214   6.095   4.870  0.7824  3.1354  0.9354
  118SOPE  C31412507   5.316   5.923   4.971  0.9190  0.7801  0.7201
  118SOPE  H14X12508   5.221   5.918   5.028 -0.3545  3.3551 -1.0755
  118SOPE  H14Y12509   5.400   5.909   5.042  0.8263 -1.0241  0.4972
  118SOPE  C31512510   5.298   5.801   4.881 -0.4615 -0.1966 -1.0005
  118SOPE  H15X12511   5.340   5.718   4.942 -1.4344  1.0346  1.4002
  118SOPE  H15Y12512   5.356   5.806   4.786 -1.4421 -2.1331 -1.7283
  118SOPE  C31612513   5.158   5.774   4.835  0.1987  1.1646 -0.0697
  118SOPE  H16X12514   5.102   5.867   4.811  1.0845  1.0638 -2.6319
  118SOPE  H16Y12515   5.112   5.740   4.930  0.0136 -0.6358 -0.8003
  118SOPE  C31712516   5.142   5.658   4.736  0.0823 -0.6988  0.3508
  118SOPE  H17X12517   5.201   5.575   4.778  0.5255 -0.7116 -0.2869
  118SOPE  H17Y12518   5.185   5.693   4.639 -1.3034  4.3846  1.4197
  118SOPE  C31812519   5.002   5.621   4.710  0.1405 -0.1261  0.2881
  118SOPE  H18X12520   4.947   5.601   4.804  0.5912  0.9724  0.7969
  118SOPE  H18Y12521   4.997   5.532   4.644 -0.6749  0.5474 -0.5703
  118SOPE  H18Z12522   4.945   5.700   4.655  0.3150  0.1140  0.4543
  119SOPE     N12523   5.407   5.998   6.234  0.5268 -0.3412 -0.2838
  119SOPE   HN112524   5.315   6.046   6.230 -0.4321 -2.1220  0.0351
  119SOPE   HN212525   5.441   6.006   6.332  1.6223 -1.2804 -0.5688
  119SOPE   HN312526   5.476   6.050   6.176 -0.7457  1.7036 -0.0013
  119SOPE   C1212527   5.396   5.857   6.182 -0.1099 -0.3316 -0.1473
  119SOPE  H12A12528   5.390   5.870   6.072 -1.8412  0.7389  0.0570
  119SOPE  H12B12529   5.303   5.808   6.218 -1.3651  1.1612 -1.3403
  119SOPE   C1112530   5.526   5.781   6.225  0.2320 -0.8436 -0.7961
  119SOPE  H11A12531   5.532   5.684   6.171 -0.0301 -0.7102 -1.0714
  119SOPE  H11B12532   5.520   5.759   6.333 -0.8739  0.2702 -0.6189
  119SOPE     P12533   5.787   5.810   6.242  0.0640 -0.0629  0.0683
  119SOPE   O1312534   5.789   5.660   6.261  0.6795 -0.2897 -0.1294
  119SOPE   O1412535   5.820   5.888   6.356 -0.0624 -0.5273 -0.6026
  119SOPE   O1212536   5.646   5.853   6.181 -0.4605  0.2975  0.0413
  119SOPE   O1112537   5.883   5.842   6.121 -0.1193  0.0287 -0.8016
  119SOPE    C112538   5.814   5.842   5.996  0.1037 -0.4566 -0.3520
  119SOPE    HA12539   5.753   5.933   5.975 -1.4186 -1.6752 -1.3058
  119SOPE    HB12540   5.741   5.760   5.981 -1.6936  1.4524 -2.4875
  119SOPE    C212541   5.921   5.833   5.882 -0.3329  0.0757 -0.9344
  119SOPE    HS12542   5.968   5.732   5.883  0.7846  0.5872 -1.6582
  119SOPE   O2112543   6.019   5.933   5.914  0.4546  0.4407  0.0961
  119SOPE   C2112544   6.132   5.930   5.838 -0.7521 -0.1211 -0.3904
  119SOPE   O2212545   6.163   5.849   5.751  0.0252  0.8962 -0.3761
  119SOPE   C2212546   6.215   6.064   5.865 -0.1675  0.5869  0.2799
  119SOPE   H2R12547   6.302   6.033   5.928  0.8235 -0.0790 -1.3807
  119SOPE   H2S12548   6.157   6.137   5.925  1.6020  2.0383  0.2665
  119SOPE    C312549   5.843   5.861   5.748 -0.7057  0.1985  0.6812
  119SOPE    HX12550   5.764   5.783   5.744  2.6505 -3.3220 -0.4507
  119SOPE    HY12551   5.919   5.846   5.668 -0.4816  0.8473  0.7688
  119SOPE   O3112552   5.798   5.996   5.754 -0.4540 -0.8531  0.0036
  119SOPE   C3112553   5.694   6.018   5.669 -0.0245  0.7818 -0.6510
  119SOPE   O3212554   5.662   5.946   5.579 -0.3197  0.2248  0.0189
  119SOPE   C3212555   5.635   6.155   5.704  0.3060  0.3693  0.5597
  119SOPE   H2X12556   5.651   6.168   5.813 -0.4993  0.6274  0.6560
  119SOPE   H2Y12557   5.526   6.157   5.681  0.4694  2.5973 -0.1127
  119SOPE   C2312558   6.281   6.110   5.734  0.0026 -0.5598 -0.0641
  119SOPE   H3R12559   6.350   6.028   5.704  1.8614  1.1225 -0.4301
  119SOPE   H3S12560   6.338   6.203   5.755  2.1336 -1.2762 -2.4541
  119SOPE   C2412561   6.183   6.140   5.620  0.3788 -0.2967  0.0366
  119SOPE   H4R12562   6.117   6.055   5.593 -1.3045  1.3617 -1.2068
  119SOPE   H4S12563   6.122   6.223   5.662  1.9218  0.4541  0.8315
  119SOPE   C2512564   6.259   6.196   5.498  0.5855 -0.1820  0.4467
  119SOPE   H5R12565   6.288   6.301   5.521  2.7154 -0.6109 -0.1619
  119SOPE   H5S12566   6.353   6.137   5.493  1.1704  0.5745  1.9884
  119SOPE   C2612567   6.180   6.185   5.372 -0.3422  1.6237  0.2798
  119SOPE   H6R12568   6.084   6.239   5.390  0.1038  2.5414 -0.0345
  119SOPE   H6S12569   6.235   6.241   5.293 -0.0461  0.3252 -0.4362
  119SOPE   C2712570   6.168   6.037   5.330 -0.3583  0.3236 -0.4081
  119SOPE   H7R12571   6.252   6.006   5.264 -1.7201  1.3882 -2.7145
  119SOPE   H7S12572   6.167   5.967   5.417  2.1162  1.4433  0.5811
  119SOPE   C2812573   6.052   6.011   5.235 -0.1326  0.1417 -0.0638
  119SOPE   H8R12574   6.072   6.064   5.139 -0.8258 -2.1338 -1.4988
  119SOPE   H8S12575   6.060   5.905   5.204  0.7460  0.9771 -2.8992
  119SOPE   C2912576   5.916   6.038   5.276 -0.4772  0.2194 -0.1767
  119SOPE   H9112577   5.918   6.081   5.377 -2.0582 -2.1394  0.9114
  119SOPE  C21012578   5.804   6.019   5.209  0.3484 -0.0832 -0.1190
  119SOPE  H10112579   5.709   6.059   5.249  0.8142  1.4830 -0.5486
  119SOPE  C21112580   5.793   5.964   5.070 -0.2116  0.4584 -1.1703
  119SOPE  H11R12581   5.718   5.882   5.066 -1.9598  1.9595 -0.3600
  119SOPE  H11S12582   5.885   5.916   5.031  0.1738 -1.1257  1.5734
  119SOPE  C21212583   5.770   6.063   4.959 -0.3281 -0.4351  0.2091
  119SOPE  H12R12584   5.860   6.126   4.944 -1.1248  0.4966 -0.7281
  119SOPE  H12S12585   5.682   6.127   4.977  1.6745  1.7215  2.6453
  119SOPE  C21312586   5.763   6.003   4.813 -0.2661 -0.6942  0.1177
  119SOPE  H13R12587   5.692   5.918   4.803  0.8897 -1.6223 -0.2590
  119SOPE  H13S12588   5.867   5.966   4.799 -1.2509 -2.9410 -1.7068
  119SOPE  C21412589   5.735   6.112   4.703  0.7590 -0.5968 -0.2647
  119SOPE  H14R12590   5.773   6.214   4.726  0.6928 -0.6506  0.0760
  119SOPE  H14S12591   5.628   6.123   4.678  1.1080  0.9978 -1.1038
  119SOPE  C21512592   5.798   6.090   4.559  1.0405  0.4491 -0.2172
  119SOPE  H15R12593   5.787   5.982   4.535 -0.1165  0.6650 -0.7037
  119SOPE  H15S12594   5.905   6.119   4.556  1.0526  0.6331  1.5834
  119SOPE  C21612595   5.737   6.168   4.440 -0.2508 -0.1424 -0.3532
  119SOPE  H16R12596   5.731   6.276   4.465  1.6267 -0.5388  1.9055
  119SOPE  H16S12597   5.640   6.127   4.403  0.9596 -2.3398 -1.2217
  119SOPE  C21712598   5.825   6.169   4.314  0.9834 -0.4646  0.3497
  119SOPE  H17R12599   5.880   6.072   4.306 -2.1199 -2.2581 -0.1077
  119SOPE  H17S12600   5.912   6.237   4.320  0.3471  0.4519 -0.6408
  119SOPE  C21812601   5.744   6.188   4.190  0.1784  0.0132 -0.2919
  119SOPE  H18R12602   5.810   6.218   4.106 -0.4676  1.4700 -0.3126
  119SOPE  H18S12603   5.670   6.271   4.192  0.5908  0.3794  0.0715
  119SOPE  H18T12604   5.686   6.096   4.172 -3.4373  2.0201  0.5318
  119SOPE   C3312605   5.710   6.273   5.636  0.0985 -0.6840  0.2323
  119SOPE   H3X12606   5.819   6.276   5.652  0.5810  0.0770 -2.8747
  119SOPE   H3Y12607   5.661   6.362   5.682 -0.4447 -0.0323 -1.5708
  119SOPE   C3412608   5.681   6.276   5.487  0.3667 -0.2727  0.6056
  119SOPE   H4X12609   5.571   6.287   5.480  0.3782 -0.5003  0.1080
  119SOPE   H4Y12610   5.698   6.171   5.454 -0.2380 -0.7870  1.8664
  119SOPE   C3512611   5.756   6.379   5.414 -0.2257 -0.1560 -0.2556
  119SOPE   H5X12612   5.863   6.352   5.404  0.5336  1.8255  1.9711
  119SOPE   H5Y12613   5.775   6.476   5.466  1.7552 -1.3168  1.2571
  119SOPE   C3612614   5.692   6.409   5.279 -0.1408  0.3849 -0.3526
  119SOPE   H6X12615   5.587   6.440   5.301  0.2945  1.4559  0.2508
  119SOPE   H6Y12616   5.691   6.319   5.214 -2.1745  0.5888 -0.6492
  119SOPE   C3712617   5.769   6.518   5.210 -0.6539  0.2954  0.2180
  119SOPE   H7X12618   5.809   6.589   5.286  0.4638 -0.6476  0.5171
  119SOPE   H7Y12619   5.702   6.578   5.144  0.2386 -0.1784 -1.1234
  119SOPE   C3812620   5.887   6.467   5.124 -0.5749 -0.4319 -0.2161
  119SOPE   H8X12621   5.866   6.376   5.064  4.3767 -2.2682  0.5622
  119SOPE   H8Y12622   5.955   6.428   5.203 -0.6871 -0.3175 -0.0634
  119SOPE   C3912623   5.943   6.580   5.039 -0.5848  0.6264  0.1299
  119SOPE   H9X12624   6.044   6.544   5.010 -0.7232 -1.7969  2.5386
  119SOPE   H9Y12625   5.933   6.672   5.101  0.0002  0.0651  1.0586
  119SOPE  C31012626   5.867   6.595   4.907 -0.2299 -0.4493  0.5521
  119SOPE  H10X12627   5.764   6.630   4.929 -0.6743 -2.2419  1.3765
  119SOPE  H10Y12628   5.855   6.499   4.852  0.0435 -0.7258  0.9715
  119SOPE  C31112629   5.940   6.684   4.807  0.1937  0.6611 -0.4688
  119SOPE  H11X12630   6.030   6.635   4.763 -0.1039 -0.2447 -0.0871
  119SOPE  H11Y12631   5.991   6.765   4.863 -2.7381  2.6650 -0.5654
  119SOPE  C31212632   5.848   6.725   4.696  0.1766 -0.0913 -1.8013
  119SOPE  H12X12633   5.781   6.808   4.725 -0.5446 -1.6341  1.1651
  119SOPE  H12Y12634   5.785   6.638   4.668 -0.3192 -0.9471  1.7763
  119SOPE  C31312635   5.925   6.756   4.569  1.6088 -0.0266 -0.2635
  119SOPE  H13X12636   6.007   6.823   4.600  0.6300  0.4536  1.3575
  119SOPE  H13Y12637   5.859   6.820   4.506 -0.8246 -2.1399  0.0389
  119SOPE  C31412638   5.976   6.636   4.484 -0.3071 -0.0876 -0.3772
  119SOPE  H14X12639   5.893   6.567   4.456 -0.2188  0.7910 -2.8541
  119SOPE  H14Y12640   6.058   6.588   4.542 -1.1437 -4.1592 -2.3806
  119SOPE  C31512641   6.022   6.694   4.349 -0.1857  0.2284  0.2847
  119SOPE  H15X12642   6.120   6.743   4.369 -1.7635  3.8008 -0.3967
  119SOPE  H15Y12643   5.959   6.772   4.302  0.8932  1.5329  0.9627
  119SOPE  C31612644   6.044   6.589   4.238  0.5001 -1.0686 -0.3703
  119SOPE  H16X12645   6.078   6.649   4.151 -0.8315  0.9035  0.4132
  119SOPE  H16Y12646   5.943   6.545   4.220  0.7367 -2.1403  0.8854
  119SOPE  C31712647   6.131   6.473   4.286  0.3917 -0.0707 -0.4034
  119SOPE  H17X12648   6.053   6.422   4.347  0.9580 -0.5437 -0.0704
  119SOPE  H17Y12649   6.219   6.501   4.347  1.0687 -3.6685  0.4334
  119SOPE  C31812650   6.168   6.384   4.167  0.8824  0.0408 -0.2491
  119SOPE  H18X12651   6.084   6.327   4.121  2.5598  1.5334 -5.4514
  119SOPE  H18Y12652   6.243   6.310   4.202  0.9514 -0.8066 -2.1211
  119SOPE  H18Z12653   6.209   6.453   4.090 -1.8927  1.1132 -0.8185
  120SOPE     N12654   5.489   0.379   6.282 -0.0534  0.2116  0.3338
  120SOPE   HN112655   5.512   0.481   6.285  1.1919 -0.0483  0.0362
  120SOPE   HN212656   5.479   0.342   6.185  1.7468 -2.6407  1.2017
  120SOPE   HN312657   5.397   0.381   6.331  0.2103  2.0585  0.7776
  120SOPE   C1212658   5.597   0.304   6.344 -0.7423  0.2300 -0.4507
  120SOPE  H12A12659   5.624   0.229   6.266 -0.1228  1.4285 -1.4109
  120SOPE  H12B12660   5.558   0.239   6.425 -0.5086  0.1599 -0.3938
  120SOPE   C1112661   5.714   0.383   6.396 -0.0588  0.0807 -0.4488
  120SOPE  H11A12662   5.775   0.429   6.315 -0.7535 -2.7700 -2.6439
  120SOPE  H11B12663   5.775   0.308   6.449 -0.3833  0.0915 -0.0585
  120SOPE     P12664   5.741   0.608   6.544  0.2628 -0.4417 -0.4877
  120SOPE   O1312665   5.811   0.568   6.670 -0.1165  0.0501  0.8223
  120SOPE   O1412666   5.635   0.713   6.561 -0.3550 -0.2020  0.5004
  120SOPE   O1212667   5.659   0.480   6.491 -0.1299  0.1881 -0.2338
  120SOPE   O1112668   5.838   0.642   6.419  0.2482  0.1194  0.1011
  120SOPE    C112669   5.776   0.716   6.309  0.3745  0.9415  0.1542
  120SOPE    HA12670   5.772   0.820   6.348  0.2432  0.8638  0.3483
  120SOPE    HB12671   5.673   0.683   6.287  0.4510 -0.2899  1.5393
  120SOPE    C212672   5.846   0.706   6.168 -0.7248 -0.8291  0.4352
  120SOPE    HS12673   5.810   0.608   6.129 -0.8356 -1.4167  1.9699
  120SOPE   O2112674   5.990   0.716   6.188  0.1426 -0.0634 -0.5177
  120SOPE   C2112675   6.059   0.600   6.173 -0.4315  0.2582 -0.1545
  120SOPE   O2212676   6.012   0.489   6.158  0.6020  0.2381 -0.1393
  120SOPE   C2212677   6.213   0.622   6.199 -0.2740  0.0484  0.3472
  120SOPE   H2R12678   6.234   0.603   6.306  0.5316  2.1576  0.5877
  120SOPE   H2S12679   6.238   0.730   6.195  1.1902 -0.2313  1.5503
  120SOPE    C312680   5.805   0.814   6.058 -0.0392 -0.3715  0.3772
  120SOPE    HX12681   5.838   0.914   6.092 -0.0423 -0.6938  1.3324
  120SOPE    HY12682   5.694   0.809   6.046 -0.4058  0.8073  2.9665
  120SOPE   O3112683   5.848   0.779   5.923 -0.1326  0.2381 -0.4292
  120SOPE   C3112684   5.911   0.873   5.851  0.7723  0.8920 -0.1565
  120SOPE   O3212685   5.940   0.986   5.884 -0.0292 -0.4088  0.0248
  120SOPE   C3212686   5.933   0.824   5.702  0.0722 -0.1240  0.4378
  120SOPE   H2X12687   5.841   0.832   5.641  1.1543 -2.8329 -1.6269
  120SOPE   H2Y12688   5.958   0.716   5.711 -0.4149 -0.1140  2.0815
  120SOPE   C2312689   6.293   0.550   6.094  0.0003 -0.0410 -0.0220
  120SOPE   H3R12690   6.273   0.441   6.091 -0.9960  0.1404 -0.1475
  120SOPE   H3S12691   6.400   0.571   6.115  0.5086 -1.6754 -0.8978
  120SOPE   C2412692   6.250   0.604   5.955  0.3671 -0.2589  0.2512
  120SOPE   H4R12693   6.147   0.576   5.926 -0.4559  1.8563  1.0553
  120SOPE   H4S12694   6.251   0.715   5.955  0.4337 -0.2468 -1.3778
  120SOPE   C2512695   6.346   0.548   5.852  0.2090 -0.0120  0.1663
  120SOPE   H5R12696   6.443   0.597   5.872  0.9295 -1.6609  0.8291
  120SOPE   H5S12697   6.359   0.439   5.871  0.9338 -0.1151 -0.9299
  120SOPE   C2612698   6.293   0.573   5.701 -0.6196  0.5563 -0.4823
  120SOPE   H6R12699   6.200   0.516   5.681 -0.3963 -0.3699  1.0013
  120SOPE   H6S12700   6.279   0.681   5.680  1.1793  1.0637  0.7658
  120SOPE   C2712701   6.391   0.527   5.597  0.1294  0.4418  0.2485
  120SOPE   H7R12702   6.483   0.590   5.602  0.4821 -0.1577  1.5948
  120SOPE   H7S12703   6.409   0.419   5.615 -0.6971  0.1904 -0.3713
  120SOPE   C2812704   6.327   0.543   5.453  0.2820  0.0845 -0.3314
  120SOPE   H8R12705   6.252   0.462   5.440  3.0107 -2.5011 -0.4617
  120SOPE   H8S12706   6.270   0.637   5.438  0.7447  0.0786 -2.1971
  120SOPE   C2912707   6.435   0.537   5.350  0.3429  0.0670  0.1920
  120SOPE   H9112708   6.519   0.600   5.382 -1.1642  2.6949 -0.8817
  120SOPE  C21012709   6.443   0.461   5.241 -0.9641  0.4012  0.5546
  120SOPE  H10112710   6.533   0.474   5.180 -1.2169 -0.4214  0.0000
  120SOPE  C21112711   6.337   0.362   5.199  0.9139 -0.0077  0.1364
  120SOPE  H11R12712   6.252   0.336   5.265  0.5324  1.8337  0.3810
  120SOPE  H11S12713   6.385   0.265   5.173  1.0088  0.6822 -2.4461
  120SOPE  C21212714   6.267   0.413   5.063 -0.2739 -0.5098 -0.7453
  120SOPE  H12R12715   6.191   0.336   5.035 -1.2393 -0.4423  1.5923
  120SOPE  H12S12716   6.339   0.422   4.978 -0.5127  0.7403 -0.8096
  120SOPE  C21312717   6.197   0.550   5.079  0.1173 -0.2345 -0.4137
  120SOPE  H13R12718   6.267   0.625   5.122  0.1674 -0.4175 -0.1735
  120SOPE  H13S12719   6.107   0.541   5.144 -0.1174  2.1762 -0.3592
  120SOPE  C21412720   6.151   0.609   4.946 -0.3950  0.3568 -0.6894
  120SOPE  H14R12721   6.232   0.668   4.898 -0.5968  0.4567 -0.9085
  120SOPE  H14S12722   6.073   0.682   4.977  0.5585  1.3961 -0.6946
  120SOPE  C21512723   6.082   0.516   4.848  1.0202 -0.0710  1.0142
  120SOPE  H15R12724   6.149   0.428   4.835 -1.3933 -1.5735 -1.9959
  120SOPE  H15S12725   6.069   0.567   4.750  0.7140 -0.6974  0.7250
  120SOPE  C21612726   5.951   0.468   4.899 -0.6095 -0.3691  0.1970
  120SOPE  H16R12727   5.873   0.547   4.889  0.2308  0.4596  0.0697
  120SOPE  H16S12728   5.966   0.427   5.001 -1.5694 -0.8597  0.1506
  120SOPE  C21712729   5.907   0.345   4.815 -0.3267  0.3633 -0.4921
  120SOPE  H17R12730   5.820   0.297   4.865  0.3514  1.9188  2.3060
  120SOPE  H17S12731   5.994   0.276   4.825 -0.6777  0.0174  0.1839
  120SOPE  C21812732   5.879   0.372   4.667 -0.2521  0.2825  0.1705
  120SOPE  H18R12733   5.950   0.446   4.623 -0.8963  0.3330 -0.7946
  120SOPE  H18S12734   5.780   0.420   4.654  0.2252  2.0264  2.4685
  120SOPE  H18T12735   5.879   0.281   4.604 -0.3624 -0.0197  0.5988
  120SOPE   C3312736   6.050   0.898   5.635  0.3258 -0.1121  1.0504
  120SOPE   H3X12737   6.145   0.864   5.682  1.3557  0.4617 -0.5609
  120SOPE   H3Y12738   6.045   1.007   5.656  0.9035  0.5057 -1.7732
  120SOPE   C3412739   6.055   0.874   5.483  0.8226  0.3008 -0.0854
  120SOPE   H4X12740   5.954   0.862   5.437  0.7733 -1.2520  0.3762
  120SOPE   H4Y12741   6.108   0.776   5.480  0.5999  0.2159 -1.9560
  120SOPE   C3512742   6.144   0.975   5.410 -0.6269  0.2557 -0.2104
  120SOPE   H5X12743   6.248   0.945   5.436 -1.0635 -0.6075  0.5494
  120SOPE   H5Y12744   6.133   1.079   5.447  0.2897  0.9227 -1.7429
  120SOPE   C3612745   6.146   0.966   5.256  0.0194  0.4095  0.1025
  120SOPE   H6X12746   6.194   0.870   5.231  0.8851  0.7515  0.4545
  120SOPE   H6Y12747   6.211   1.048   5.218 -0.4226  0.6435 -0.1549
  120SOPE   C3712748   6.013   0.974   5.178 -0.7050  0.1746 -0.1760
  120SOPE   H7X12749   5.946   1.055   5.214  1.2524  1.2578  1.1576
  120SOPE   H7Y12750   5.950   0.888   5.205  0.7932 -0.9774 -0.2721
  120SOPE   C3812751   6.034   0.982   5.022  0.8192  0.4369 -0.0867
  120SOPE   H8X12752   6.087   0.887   5.002 -1.5711 -1.4680  2.3243
  120SOPE   H8Y12753   6.110   1.061   4.999  0.7037  1.1248  1.7724
  120SOPE   C3912754   5.909   1.000   4.932  0.3163  0.0474  0.1716
  120SOPE   H9X12755   5.849   1.090   4.957 -0.8101 -0.1106 -1.8731
  120SOPE   H9Y12756   5.848   0.911   4.954 -0.1803  0.5172  0.7173
  120SOPE  C31012757   5.956   0.994   4.787 -0.2024  0.3728  0.0664
  120SOPE  H10X12758   6.049   0.934   4.781  0.3218  1.2273 -0.3858
  120SOPE  H10Y12759   5.983   1.090   4.738  0.6812 -1.1410 -2.4578
  120SOPE  C31112760   5.847   0.931   4.705  1.2709  0.6870 -0.0933
  120SOPE  H11X12761   5.753   0.989   4.704 -1.3036 -3.2555  1.9322
  120SOPE  H11Y12762   5.829   0.826   4.739 -1.6607  0.4968 -2.0656
  120SOPE  C31212763   5.897   0.911   4.562 -0.0099 -0.2374 -0.0833
  120SOPE  H12X12764   5.824   0.852   4.502 -1.1109 -1.4585  2.3717
  120SOPE  H12Y12765   5.987   0.846   4.562 -0.4286 -0.8288 -0.6742
  120SOPE  C31312766   5.921   1.043   4.484 -0.1540 -0.1635  0.3251
  120SOPE  H13X12767   5.999   1.099   4.541 -0.0228 -0.0459  0.0280
  120SOPE  H13Y12768   5.830   1.105   4.494  0.8418  1.1863  1.3275
  120SOPE  C31412769   5.956   1.024   4.336  0.3711  0.2774  0.1014
  120SOPE  H14X12770   5.873   0.974   4.282 -1.1581 -1.0308  3.5263
  120SOPE  H14Y12771   6.030   0.941   4.331 -0.3367 -0.2591 -1.9609
  120SOPE  C31512772   6.008   1.149   4.263 -0.7081 -0.4280  0.1161
  120SOPE  H15X12773   5.944   1.229   4.306 -0.3114 -2.3281  4.5657
  120SOPE  H15Y12774   5.988   1.135   4.155  0.6082 -1.4957 -0.0072
  120SOPE  C31612775   6.160   1.176   4.295  0.1330 -0.5140 -0.1833
  120SOPE  H16X12776   6.218   1.081   4.299  0.3327 -0.3661  0.4564
  120SOPE  H16Y12777   6.178   1.224   4.393  3.0542 -3.1758  0.6759
  120SOPE  C31712778   6.223   1.263   4.196 -0.1815 -0.0738 -0.1757
  120SOPE  H17X12779   6.154   1.349   4.184 -1.4460 -1.2970 -1.9895
  120SOPE  H17Y12780   6.225   1.216   4.095 -0.4011 -0.9230  0.2150
  120SOPE  C31812781   6.361   1.315   4.237 -0.9941 -0.1946 -0.4190
  120SOPE  H18X12782   6.438   1.238   4.218 -1.6742 -1.4697  1.8077
  120SOPE  H18Y12783   6.358   1.333   4.347 -0.4288 -0.6076 -0.3394
  120SOPE  H18Z12784   6.382   1.414   4.191  0.1315  0.7976  2.1371
  121SOPE     N12785   6.373   6.746   6.309 -0.1878 -0.8351 -0.5416
  121SOPE   HN112786   6.450   6.694   6.355  2.2950  0.8793 -2.6222
  121SOPE   HN212787   6.387   6.778   6.211  0.0947  1.7952  0.3091
  121SOPE   HN312788   6.356   6.832   6.366  0.2803 -1.2521  0.2317
  121SOPE   C1212789   6.250   6.661   6.324 -0.1089 -0.3140 -0.1928
  121SOPE  H12A12790   6.239   6.618   6.426  0.1958 -2.9439 -1.2324
  121SOPE  H12B12791   6.264   6.579   6.251  1.1253 -0.1612 -0.1388
  121SOPE   C1112792   6.121   6.747   6.297 -0.1320 -0.0565 -0.1716
  121SOPE  H11A12793   6.110   6.763   6.188 -0.0815  0.9999 -0.0301
  121SOPE  H11B12794   6.131   6.851   6.336  0.2807  0.7936 -2.4690
  121SOPE     P12795   5.864   6.759   6.321 -0.0150 -0.2614 -0.2563
  121SOPE   O1312796   5.888   6.906   6.311 -0.3333 -0.1427 -0.6446
  121SOPE   O1412797   5.771   6.699   6.419 -0.2240  0.0323  0.7217
  121SOPE   O1212798   6.002   6.682   6.341  0.0689 -0.1407 -0.1835
  121SOPE   O1112799   5.820   6.710   6.181 -0.3595  0.1000  0.0134
  121SOPE    C112800   5.844   6.583   6.137 -0.0523  0.3333 -0.3774
  121SOPE    HA12801   5.796   6.519   6.214  2.1071 -0.2155  0.5298
  121SOPE    HB12802   5.953   6.566   6.133  0.4108  2.6433  1.7030
  121SOPE    C212803   5.773   6.536   6.001  0.2348 -0.0498 -1.0905
  121SOPE    HS12804   5.759   6.426   6.010  0.5506  0.0455  0.7403
  121SOPE   O2112805   5.857   6.570   5.878  0.7344 -0.0887  0.2752
  121SOPE   C2112806   5.969   6.493   5.866 -0.3290 -0.0052 -0.4537
  121SOPE   O2212807   6.004   6.413   5.953 -0.3178 -0.0293  0.1098
  121SOPE   C2212808   6.026   6.498   5.727 -0.3129  0.1187  0.1502
  121SOPE   H2R12809   5.989   6.410   5.669 -1.7416  1.3994 -0.9107
  121SOPE   H2S12810   6.136   6.492   5.740 -0.4626 -0.1220  1.4653
  121SOPE    C312811   5.633   6.596   6.000  0.3028 -0.1214  0.2177
  121SOPE    HX12812   5.639   6.701   6.035 -0.5697  0.3808 -1.0617
  121SOPE    HY12813   5.577   6.550   6.084 -0.0666  0.5893  0.3631
  121SOPE   O3112814   5.576   6.578   5.864 -0.0768 -0.4556  0.5872
  121SOPE   C3112815   5.604   6.682   5.781 -0.1940  0.6715  0.8574
  121SOPE   O3212816   5.667   6.782   5.815 -0.9456  0.8702 -0.5950
  121SOPE   C3212817   5.542   6.661   5.643 -0.3100  0.3480 -0.8464
  121SOPE   H2X12818   5.440   6.705   5.641 -1.2055 -1.7463 -1.5721
  121SOPE   H2Y12819   5.538   6.550   5.643  1.2495  0.2594  0.7393
  121SOPE   C2312820   6.002   6.622   5.638  0.0488  0.0695  0.0928
  121SOPE   H3R12821   6.039   6.713   5.690 -1.0365 -0.1212  1.2187
  121SOPE   H3S12822   5.893   6.639   5.628  0.0847  0.5663  0.5127
  121SOPE   C2412823   6.069   6.595   5.501 -0.0599  0.5487  0.6596
  121SOPE   H4R12824   6.173   6.557   5.505  0.1748  0.8446 -1.6859
  121SOPE   H4S12825   6.020   6.513   5.445  0.9906  1.2759 -1.3816
  121SOPE   C2512826   6.061   6.713   5.405 -0.1200 -0.0617 -0.0787
  121SOPE   H5R12827   6.082   6.670   5.304 -1.3352  0.0953 -0.4088
  121SOPE   H5S12828   5.964   6.766   5.419 -1.0151 -1.3735 -1.2034
  121SOPE   C2612829   6.174   6.816   5.420  0.3622 -0.1411  1.2135
  121SOPE   H6R12830   6.181   6.853   5.525 -0.6522  0.9189  0.9127
  121SOPE   H6S12831   6.273   6.774   5.390 -0.3275 -0.2359 -1.0132
  121SOPE   C2712832   6.147   6.941   5.327 -0.3455  0.0145  0.0012
  121SOPE   H7R12833   6.146   6.914   5.220  1.7345  3.1856 -0.8751
  121SOPE   H7S12834   6.049   6.984   5.357 -0.2368  0.8457 -0.8597
  121SOPE   C2812835   6.260   7.039   5.341 -0.0226 -0.5575  0.1813
  121SOPE   H8R12836   6.266   7.087   5.441  0.1702  0.5110 -0.3343
  121SOPE   H8S12837   6.359   6.989   5.337 -1.1432 -2.7198 -0.9299
  121SOPE   C2912838   6.247   7.152   5.243 -0.1017  0.3238 -0.0580
  121SOPE   H9112839   6.148   7.193   5.222 -0.5278 -0.7880 -0.2679
  121SOPE  C21012840   6.350   7.200   5.164 -0.2516  0.3045  0.5115
  121SOPE  H10112841   6.332   7.277   5.087 -0.6179 -0.4191 -0.1403
  121SOPE  C21112842   6.496   7.160   5.177  0.7685 -0.1631 -0.1097
  121SOPE  H11R12843   6.520   7.052   5.190  1.3207  0.0711  0.9061
  121SOPE  H11S12844   6.528   7.201   5.275 -0.4182 -1.1848  0.7190
  121SOPE  C21212845   6.583   7.216   5.054  0.2152 -0.2339 -0.6384
  121SOPE  H12R12846   6.544   7.169   4.961 -0.0439  0.3758 -0.8368
  121SOPE  H12S12847   6.682   7.168   5.073  1.1645  2.2819  1.0863
  121SOPE  C21312848   6.590   7.364   5.030 -0.3864 -0.8142  0.5753
  121SOPE  H13R12849   6.581   7.415   5.128  0.4454  2.0673 -0.8105
  121SOPE  H13S12850   6.505   7.396   4.965  1.1170  0.0921 -0.9641
  121SOPE  C21412851   6.724   7.422   4.984  0.2540 -0.2752  0.1349
  121SOPE  H14R12852   6.754   7.361   4.896  1.6516  0.4431  0.1019
  121SOPE  H14S12853   6.797   7.403   5.066 -1.3005  0.4058  1.7158
  121SOPE  C21512854   6.729   7.573   4.951 -0.2321  0.7032 -0.4720
  121SOPE  H15R12855   6.837   7.587   4.931 -0.0134 -0.9800 -0.5031
  121SOPE  H15S12856   6.705   7.629   5.044 -2.2658 -0.4718 -0.2528
  121SOPE  C21612857   6.645   7.613   4.833  0.0977  0.4224  0.7079
  121SOPE  H16R12858   6.543   7.576   4.856  0.5389 -1.2398  0.0167
  121SOPE  H16S12859   6.684   7.553   4.748  1.0417 -0.8994  2.0496
  121SOPE  C21712860   6.651   7.764   4.814  0.6324 -0.1591  0.2542
  121SOPE  H17R12861   6.743   7.790   4.758  0.9421  0.7761  1.1640
  121SOPE  H17S12862   6.645   7.820   4.910 -0.4520  1.7221 -0.8814
  121SOPE  C21812863   6.531   7.820   4.740 -0.1853  0.0249  0.2028
  121SOPE  H18R12864   6.515   7.776   4.640 -0.3597 -1.0231  0.6912
  121SOPE  H18S12865   6.540   7.930   4.726  0.6270 -0.0895 -0.1856
  121SOPE  H18T12866   6.439   7.803   4.801 -0.9678 -2.5967 -1.6515
  121SOPE   C3312867   5.625   6.710   5.522  0.1242  0.3023  0.0049
  121SOPE   H3X12868   5.615   6.629   5.447 -0.6627 -1.5317  2.0431
  121SOPE   H3Y12869   5.731   6.730   5.548 -0.1062  2.8548 -0.8912
  121SOPE   C3412870   5.567   6.828   5.448 -0.2337  0.0998  0.2188
  121SOPE   H4X12871   5.460   6.800   5.434  0.2199  0.0752 -3.7456
  121SOPE   H4Y12872   5.618   6.833   5.349  1.5993 -4.6139  0.7968
  121SOPE   C3512873   5.560   6.958   5.530  0.0105 -0.3024  0.0189
  121SOPE   H5X12874   5.536   6.941   5.637 -0.5044  1.8117  0.2618
  121SOPE   H5Y12875   5.480   7.018   5.481  0.0060  0.2705  0.7177
  121SOPE   C3612876   5.697   7.034   5.531 -0.7195  0.1644  0.0242
  121SOPE   H6X12877   5.758   6.990   5.612  0.6764 -1.1757 -1.7031
  121SOPE   H6Y12878   5.681   7.143   5.550  1.3091  0.0788  2.3623
  121SOPE   C3712879   5.775   7.035   5.402 -0.1848 -0.0781  0.6082
  121SOPE   H7X12880   5.811   6.934   5.372  2.0257  0.9039 -0.2045
  121SOPE   H7Y12881   5.864   7.095   5.433  0.1841 -0.6070  0.5885
  121SOPE   C3812882   5.701   7.093   5.277 -0.3004  0.2228  0.0045
  121SOPE   H8X12883   5.709   7.204   5.283  2.1717  0.2189 -1.9237
  121SOPE   H8Y12884   5.595   7.062   5.282 -0.9261  2.2986 -0.0123
  121SOPE   C3912885   5.757   7.042   5.142 -0.3354  0.2155  0.3857
  121SOPE   H9X12886   5.679   7.040   5.063 -1.6109  2.5561  1.5589
  121SOPE   H9Y12887   5.771   6.932   5.149  1.0977  0.4037  0.6407
  121SOPE  C31012888   5.886   7.105   5.091  0.1013 -0.0419  1.0069
  121SOPE  H10X12889   5.954   7.093   5.179  3.1065 -2.0199 -1.4863
  121SOPE  H10Y12890   5.868   7.211   5.064 -1.6534 -0.2999  1.0934
  121SOPE  C31112891   5.951   7.027   4.977  0.3504 -1.0615 -0.4602
  121SOPE  H11X12892   5.893   7.031   4.882  2.0812 -0.8363 -1.5207
  121SOPE  H11Y12893   5.965   6.923   5.013  1.5078 -1.3017 -1.5984
  121SOPE  C31212894   6.080   7.100   4.923  0.7071 -0.5001  0.9764
  121SOPE  H12X12895   6.128   7.165   5.000  1.9155 -0.0706 -0.1204
  121SOPE  H12Y12896   6.052   7.182   4.853  1.3798 -0.9499  0.1804
  121SOPE  C31312897   6.186   7.009   4.851  0.1310 -0.1747 -0.2784
  121SOPE  H13X12898   6.271   7.062   4.803 -0.9024  1.4684 -0.3591
  121SOPE  H13Y12899   6.110   6.977   4.778 -0.2296 -0.0516  0.0388
  121SOPE  C31412900   6.245   6.907   4.946  0.1826  0.0304 -0.5972
  121SOPE  H14X12901   6.163   6.836   4.971  0.9324  0.0567  2.1351
  121SOPE  H14Y12902   6.276   6.953   5.042  1.0133  0.7351 -1.1940
  121SOPE  C31512903   6.350   6.816   4.876 -0.5742 -0.0606  0.3935
  121SOPE  H15X12904   6.453   6.855   4.893 -0.1164 -0.8963 -0.3809
  121SOPE  H15Y12905   6.337   6.836   4.767  0.3894  1.2883  0.5166
  121SOPE  C31612906   6.344   6.670   4.919  0.5142 -1.2331 -0.4204
  121SOPE  H16X12907   6.235   6.649   4.914  0.8266 -2.9587 -0.5479
  121SOPE  H16Y12908   6.378   6.646   5.022  3.0320  0.5497 -0.8008
  121SOPE  C31712909   6.400   6.562   4.824 -0.4761 -0.8649  0.1393
  121SOPE  H17X12910   6.417   6.472   4.887  0.6851  0.8454  2.3085
  121SOPE  H17Y12911   6.503   6.597   4.803 -0.4105  0.0600  1.9650
  121SOPE  C31812912   6.304   6.529   4.709  0.3549 -0.5135 -0.2346
  121SOPE  H18X12913   6.270   6.607   4.637  3.1801  1.9768  1.0220
  121SOPE  H18Y12914   6.212   6.498   4.763  0.7717  1.6500  1.8200
  121SOPE  H18Z12915   6.346   6.449   4.645 -1.6322 -0.6815 -1.3910
  122SOPE     N12916   6.877   7.293   6.094 -0.5498  0.1628 -0.1522
  122SOPE   HN112917   6.956   7.297   6.026 -1.1054  2.0417 -0.7156
  122SOPE   HN212918   6.903   7.355   6.173 -0.6705  0.6467 -0.4911
  122SOPE   HN312919   6.875   7.191   6.114 -2.4416 -0.0630 -1.3304
  122SOPE   C1212920   6.753   7.327   6.033  0.0728 -0.1257 -0.2901
  122SOPE  H12A12921   6.727   7.247   5.960  0.3633  0.1397 -0.6882
  122SOPE  H12B12922   6.762   7.428   5.987 -1.1311  0.7904  1.4245
  122SOPE   C1112923   6.650   7.343   6.141 -0.0503 -0.1379  0.5409
  122SOPE  H11A12924   6.618   7.242   6.174 -0.1066 -1.0774 -2.2175
  122SOPE  H11B12925   6.554   7.395   6.119 -0.3222 -0.5678  0.7028
  122SOPE     P12926   6.621   7.392   6.390  0.2746 -0.3441 -0.0044
  122SOPE   O1312927   6.535   7.511   6.397 -0.1437  0.1721 -0.6550
  122SOPE   O1412928   6.712   7.368   6.505 -0.1477 -0.1711  0.2498
  122SOPE   O1212929   6.707   7.408   6.257  0.0742  0.1213  0.2224
  122SOPE   O1112930   6.533   7.265   6.369  0.8444 -0.5239  0.0486
  122SOPE    C112931   6.395   7.241   6.388 -0.1013  0.2962 -0.1309
  122SOPE    HA12932   6.361   7.296   6.478 -1.7484 -0.3167 -0.3621
  122SOPE    HB12933   6.381   7.134   6.414  0.7707  0.5233  1.2876
  122SOPE    C212934   6.310   7.277   6.267 -0.3022 -0.4938 -0.5888
  122SOPE    HS12935   6.210   7.229   6.275 -0.5828 -0.1036 -1.6183
  122SOPE   O2112936   6.375   7.222   6.148 -0.3677 -0.0872  0.7571
  122SOPE   C2112937   6.339   7.102   6.101  1.2323 -0.2264  0.2558
  122SOPE   O2212938   6.251   7.030   6.148  0.0603 -0.1490  0.5177
  122SOPE   C2212939   6.428   7.067   5.985 -0.0924 -0.1098  0.0204
  122SOPE   H2R12940   6.382   6.976   5.941 -0.0918 -0.2205  0.2477
  122SOPE   H2S12941   6.533   7.045   6.011 -0.1586  0.6239  0.9473
  122SOPE    C312942   6.279   7.425   6.239  0.4971  0.8611  0.1360
  122SOPE    HX12943   6.373   7.484   6.235 -0.1743  1.9185 -0.1179
  122SOPE    HY12944   6.231   7.463   6.332  0.2071  0.7840  0.0195
  122SOPE   O3112945   6.198   7.449   6.123  0.3278  0.6823 -0.3536
  122SOPE   C3112946   6.255   7.518   6.026 -0.2227 -0.7661  0.1425
  122SOPE   O3212947   6.372   7.556   6.010  0.2305 -0.2047 -0.4657
  122SOPE   C3212948   6.147   7.539   5.923  0.2667  0.7049  0.4080
  122SOPE   H2X12949   6.110   7.642   5.938 -0.4390  0.3880  0.8719
  122SOPE   H2Y12950   6.066   7.463   5.930  1.2434 -0.8997 -3.8329
  122SOPE   C2312951   6.424   7.177   5.871 -0.1842 -0.0518  0.0323
  122SOPE   H3R12952   6.487   7.262   5.904  1.5477 -2.2524  2.6384
  122SOPE   H3S12953   6.322   7.217   5.853 -0.1614  0.5607  1.2026
  122SOPE   C2412954   6.470   7.133   5.728  0.6440 -0.4704 -0.4858
  122SOPE   H4R12955   6.579   7.116   5.717  0.2596 -2.2613 -1.7392
  122SOPE   H4S12956   6.427   7.035   5.697 -0.8788  0.1016 -0.2284
  122SOPE   C2512957   6.428   7.233   5.613  0.4028  0.6695 -0.4175
  122SOPE   H5R12958   6.436   7.176   5.517  1.3888 -0.0360  0.0781
  122SOPE   H5S12959   6.320   7.247   5.638  0.2970  0.0071 -0.4837
  122SOPE   C2612960   6.501   7.367   5.613 -0.0431 -0.1511 -0.1420
  122SOPE   H6R12961   6.445   7.441   5.552  0.6331  0.8310  0.4174
  122SOPE   H6S12962   6.491   7.406   5.716 -0.1746  0.2012 -0.2889
  122SOPE   C2712963   6.659   7.365   5.580  0.9750  0.5707 -0.1719
  122SOPE   H7R12964   6.708   7.286   5.641  1.1175  0.8695  0.1020
  122SOPE   H7S12965   6.653   7.326   5.476  0.0323  1.0823 -0.3175
  122SOPE   C2812966   6.744   7.492   5.594  0.2169 -0.2977  0.7631
  122SOPE   H8R12967   6.848   7.462   5.623  0.8005  0.2765 -0.6971
  122SOPE   H8S12968   6.757   7.540   5.495 -0.4795  0.2053  0.9143
  122SOPE   C2912969   6.690   7.593   5.692  0.7614  0.0008  0.1414
  122SOPE   H9112970   6.582   7.610   5.687  0.6835 -0.1546  1.2190
  122SOPE  C21012971   6.755   7.663   5.788  0.4098  0.0899 -0.0135
  122SOPE  H10112972   6.696   7.729   5.854 -0.2062 -0.9353  0.4713
  122SOPE  C21112973   6.897   7.656   5.828 -0.3283  0.2679  0.2291
  122SOPE  H11R12974   6.932   7.552   5.813  1.7551  0.9675  0.1115
  122SOPE  H11S12975   6.900   7.684   5.936  0.3712  2.6297 -0.3897
  122SOPE  C21212976   6.987   7.746   5.753 -0.4984 -0.8511 -0.2351
  122SOPE  H12R12977   6.955   7.851   5.772  2.9970  0.2564  0.0146
  122SOPE  H12S12978   6.994   7.715   5.647 -2.8634  0.6509 -0.8723
  122SOPE  C21312979   7.140   7.736   5.787 -0.4658 -0.2484  0.2202
  122SOPE  H13R12980   7.185   7.820   5.729 -1.4330 -0.4322 -0.8235
  122SOPE  H13S12981   7.183   7.639   5.755 -0.3299 -0.0628 -0.1684
  122SOPE  C21412982   7.171   7.747   5.938  0.5617 -0.3140  0.8129
  122SOPE  H14R12983   7.281   7.738   5.954  0.7488  0.3169 -0.0523
  122SOPE  H14S12984   7.114   7.672   5.997 -1.0277  0.6824  0.5728
  122SOPE  C21512985   7.133   7.877   5.999  0.3994 -0.1229  0.8854
  122SOPE  H15R12986   7.024   7.899   5.994  0.9851  2.4227 -2.3324
  122SOPE  H15S12987   7.188   7.952   5.939  0.4981  0.8778  2.2218
  122SOPE  C21612988   7.182   7.884   6.143  0.2405 -0.1484 -0.4063
  122SOPE  H16R12989   7.288   7.860   6.163  0.0948 -0.8874 -0.5092
  122SOPE  H16S12990   7.125   7.817   6.211 -0.6996  0.6370 -0.4048
  122SOPE  C21712991   7.174   8.029   6.196  0.4551 -0.3333  0.2689
  122SOPE  H17R12992   7.069   8.062   6.210 -0.3756 -3.4742  1.9833
  122SOPE  H17S12993   7.225   8.095   6.123 -1.2342  0.6443 -0.0735
  122SOPE  C21812994   7.247   8.051   6.326 -0.2989  0.5611 -0.2694
  122SOPE  H18R12995   7.273   8.157   6.346  0.3864  0.0738  1.5494
  122SOPE  H18S12996   7.346   8.002   6.311 -0.0132  1.0990 -0.1686
  122SOPE  H18T12997   7.197   7.999   6.410  0.0762  0.5857 -0.0277
  122SOPE   C3312998   6.187   7.529   5.773  0.4442 -0.0727 -0.1322
  122SOPE   H3X12999   6.246   7.436   5.767 -0.3829 -0.4784 -2.3430
  122SOPE   H3Y13000   6.250   7.620   5.757  1.8007 -1.1004 -0.7277
  122SOPE   C3413001   6.066   7.514   5.676 -0.0536  0.1671 -0.3872
  122SOPE   H4X13002   5.984   7.584   5.701  0.9968  0.2973  2.8537
  122SOPE   H4Y13003   6.028   7.410   5.687 -1.2428  0.6852  0.4510
  122SOPE   C3513004   6.111   7.530   5.536  0.1036  0.5749  0.0080
  122SOPE   H5X13005   6.203   7.468   5.524  0.8770  1.7499 -0.2470
  122SOPE   H5Y13006   6.138   7.637   5.521 -0.1730  0.3411 -2.3315
  122SOPE   C3613007   6.012   7.491   5.426  0.3905 -1.0539  0.2495
  122SOPE   H6X13008   5.965   7.393   5.445  0.4255 -0.8406  1.4941
  122SOPE   H6Y13009   6.063   7.481   5.328  2.0316  1.0727  0.8279
  122SOPE   C3713010   5.899   7.596   5.423 -0.2976 -0.3372 -0.7926
  122SOPE   H7X13011   5.933   7.702   5.426  0.7162 -0.5902 -2.4202
  122SOPE   H7Y13012   5.833   7.574   5.509  1.3028 -0.2763  0.4601
  122SOPE   C3813013   5.823   7.592   5.285 -0.2452  0.0733 -0.5303
  122SOPE   H8X13014   5.837   7.490   5.242  1.2965  1.3676 -3.2682
  122SOPE   H8Y13015   5.866   7.666   5.214 -0.6748 -0.1032 -0.9807
  122SOPE   C3913016   5.670   7.619   5.304 -0.6638  0.3768 -0.1882
  122SOPE   H9X13017   5.653   7.716   5.356 -1.1132 -0.9190  2.1535
  122SOPE   H9Y13018   5.627   7.549   5.379 -0.0859 -0.1612 -0.3547
  122SOPE  C31013019   5.604   7.615   5.171 -0.4351  0.8569  0.3288
  122SOPE  H10X13020   5.668   7.663   5.093  1.0745 -0.5121  0.7100
  122SOPE  H10Y13021   5.510   7.673   5.175 -0.8513  0.1630  0.5128
  122SOPE  C31113022   5.564   7.466   5.122  0.1500 -1.3735  0.1001
  122SOPE  H11X13023   5.479   7.439   5.187  0.5263 -1.5255  0.5330
  122SOPE  H11Y13024   5.649   7.395   5.135  3.4271  2.0227 -1.7320
  122SOPE  C31213025   5.513   7.460   4.974 -0.1683 -0.8289 -1.0622
  122SOPE  H12X13026   5.599   7.504   4.919 -1.0220  2.3178 -0.0023
  122SOPE  H12Y13027   5.426   7.526   4.953 -1.4413 -2.3805 -0.7216
  122SOPE  C31313028   5.477   7.317   4.925 -0.5675  0.7562 -0.0516
  122SOPE  H13X13029   5.407   7.325   4.839  2.3695  0.1034 -2.5930
  122SOPE  H13Y13030   5.444   7.260   5.014  0.5369  1.2740  0.7064
  122SOPE  C31413031   5.590   7.232   4.852  0.0782  0.5823  0.6761
  122SOPE  H14X13032   5.565   7.126   4.829  1.8849  0.4703 -0.8708
  122SOPE  H14Y13033   5.682   7.227   4.914  0.1359 -1.2673  0.4615
  122SOPE  C31513034   5.626   7.304   4.726 -0.5116 -0.3794  0.3146
  122SOPE  H15X13035   5.666   7.404   4.754  1.2507 -1.2834  1.1656
  122SOPE  H15Y13036   5.548   7.320   4.649  1.4621 -0.8784 -1.8477
  122SOPE  C31613037   5.747   7.237   4.661 -0.2658  0.6404 -0.0896
  122SOPE  H16X13038   5.729   7.132   4.629  0.2199 -0.4204  2.8919
  122SOPE  H16Y13039   5.834   7.233   4.731  1.0770  1.6478 -1.6605
  122SOPE  C31713040   5.794   7.319   4.541  0.0487  0.1928 -0.7512
  122SOPE  H17X13041   5.791   7.426   4.568 -1.1757 -0.4789  1.9106
  122SOPE  H17Y13042   5.721   7.310   4.458 -1.0547  0.5772  0.1660
  122SOPE  C31813043   5.935   7.290   4.495 -0.1724  0.4037  0.0091
  122SOPE  H18X13044   5.959   7.359   4.412 -0.6681  0.1493 -0.3521
  122SOPE  H18Y13045   5.946   7.181   4.473 -0.3531  0.2809  0.5007
  122SOPE  H18Z13046   6.007   7.322   4.573  0.2184  1.4348 -0.7736
  123SOPE     N13047   3.717   1.866   1.753 -0.1383  0.1038 -0.3581
  123SOPE   HN113048   3.771   1.930   1.691 -1.0335  0.4421 -0.8107
  123SOPE   HN213049   3.708   1.775   1.704  2.2832 -0.2313 -0.2423
  123SOPE   HN313050   3.621   1.907   1.760  0.7122  1.9357  1.2348
  123SOPE   C1213051   3.777   1.852   1.886  0.2333 -0.0676  0.0626
  123SOPE  H12A13052   3.686   1.840   1.949  0.7541 -0.1893  0.8031
  123SOPE  H12B13053   3.840   1.939   1.914  1.7070 -0.3817 -2.1220
  123SOPE   C1113054   3.862   1.725   1.904 -0.2470 -0.1924  0.5123
  123SOPE  H11A13055   3.917   1.723   2.000  1.7259 -2.3516 -0.6043
  123SOPE  H11B13056   3.937   1.724   1.822 -2.7966  1.8445 -1.9618
  123SOPE     P13057   3.702   1.553   2.018  0.6099  0.2205 -0.0948
  123SOPE   O1313058   3.729   1.410   2.033 -0.9161 -0.0808  0.2797
  123SOPE   O1413059   3.561   1.590   1.999 -0.0672 -0.4287  0.5193
  123SOPE   O1213060   3.778   1.614   1.895 -0.0188 -0.5001  0.0033
  123SOPE   O1113061   3.757   1.637   2.151 -0.9231 -0.5847 -0.5186
  123SOPE    C113062   3.762   1.561   2.275 -0.0019  0.2480  0.3613
  123SOPE    HA13063   3.820   1.468   2.259 -0.1318 -0.2058  2.3820
  123SOPE    HB13064   3.662   1.525   2.307  0.7065  0.6870  3.1560
  123SOPE    C213065   3.819   1.632   2.399  0.1915  0.5346  0.0064
  123SOPE    HS13066   3.828   1.554   2.478 -0.2697 -0.9558 -1.3753
  123SOPE   O2113067   3.750   1.754   2.433  0.2811 -0.2742  1.0942
  123SOPE   C2113068   3.743   1.777   2.563  0.0657  0.4658 -0.4279
  123SOPE   O2213069   3.798   1.716   2.652  0.3944  0.2004 -0.7791
  123SOPE   C2213070   3.648   1.900   2.578  0.3877 -1.1137 -0.1298
  123SOPE   H2R13071   3.671   1.959   2.487 -2.2290 -1.5044 -1.0826
  123SOPE   H2S13072   3.673   1.960   2.668 -1.9712 -2.0895  1.2308
  123SOPE    C313073   3.967   1.666   2.361  0.2920 -0.1680  0.4470
  123SOPE    HX13074   3.960   1.756   2.296  1.0518  0.4279  1.1749
  123SOPE    HY13075   4.020   1.582   2.311 -1.7303 -2.3225  1.8198
  123SOPE   O3113076   4.038   1.714   2.473 -0.1980  0.0129 -0.3467
  123SOPE   C3113077   4.100   1.619   2.540  0.3157 -0.5308  0.3869
  123SOPE   O3213078   4.109   1.502   2.519  0.1341 -0.6247 -0.3748
  123SOPE   C3213079   4.176   1.691   2.654 -0.0854 -0.5698  0.1609
  123SOPE   H2X13080   4.100   1.745   2.713  0.7054  0.6695  0.0603
  123SOPE   H2Y13081   4.247   1.764   2.610 -0.0169  0.0255  1.2535
  123SOPE   C2313082   3.498   1.849   2.563  0.5685 -0.1202  0.4293
  123SOPE   H3R13083   3.496   1.777   2.479  0.1645 -0.6359  0.8748
  123SOPE   H3S13084   3.427   1.932   2.541 -0.5064 -1.1978 -0.2167
  123SOPE   C2413085   3.438   1.778   2.685  0.0390  0.3422  1.1465
  123SOPE   H4R13086   3.507   1.700   2.725 -2.1534 -0.8442  2.7326
  123SOPE   H4S13087   3.421   1.840   2.776  2.1972  1.3037  0.9211
  123SOPE   C2513088   3.305   1.711   2.661  0.8715 -0.4304  0.0955
  123SOPE   H5R13089   3.259   1.680   2.757  2.7571  0.6216  1.3859
  123SOPE   H5S13090   3.234   1.782   2.614  2.2199  1.3151  0.6292
  123SOPE   C2613091   3.308   1.581   2.578  0.4407 -0.8443  0.8734
  123SOPE   H6R13092   3.210   1.528   2.581  0.8103 -1.5337  0.7860
  123SOPE   H6S13093   3.323   1.605   2.470 -0.6090  0.0390  0.9134
  123SOPE   C2713094   3.412   1.479   2.627  0.8034 -0.0880  0.3142
  123SOPE   H7R13095   3.512   1.525   2.614  0.6665  0.4771  1.2281
  123SOPE   H7S13096   3.402   1.455   2.735 -2.2173 -0.9164 -0.0985
  123SOPE   C2813097   3.417   1.348   2.554  0.6443  0.0692 -0.7677
  123SOPE   H8R13098   3.449   1.377   2.451 -0.6789  0.9439 -0.9527
  123SOPE   H8S13099   3.495   1.281   2.595 -0.9214 -1.2857  0.0715
  123SOPE   C2913100   3.280   1.286   2.533 -0.4509 -0.5972  0.3779
  123SOPE   H9113101   3.222   1.315   2.444  1.7566  0.6165 -0.7029
  123SOPE  C21013102   3.234   1.185   2.611  0.1344 -0.3672 -0.2019
  123SOPE  H10113103   3.135   1.142   2.590 -1.3100  1.9679  1.5442
  123SOPE  C21113104   3.308   1.112   2.720  0.7777 -0.4025 -0.1076
  123SOPE  H11R13105   3.238   1.091   2.803 -1.4657 -0.9955 -2.0743
  123SOPE  H11S13106   3.383   1.183   2.759  1.1832 -1.1567  0.5081
  123SOPE  C21213107   3.368   0.985   2.679  0.2827 -0.2994 -0.1675
  123SOPE  H12R13108   3.432   0.988   2.589  0.0442 -0.8135 -0.3569
  123SOPE  H12S13109   3.295   0.903   2.662 -1.2720  0.6316  1.8117
  123SOPE  C21313110   3.457   0.929   2.800  0.0150  0.3956 -0.2310
  123SOPE  H13R13111   3.506   1.010   2.859  0.2430  0.0666  0.0308
  123SOPE  H13S13112   3.531   0.859   2.756 -1.6344 -0.0701 -2.3103
  123SOPE  C21413113   3.379   0.844   2.902 -0.3906 -0.1413  0.1416
  123SOPE  H14R13114   3.297   0.912   2.934  1.2394  1.5438  0.7640
  123SOPE  H14S13115   3.445   0.815   2.986 -1.5304 -0.5289  0.9219
  123SOPE  C21513116   3.326   0.718   2.840 -0.0583  0.0294  0.4825
  123SOPE  H15R13117   3.404   0.691   2.765  2.3081  4.0194  1.3200
  123SOPE  H15S13118   3.235   0.744   2.781  0.2510  1.0869  0.4519
  123SOPE  C21613119   3.288   0.608   2.942 -0.0986  0.0603  0.4364
  123SOPE  H16R13120   3.374   0.594   3.011 -0.8435  2.0250  1.8128
  123SOPE  H16S13121   3.278   0.521   2.874  2.0226 -1.3349  1.8619
  123SOPE  C21713122   3.170   0.663   3.029  0.1967  0.1898 -0.4768
  123SOPE  H17R13123   3.107   0.716   2.954 -1.1485 -2.3400 -1.1924
  123SOPE  H17S13124   3.199   0.744   3.099 -3.6916  1.3225 -0.0611
  123SOPE  C21813125   3.091   0.563   3.101 -0.3437 -0.1645  0.3995
  123SOPE  H18R13126   3.017   0.603   3.175 -0.5615 -0.7882  0.5263
  123SOPE  H18S13127   3.160   0.506   3.168  0.4709 -0.7362 -0.9113
  123SOPE  H18T13128   3.046   0.496   3.025 -0.7257  1.2662 -0.6366
  123SOPE   C3313129   4.256   1.592   2.738  0.1456 -0.5227  0.7297
  123SOPE   H3X13130   4.344   1.571   2.673 -0.1751  1.2687 -0.3240
  123SOPE   H3Y13131   4.191   1.509   2.774 -2.1293  2.1388  3.0070
  123SOPE   C3413132   4.325   1.668   2.867  0.4573 -0.4432  0.3124
  123SOPE   H4X13133   4.379   1.760   2.836  0.6040 -0.8271 -0.5974
  123SOPE   H4Y13134   4.403   1.596   2.899  1.3937  0.6475  0.5215
  123SOPE   C3513135   4.235   1.692   2.986  0.1398 -0.4374 -0.3415
  123SOPE   H5X13136   4.198   1.592   3.018 -4.1219  0.6517 -1.6557
  123SOPE   H5Y13137   4.157   1.764   2.955  0.3517 -2.1099 -5.2240
  123SOPE   C3613138   4.306   1.765   3.100 -0.8436 -0.1036  0.2597
  123SOPE   H6X13139   4.354   1.858   3.064 -1.1093 -1.0247 -2.6059
  123SOPE   H6Y13140   4.384   1.690   3.126 -1.7196 -0.7660  1.0121
  123SOPE   C3713141   4.211   1.789   3.219 -0.4042  0.0053  0.3195
  123SOPE   H7X13142   4.280   1.819   3.301  0.8581 -1.7345 -0.0731
  123SOPE   H7Y13143   4.162   1.696   3.254 -0.4969  0.2508  0.8441
  123SOPE   C3813144   4.109   1.897   3.197  0.2932  0.6761 -0.9131
  123SOPE   H8X13145   4.030   1.896   3.275  1.7501 -0.0294  0.5908
  123SOPE   H8Y13146   4.056   1.885   3.100  1.3695  1.2115 -1.5762
  123SOPE   C3913147   4.181   2.025   3.168 -0.2385  0.1592  0.4255
  123SOPE   H9X13148   4.225   2.014   3.066 -1.2825 -0.1197  0.0004
  123SOPE   H9Y13149   4.273   2.032   3.229  0.8547 -2.0780 -0.9136
  123SOPE  C31013150   4.086   2.143   3.184 -0.2153 -0.1354  0.4854
  123SOPE  H10X13151   4.049   2.137   3.289  0.6740 -0.0942  0.8035
  123SOPE  H10Y13152   4.006   2.120   3.109  0.0155 -1.0856  0.5249
  123SOPE  C31113153   4.137   2.286   3.162  0.1120  0.7042 -0.4577
  123SOPE  H11X13154   4.182   2.284   3.061 -0.4323  0.4521 -0.6934
  123SOPE  H11Y13155   4.222   2.299   3.233 -0.9301  0.4822  0.8489
  123SOPE  C31213156   4.028   2.392   3.168  0.2008 -0.7014  0.7274
  123SOPE  H12X13157   3.951   2.366   3.092 -0.6959  0.9123  1.0531
  123SOPE  H12Y13158   4.085   2.484   3.142 -2.4309  0.5840 -0.7212
  123SOPE  C31313159   3.950   2.404   3.302  0.1626 -0.1693  0.3683
  123SOPE  H13X13160   4.025   2.445   3.374  1.1924  2.2767 -2.0016
  123SOPE  H13Y13161   3.927   2.302   3.339  3.0406 -0.2985  1.9346
  123SOPE  C31413162   3.833   2.501   3.286  0.2860  0.2075  0.2861
  123SOPE  H14X13163   3.787   2.476   3.188 -1.0341  1.4123  0.5988
  123SOPE  H14Y13164   3.890   2.596   3.283 -1.7104  1.4049 -0.2795
  123SOPE  C31513165   3.733   2.506   3.397  0.1788  0.2707 -0.2350
  123SOPE  H15X13166   3.664   2.591   3.378 -0.5782  0.1795  1.9741
  123SOPE  H15Y13167   3.776   2.518   3.499  0.6630  0.3254 -0.4447
  123SOPE  C31613168   3.645   2.379   3.412  0.4541  0.2881  0.4651
  123SOPE  H16X13169   3.711   2.290   3.422 -0.3969 -0.3367  0.5425
  123SOPE  H16Y13170   3.586   2.369   3.318  1.0374  0.1940  0.1049
  123SOPE  C31713171   3.550   2.394   3.533 -0.3647  0.1256 -0.8377
  123SOPE  H17X13172   3.463   2.331   3.505  0.9075 -3.1309  2.2355
  123SOPE  H17Y13173   3.513   2.498   3.546  0.4080  0.1231  1.6468
  123SOPE  C31813174   3.611   2.351   3.669  0.6582 -0.1228  0.9996
  123SOPE  H18X13175   3.687   2.427   3.695  0.8802  0.7217 -1.9445
  123SOPE  H18Y13176   3.659   2.252   3.655  3.3311  1.1121  1.0997
  123SOPE  H18Z13177   3.532   2.352   3.748 -0.2907  1.2586  0.0480
  124SOPE     N13178   5.587   5.100   1.821  0.1801 -0.3176  0.0233
  124SOPE   HN113179   5.615   5.029   1.751  0.4610 -0.1305 -0.0573
  124SOPE   HN213180   5.616   5.195   1.789  0.0605 -0.0482  0.6948
  124SOPE   HN313181   5.623   5.073   1.915  0.2807  2.3086  0.8028
  124SOPE   C1213182   5.438   5.101   1.822  1.0832 -0.1200  0.1462
  124SOPE  H12A13183   5.402   5.126   1.720 -0.2951  2.4411  1.2105
  124SOPE  H12B13184   5.404   5.175   1.897 -0.1035  1.0751 -1.5248
  124SOPE   C1113185   5.387   4.965   1.866 -0.4073 -0.2923 -0.0645
  124SOPE  H11A13186   5.416   4.900   1.780 -1.8785  0.1471 -0.9048
  124SOPE  H11B13187   5.277   4.972   1.854 -0.2562  2.5529 -0.0477
  124SOPE     P13188   5.367   4.847   2.096  0.4573  0.4883  0.0103
  124SOPE   O1313189   5.461   4.800   2.202  0.3528 -0.1424 -0.6918
  124SOPE   O1413190   5.279   4.743   2.032  0.3874  0.2595 -0.2949
  124SOPE   O1213191   5.438   4.924   1.989  0.3048  0.0900  0.3065
  124SOPE   O1113192   5.275   4.950   2.169 -0.8041 -0.0486  0.0418
  124SOPE    C113193   5.327   5.077   2.191  0.0595  0.5402 -0.3587
  124SOPE    HA13194   5.256   5.150   2.147 -2.9552 -2.0689 -0.0422
  124SOPE    HB13195   5.417   5.104   2.132  0.5335 -0.3386 -0.0508
  124SOPE    C213196   5.351   5.108   2.341  0.6468 -0.4702 -0.4045
  124SOPE    HS13197   5.371   5.217   2.344  1.5505 -0.6584  0.3106
  124SOPE   O2113198   5.464   5.035   2.390 -0.3670  0.0577  0.0542
  124SOPE   C2113199   5.574   5.104   2.402 -0.6163  0.0535  0.1753
  124SOPE   O2213200   5.594   5.225   2.391 -0.0037 -0.2982 -0.5166
  124SOPE   C2213201   5.685   5.016   2.433 -0.1388 -0.2826 -0.1821
  124SOPE   H2R13202   5.745   5.020   2.339  1.6136  2.1379  1.0086
  124SOPE   H2S13203   5.666   4.907   2.446  3.2320 -0.9493 -0.3751
  124SOPE    C313204   5.227   5.074   2.421  0.0393  0.1630 -0.0234
  124SOPE    HX13205   5.201   4.966   2.415 -2.5070  0.7874 -0.6046
  124SOPE    HY13206   5.144   5.137   2.383 -0.5473 -1.1674 -0.9760
  124SOPE   O3113207   5.260   5.101   2.562  0.3827 -0.3757  0.5690
  124SOPE   C3113208   5.236   5.222   2.608  0.6509  0.0506 -0.1753
  124SOPE   O3213209   5.197   5.322   2.542 -0.2467 -0.4974  0.3346
  124SOPE   C3213210   5.269   5.209   2.755 -0.0890 -0.2541  0.6164
  124SOPE   H2X13211   5.333   5.121   2.778 -0.2873 -0.9426 -1.3649
  124SOPE   H2Y13212   5.165   5.188   2.788 -0.4129 -0.8483 -0.7477
  124SOPE   C2313213   5.766   5.064   2.559  0.1944  0.4992  0.0154
  124SOPE   H3R13214   5.798   5.163   2.521 -0.6334  0.1823 -1.5511
  124SOPE   H3S13215   5.865   5.014   2.558 -0.6210 -1.1361 -1.4665
  124SOPE   C2413216   5.691   5.060   2.692  0.5538  0.1914 -0.0253
  124SOPE   H4R13217   5.604   5.129   2.699  0.4170  0.0961 -0.7015
  124SOPE   H4S13218   5.650   4.960   2.716  0.1401  0.4152  0.2108
  124SOPE   C2513219   5.785   5.105   2.803  0.0702 -0.3232  0.2824
  124SOPE   H5R13220   5.868   5.032   2.803  0.3536 -0.0015  0.6127
  124SOPE   H5S13221   5.825   5.206   2.781  0.3911 -0.2206  1.3524
  124SOPE   C2613222   5.713   5.095   2.944 -0.9033 -0.0018  0.4834
  124SOPE   H6R13223   5.771   5.164   3.009  1.3879 -0.9862 -0.4710
  124SOPE   H6S13224   5.617   5.150   2.957 -0.1273  1.1530  1.4542
  124SOPE   C2713225   5.718   4.953   2.996  0.2420  0.3762 -0.6893
  124SOPE   H7R13226   5.627   4.900   2.962 -2.0394  2.6379  1.6682
  124SOPE   H7S13227   5.807   4.906   2.951  1.4654  0.0124  1.9809
  124SOPE   C2813228   5.717   4.942   3.151 -0.5175  0.6344 -0.0735
  124SOPE   H8R13229   5.723   4.840   3.194 -0.2011  1.4736  1.9340
  124SOPE   H8S13230   5.805   5.002   3.181 -1.2024  2.3819 -1.4207
  124SOPE   C2913231   5.600   5.014   3.203 -0.0037 -1.0338 -0.0165
  124SOPE   H9113232   5.515   5.017   3.132 -0.0209 -0.5994  0.0148
  124SOPE  C21013233   5.584   5.062   3.330 -0.4649  0.9123  0.0382
  124SOPE  H10113234   5.496   5.127   3.345 -2.0199 -1.2839  0.6598
  124SOPE  C21113235   5.675   5.057   3.451  0.3444  0.1678 -0.3463
  124SOPE  H11R13236   5.719   5.159   3.459  0.4758  0.1296 -0.5577
  124SOPE  H11S13237   5.758   4.986   3.431 -1.3975 -2.7172  2.3272
  124SOPE  C21213238   5.606   5.012   3.581 -0.2398 -0.2171  0.6365
  124SOPE  H12R13239   5.691   5.005   3.653 -0.3762 -0.8201  0.7334
  124SOPE  H12S13240   5.553   4.915   3.572  2.7253 -1.8169 -0.3133
  124SOPE  C21313241   5.507   5.119   3.636  0.0369  0.2216 -0.9028
  124SOPE  H13R13242   5.427   5.140   3.562 -0.4692 -1.7780 -0.9641
  124SOPE  H13S13243   5.564   5.213   3.651  0.4151  0.0659 -1.3689
  124SOPE  C21413244   5.452   5.077   3.779 -0.1670  0.5640  0.4340
  124SOPE  H14R13245   5.539   5.079   3.849  0.7007 -1.0921 -0.5686
  124SOPE  H14S13246   5.414   4.973   3.772  2.4105 -0.2776 -1.4476
  124SOPE  C21513247   5.352   5.171   3.824  0.3926 -0.2334  0.1565
  124SOPE  H15R13248   5.294   5.129   3.909 -0.5600  0.2082 -0.2637
  124SOPE  H15S13249   5.284   5.196   3.740  2.4859  0.7782 -1.2940
  124SOPE  C21613250   5.412   5.307   3.871 -0.5496 -0.1714  0.1966
  124SOPE  H16R13251   5.447   5.374   3.789 -0.6180  1.1625  1.2359
  124SOPE  H16S13252   5.499   5.278   3.934 -1.2992 -0.9056  0.8864
  124SOPE  C21713253   5.318   5.385   3.967  0.2341  0.6275  0.2333
  124SOPE  H17R13254   5.253   5.321   4.030 -0.4465  1.3337  0.2481
  124SOPE  H17S13255   5.243   5.443   3.909 -2.2631  2.2401  4.8828
  124SOPE  C21813256   5.396   5.469   4.066  0.1042 -0.2830 -0.1359
  124SOPE  H18R13257   5.324   5.535   4.119  1.0926  1.0100 -0.3908
  124SOPE  H18S13258   5.465   5.543   4.021  0.2919  0.0795  0.7514
  124SOPE  H18T13259   5.454   5.404   4.135 -0.3627 -1.2119 -0.6057
  124SOPE   C3313260   5.333   5.325   2.831  0.5992  0.0063  0.5439
  124SOPE   H3X13261   5.317   5.418   2.773  0.4365 -0.6844 -0.5230
  124SOPE   H3Y13262   5.443   5.309   2.826  0.4918 -0.6094  0.0002
  124SOPE   C3413263   5.289   5.347   2.973  0.2818  0.3137  0.2607
  124SOPE   H4X13264   5.222   5.264   3.002  0.7535 -1.2585 -2.9405
  124SOPE   H4Y13265   5.237   5.446   2.970  0.9679  0.6575 -0.4330
  124SOPE   C3513266   5.392   5.362   3.086  0.3932  0.0915 -0.5350
  124SOPE   H5X13267   5.451   5.454   3.065  0.6421 -0.3803 -1.9854
  124SOPE   H5Y13268   5.458   5.275   3.106 -1.5433 -1.0551  1.0192
  124SOPE   C3613269   5.331   5.393   3.225  0.3736 -0.3160 -1.0187
  124SOPE   H6X13270   5.285   5.298   3.258  0.8263 -0.5171 -0.9522
  124SOPE   H6Y13271   5.251   5.470   3.222 -0.2785 -1.0233 -1.9246
  124SOPE   C3713272   5.443   5.423   3.325 -0.2837  0.2365 -0.9494
  124SOPE   H7X13273   5.482   5.524   3.299 -0.9948  1.0413  1.0271
  124SOPE   H7Y13274   5.526   5.349   3.323 -0.9028 -0.4622 -0.7972
  124SOPE   C3813275   5.390   5.437   3.467 -0.1466  0.4323 -0.4374
  124SOPE   H8X13276   5.486   5.439   3.524  1.6358 -1.4737 -3.2026
  124SOPE   H8Y13277   5.333   5.347   3.497 -1.9111  2.1065  1.3359
  124SOPE   C3913278   5.311   5.567   3.486  0.2296  0.0457  0.4792
  124SOPE   H9X13279   5.216   5.549   3.429  0.7759  0.0844 -0.4624
  124SOPE   H9Y13280   5.369   5.645   3.432 -0.6251 -0.9195 -1.9127
  124SOPE  C31013281   5.303   5.609   3.626  0.0891 -0.9643 -0.3229
  124SOPE  H10X13282   5.403   5.625   3.671 -0.3214 -1.7839  0.9214
  124SOPE  H10Y13283   5.255   5.524   3.679 -2.2836  0.9652  0.7579
  124SOPE  C31113284   5.211   5.727   3.651 -0.0609  0.0458 -0.0233
  124SOPE  H11X13285   5.119   5.723   3.588 -0.2139  0.9936  0.1346
  124SOPE  H11Y13286   5.269   5.814   3.613 -0.2282  0.0042 -0.3815
  124SOPE  C31213287   5.169   5.747   3.796  0.6987  0.2206 -0.7804
  124SOPE  H12X13288   5.110   5.658   3.826 -0.2060  1.0851  0.0421
  124SOPE  H12Y13289   5.092   5.825   3.817 -1.4002 -1.7975 -0.8664
  124SOPE  C31313290   5.287   5.759   3.891 -0.8513 -0.0722  0.7002
  124SOPE  H13X13291   5.378   5.794   3.837 -0.8379 -0.2128  0.6314
  124SOPE  H13Y13292   5.316   5.660   3.932 -0.5755 -0.4673 -0.4344
  124SOPE  C31413293   5.267   5.858   4.000 -0.2581 -0.3305 -0.2140
  124SOPE  H14X13294   5.169   5.851   4.052  0.3300  2.2562  1.3845
  124SOPE  H14Y13295   5.267   5.965   3.969  0.2736 -0.4462 -0.6212
  124SOPE  C31513296   5.375   5.841   4.111 -0.3681  0.9600  0.0309
  124SOPE  H15X13297   5.473   5.886   4.084 -0.2914  0.4005 -0.6532
  124SOPE  H15Y13298   5.406   5.734   4.110 -1.7411  0.5510 -0.1775
  124SOPE  C31613299   5.334   5.888   4.247 -0.0802  0.4315 -0.2004
  124SOPE  H16X13300   5.236   5.836   4.262  0.4490 -0.2283  0.9929
  124SOPE  H16Y13301   5.307   5.996   4.244 -0.3103  0.3805  0.0053
  124SOPE  C31713302   5.428   5.860   4.369  0.0234 -0.2325  0.3108
  124SOPE  H17X13303   5.524   5.907   4.340 -1.1346  0.7147 -2.0913
  124SOPE  H17Y13304   5.447   5.750   4.371  1.2421 -0.0409 -0.4147
  124SOPE  C31813305   5.380   5.915   4.503 -0.3982 -0.7843 -0.1057
  124SOPE  H18X13306   5.378   6.026   4.492 -0.4120 -0.6175  1.4280
  124SOPE  H18Y13307   5.450   5.899   4.589 -0.2616  1.9730  0.3430
  124SOPE  H18Z13308   5.277   5.883   4.530 -0.5545 -0.3124 -0.1410
  125SOPE     N13309   1.852   4.866   1.939 -0.3731  0.2862 -0.3782
  125SOPE   HN113310   1.950   4.843   1.964  0.0738 -1.7798 -3.8082
  125SOPE   HN213311   1.842   4.836   1.840  0.0381  1.9042 -0.9189
  125SOPE   HN313312   1.834   4.969   1.946 -1.8296  0.0167 -0.0012
  125SOPE   C1213313   1.747   4.787   2.018 -0.2088 -0.0629  0.2478
  125SOPE  H12A13314   1.783   4.683   2.032 -0.4844 -0.5362 -2.3589
  125SOPE  H12B13315   1.649   4.781   1.965 -2.7127 -0.8340  4.6864
  125SOPE   C1113316   1.722   4.856   2.154 -0.2444 -0.2324 -0.5558
  125SOPE  H11A13317   1.819   4.870   2.207 -2.6425  0.9465  3.6950
  125SOPE  H11B13318   1.667   4.781   2.215 -1.3983  1.2025  0.1775
  125SOPE     P13319   1.686   5.114   2.146  0.4668 -0.1548 -0.0203
  125SOPE   O1313320   1.572   5.210   2.111 -0.7963 -0.3526  0.2438
  125SOPE   O1413321   1.814   5.122   2.070 -0.0062  0.0868  0.0683
  125SOPE   O1213322   1.638   4.973   2.134 -0.1366  0.8142  0.3429
  125SOPE   O1113323   1.721   5.120   2.294  0.2717 -0.3855 -0.2363
  125SOPE    C113324   1.784   5.245   2.332 -0.1970  0.0914  0.7145
  125SOPE    HA13325   1.717   5.334   2.321  2.2281  1.8239 -0.5108
  125SOPE    HB13326   1.877   5.262   2.274 -1.1129 -0.5295 -0.9733
  125SOPE    C213327   1.804   5.239   2.486 -0.3986  0.0419 -0.4966
  125SOPE    HS13328   1.858   5.332   2.514 -0.6855  0.1503 -0.3013
  125SOPE   O2113329   1.873   5.113   2.513  0.3333  0.2293  0.2238
  125SOPE   C2113330   1.995   5.100   2.477  1.0274 -0.1313 -0.5342
  125SOPE   O2213331   2.064   5.182   2.418  0.1139  0.4735  0.1569
  125SOPE   C2213332   2.055   4.976   2.532  0.1033 -0.1706 -0.2464
  125SOPE   H2R13333   2.165   4.987   2.524  0.3117 -0.5627  1.9756
  125SOPE   H2S13334   2.025   4.899   2.457  0.7141 -2.0230  1.3720
  125SOPE    C313335   1.668   5.235   2.562  0.4701  0.3400  0.3299
  125SOPE    HX13336   1.617   5.143   2.526 -0.2693  1.0614 -0.5003
  125SOPE    HY13337   1.607   5.321   2.529  0.3530 -0.4233 -1.5412
  125SOPE   O3113338   1.677   5.235   2.703 -0.5026  0.1526 -0.7751
  125SOPE   C3113339   1.705   5.346   2.765  0.1423  0.3523  0.3471
  125SOPE   O3213340   1.722   5.454   2.714 -0.0797  0.8309 -1.2456
  125SOPE   C3213341   1.705   5.316   2.917  0.4222 -0.1069  0.1149
  125SOPE   H2X13342   1.789   5.246   2.937 -1.5591 -1.8829  2.4432
  125SOPE   H2Y13343   1.610   5.271   2.950 -0.4104  0.6222 -1.2508
  125SOPE   C2313344   2.008   4.933   2.672  0.1211  0.1143  0.3752
  125SOPE   H3R13345   2.054   4.838   2.704  0.2088  1.3289  4.1299
  125SOPE   H3S13346   1.898   4.922   2.681 -0.3011  2.5860 -1.2220
  125SOPE   C2413347   2.063   5.020   2.786 -0.3764 -0.2501 -0.4550
  125SOPE   H4R13348   2.173   5.024   2.776 -0.4974 -0.9290 -2.2600
  125SOPE   H4S13349   2.022   5.122   2.767 -0.3308 -0.3114 -0.8978
  125SOPE   C2513350   2.016   4.979   2.926 -0.0870  0.6057 -0.8098
  125SOPE   H5R13351   1.905   4.989   2.919 -0.1131  1.3460  0.5028
  125SOPE   H5S13352   2.032   4.872   2.949  0.1338  0.0331 -3.4998
  125SOPE   C2613353   2.059   5.062   3.047  0.0406  0.1246  0.2945
  125SOPE   H6R13354   2.170   5.054   3.042  0.1756  2.6291 -2.3531
  125SOPE   H6S13355   2.026   5.166   3.029 -0.6834 -0.5343 -2.4528
  125SOPE   C2713356   2.000   5.019   3.180 -0.4332  0.3363  0.1976
  125SOPE   H7R13357   1.892   5.042   3.190 -0.7673 -1.1494  0.0165
  125SOPE   H7S13358   2.001   4.909   3.190  1.3156  0.4385  1.2064
  125SOPE   C2813359   2.089   5.071   3.301  0.5505 -0.4920  0.4121
  125SOPE   H8R13360   2.039   5.023   3.387  1.6164  0.5397  1.6215
  125SOPE   H8S13361   2.195   5.038   3.297  1.3575  1.4790  3.6850
  125SOPE   C2913362   2.101   5.221   3.321  0.1472 -0.3279 -0.0415
  125SOPE   H9113363   2.102   5.278   3.227 -2.7429 -1.0632 -0.5483
  125SOPE  C21013364   2.123   5.291   3.439 -0.9697  0.8673 -1.0975
  125SOPE  H10113365   2.119   5.399   3.418  1.3053  1.1889 -0.0148
  125SOPE  C21113366   2.136   5.240   3.586 -0.3766 -0.1356 -0.1472
  125SOPE  H11R13367   2.237   5.270   3.623  0.7004 -0.5188 -2.6083
  125SOPE  H11S13368   2.144   5.130   3.593 -1.3747 -0.2284 -0.4936
  125SOPE  C21213369   2.024   5.311   3.674  0.3086 -0.3045  0.1866
  125SOPE  H12R13370   1.918   5.286   3.650  0.1774  1.2076 -0.8966
  125SOPE  H12S13371   2.024   5.417   3.642  2.1776 -0.9090 -1.9830
  125SOPE  C21313372   2.043   5.296   3.823  0.1965  0.2199  0.1350
  125SOPE  H13R13373   2.135   5.355   3.844  0.1338  0.2692  0.2775
  125SOPE  H13S13374   2.059   5.191   3.855  2.1327  0.8660  1.3358
  125SOPE  C21413375   1.921   5.352   3.908 -0.4335  0.6274  0.4613
  125SOPE  H14R13376   1.843   5.273   3.899  0.2095  0.0529 -0.0995
  125SOPE  H14S13377   1.875   5.442   3.863 -2.6595 -0.1602  1.0625
  125SOPE  C21513378   1.959   5.376   4.056  0.6263  0.2702 -0.4486
  125SOPE  H15R13379   2.044   5.447   4.066  0.5160  0.1635  1.4112
  125SOPE  H15S13380   1.994   5.284   4.107  1.6470  0.7193 -0.3327
  125SOPE  C21613381   1.861   5.436   4.155  0.6440 -1.0404 -0.0879
  125SOPE  H16R13382   1.914   5.449   4.252  4.5841 -1.1151 -2.1063
  125SOPE  H16S13383   1.778   5.363   4.164  0.1837 -0.4256  0.7437
  125SOPE  C21713384   1.799   5.566   4.109  0.2683 -0.2210 -0.1188
  125SOPE  H17R13385   1.718   5.605   4.175  1.6705  0.5991  1.1276
  125SOPE  H17S13386   1.746   5.540   4.015  0.8283  0.7251 -0.7007
  125SOPE  C21813387   1.894   5.681   4.083 -0.3941  0.0319  0.4541
  125SOPE  H18R13388   1.989   5.643   4.037  0.3551  0.9049  1.2595
  125SOPE  H18S13389   1.917   5.726   4.182 -1.4912  0.2929  0.5967
  125SOPE  H18T13390   1.856   5.745   4.001  1.8846 -0.2313 -0.8765
  125SOPE   C3313391   1.717   5.449   2.998 -0.7487  1.0658  0.1393
  125SOPE   H3X13392   1.655   5.538   2.975 -0.0642  1.8029  1.1413
  125SOPE   H3Y13393   1.823   5.472   2.975 -0.2300 -0.0629  1.3379
  125SOPE   C3413394   1.702   5.418   3.142  0.1811 -0.5205 -0.4134
  125SOPE   H4X13395   1.778   5.338   3.156  0.5553  0.2102  1.8965
  125SOPE   H4Y13396   1.603   5.375   3.166 -0.7490  1.0390 -1.3049
  125SOPE   C3513397   1.727   5.536   3.230  0.0685  0.1558  0.0619
  125SOPE   H5X13398   1.653   5.619   3.221  0.1098  0.6937  3.6843
  125SOPE   H5Y13399   1.819   5.581   3.188  0.3860  0.9179  1.5119
  125SOPE   C3613400   1.739   5.507   3.383 -0.0842 -0.9043 -0.4768
  125SOPE   H6X13401   1.798   5.589   3.430 -0.6272 -0.8577  0.1305
  125SOPE   H6Y13402   1.801   5.415   3.392  2.3455  0.4914 -2.1910
  125SOPE   C3713403   1.609   5.496   3.460 -0.7149  0.5866 -0.0529
  125SOPE   H7X13404   1.550   5.407   3.428  1.5665 -1.1422  0.4113
  125SOPE   H7Y13405   1.550   5.589   3.444 -0.3517  0.5616 -1.5372
  125SOPE   C3813406   1.622   5.478   3.615  0.0686 -0.6047  0.3023
  125SOPE   H8X13407   1.683   5.566   3.646  4.5230 -2.2770 -3.2078
  125SOPE   H8Y13408   1.688   5.394   3.645  1.7183  0.5665  0.0737
  125SOPE   C3913409   1.481   5.455   3.686 -0.3033 -0.1184 -0.9398
  125SOPE   H9X13410   1.430   5.554   3.682  1.2274  0.6509 -2.4883
  125SOPE   H9Y13411   1.500   5.432   3.793 -1.5119 -3.1042 -1.3146
  125SOPE  C31013412   1.401   5.344   3.623 -0.7102 -0.3315  0.1472
  125SOPE  H10X13413   1.456   5.254   3.588 -0.2232 -0.2119  0.6101
  125SOPE  H10Y13414   1.339   5.381   3.538  0.4251  0.9768 -0.1296
  125SOPE  C31113415   1.301   5.288   3.734 -0.6083  0.6408 -0.5375
  125SOPE  H11X13416   1.252   5.380   3.773 -0.6343 -0.1241  1.3039
  125SOPE  H11Y13417   1.370   5.226   3.796  1.0886  3.2203  0.2405
  125SOPE  C31213418   1.187   5.197   3.678 -0.8001 -0.2764  0.3680
  125SOPE  H12X13419   1.212   5.152   3.580  1.2421  4.4012 -1.3904
  125SOPE  H12Y13420   1.100   5.265   3.665 -1.1706 -0.8866 -0.3385
  125SOPE  C31313421   1.149   5.090   3.782  0.2498 -0.3398 -0.5490
  125SOPE  H13X13422   1.242   5.031   3.796 -0.4071 -1.4326 -0.7284
  125SOPE  H13Y13423   1.067   5.030   3.737 -0.8760 -0.0152  1.0578
  125SOPE  C31413424   1.103   5.143   3.914  0.7390 -0.8000  0.4421
  125SOPE  H14X13425   1.192   5.195   3.956 -1.5111  1.4703  2.6121
  125SOPE  H14Y13426   1.072   5.064   3.985 -2.6504 -1.4769 -1.7054
  125SOPE  C31513427   0.976   5.243   3.902 -0.0210 -0.0580 -0.2395
  125SOPE  H15X13428   1.024   5.332   3.857 -0.7201  0.2060 -0.4563
  125SOPE  H15Y13429   0.934   5.272   4.001  0.4441 -0.0935 -0.0274
  125SOPE  C31613430   0.861   5.192   3.814  0.1331 -0.2635  0.7750
  125SOPE  H16X13431   0.823   5.103   3.869  3.1027 -2.3823 -0.4772
  125SOPE  H16Y13432   0.896   5.157   3.715 -0.1583 -1.1683  0.9838
  125SOPE  C31713433   0.747   5.289   3.801 -0.5307  0.1804 -0.0804
  125SOPE  H17X13434   0.712   5.301   3.905 -1.7231 -1.0130 -0.3400
  125SOPE  H17Y13435   0.669   5.238   3.741 -2.2305  1.0818  1.3370
  125SOPE  C31813436   0.777   5.426   3.744 -0.3734  0.0254 -0.1993
  125SOPE  H18X13437   0.680   5.479   3.731 -1.1417 -1.8605 -2.5555
  125SOPE  H18Y13438   0.820   5.415   3.642  2.5847 -0.7530  1.0885
  125SOPE  H18Z13439   0.836   5.487   3.815  0.7220 -0.0551 -1.0381
  126SOPE     N13440   2.912   0.766   1.952  0.1082  0.1769 -0.8692
  126SOPE   HN113441   2.809   0.778   1.949 -0.0707 -1.3636 -1.2681
  126SOPE   HN213442   2.943   0.756   1.853 -3.6469  1.1159 -2.2500
  126SOPE   HN313443   2.934   0.684   2.011 -0.3873  0.3815 -0.3948
  126SOPE   C1213444   2.971   0.886   2.024 -0.0698 -0.0644  0.0527
  126SOPE  H12A13445   2.920   0.976   1.984 -0.2571  0.5040  1.5437
  126SOPE  H12B13446   3.080   0.898   2.005  0.0565  1.1462  1.4860
  126SOPE   C1113447   2.946   0.883   2.179 -0.0864 -0.1588  0.6606
  126SOPE  H11A13448   3.005   0.961   2.232 -0.7099  0.5348  0.3305
  126SOPE  H11B13449   2.989   0.786   2.211 -1.3755 -1.2177 -0.7628
  126SOPE     P13450   2.742   1.033   2.236 -0.6663  0.0994 -0.2175
  126SOPE   O1313451   2.606   1.007   2.281  0.0907 -0.1136 -0.0632
  126SOPE   O1413452   2.764   1.116   2.114  0.5525 -0.5366  0.1934
  126SOPE   O1213453   2.800   0.887   2.203  0.0980  0.2837  0.6032
  126SOPE   O1113454   2.832   1.088   2.354  0.0025  0.8106 -0.5866
  126SOPE    C113455   2.839   1.019   2.484  0.1814  0.1230  0.7191
  126SOPE    HA13456   2.925   1.066   2.536  0.1218  0.5706  0.4181
  126SOPE    HB13457   2.860   0.910   2.474  0.5819  0.2244  0.4151
  126SOPE    C213458   2.715   1.038   2.575  0.3880 -0.3577  0.0925
  126SOPE    HS13459   2.627   0.986   2.532 -0.6680  1.2017  0.3606
  126SOPE   O2113460   2.691   1.175   2.583  0.0160  0.3582 -0.3826
  126SOPE   C2113461   2.570   1.196   2.640 -0.4667 -0.2329  0.3898
  126SOPE   O2213462   2.477   1.118   2.639  0.0147  0.6785 -0.4267
  126SOPE   C2213463   2.565   1.347   2.672 -0.1360 -0.0348 -0.1229
  126SOPE   H2R13464   2.496   1.397   2.601  1.8215  1.0064 -1.3155
  126SOPE   H2S13465   2.664   1.397   2.662  0.9142 -1.2054  3.4329
  126SOPE    C313466   2.738   0.969   2.712 -0.0681  0.3113 -0.4720
  126SOPE    HX13467   2.779   0.868   2.692  0.8965  0.7320 -0.6882
  126SOPE    HY13468   2.639   0.959   2.761 -0.4309 -0.5851 -1.3831
  126SOPE   O3113469   2.822   1.051   2.799 -0.0716 -0.8481  0.0781
  126SOPE   C3113470   2.930   1.006   2.852 -0.0284  0.3394  0.2572
  126SOPE   O3213471   2.973   0.895   2.842 -0.1356 -0.3288 -1.1669
  126SOPE   C3213472   2.995   1.107   2.949 -0.2766  0.0614 -0.0028
  126SOPE   H2X13473   2.994   1.211   2.911  0.9092 -0.0177 -0.2758
  126SOPE   H2Y13474   3.102   1.077   2.963 -0.2293 -1.0385 -2.5356
  126SOPE   C2313475   2.492   1.374   2.811 -0.3273  0.0270 -0.3354
  126SOPE   H3R13476   2.395   1.320   2.816  0.1341 -0.5306  3.0861
  126SOPE   H3S13477   2.469   1.483   2.819 -2.8147 -0.4465 -0.5355
  126SOPE   C2413478   2.567   1.330   2.934 -0.2228 -0.0121  0.6430
  126SOPE   H4R13479   2.584   1.222   2.916 -0.7851 -0.0078  0.0757
  126SOPE   H4S13480   2.668   1.378   2.935 -0.2641  0.0923  0.0886
  126SOPE   C2513481   2.492   1.358   3.066  0.6728  0.0328 -0.3838
  126SOPE   H5R13482   2.504   1.467   3.077 -2.1192  0.2357  1.1632
  126SOPE   H5S13483   2.382   1.343   3.056  0.7532 -0.9141  0.0289
  126SOPE   C2613484   2.559   1.293   3.191  0.3132  0.4356  0.7159
  126SOPE   H6R13485   2.572   1.185   3.169  0.8732  0.6135  0.1781
  126SOPE   H6S13486   2.656   1.344   3.206  0.2659  0.2548  1.6764
  126SOPE   C2713487   2.470   1.307   3.316 -0.0454  0.2720  0.4057
  126SOPE   H7R13488   2.484   1.411   3.353  1.3627 -0.0030  0.6599
  126SOPE   H7S13489   2.363   1.297   3.290  0.7712  1.3346 -3.8702
  126SOPE   C2813490   2.516   1.214   3.427 -0.2156  0.2658  0.4035
  126SOPE   H8R13491   2.528   1.111   3.387  1.1527  1.8114 -3.3321
  126SOPE   H8S13492   2.611   1.264   3.456  0.1905  1.3552 -2.7019
  126SOPE   C2913493   2.422   1.210   3.540  0.6646 -0.7027  0.7048
  126SOPE   H9113494   2.326   1.163   3.515 -0.5361  1.5408  0.9611
  126SOPE  C21013495   2.439   1.264   3.664 -0.0514 -0.0554  1.2021
  126SOPE  H10113496   2.356   1.252   3.736 -2.4578  0.6803 -1.3609
  126SOPE  C21113497   2.560   1.336   3.725 -0.9236  0.2728  0.0526
  126SOPE  H11R13498   2.529   1.416   3.795 -2.7445  0.7344 -1.2206
  126SOPE  H11S13499   2.632   1.389   3.660 -0.1336 -0.3824  0.3840
  126SOPE  C21213500   2.658   1.231   3.796  0.0391  0.2488  0.1785
  126SOPE  H12R13501   2.617   1.202   3.895 -0.5283 -0.3464 -0.2294
  126SOPE  H12S13502   2.746   1.291   3.826 -0.1444  0.1275  0.9713
  126SOPE  C21313503   2.709   1.117   3.706 -0.5102 -0.3424 -0.0513
  126SOPE  H13R13504   2.765   1.143   3.613 -0.4812 -2.0258 -0.5100
  126SOPE  H13S13505   2.620   1.058   3.677 -0.6827 -0.3229  0.4405
  126SOPE  C21413506   2.801   1.014   3.780  0.5090  0.2133 -0.8678
  126SOPE  H14R13507   2.743   0.989   3.871  2.3456  1.7697  0.7655
  126SOPE  H14S13508   2.883   1.085   3.805  0.0278 -0.4754  2.9813
  126SOPE  C21513509   2.856   0.893   3.692 -0.7564 -0.0748 -0.0284
  126SOPE  H15R13510   2.771   0.826   3.668  1.1239 -2.1436 -1.1025
  126SOPE  H15S13511   2.930   0.835   3.751 -2.3151 -2.3552 -0.2711
  126SOPE  C21613512   2.939   0.939   3.569 -0.5675 -0.2996  0.3891
  126SOPE  H16R13513   2.998   1.030   3.595  2.2404 -2.1290  0.6635
  126SOPE  H16S13514   2.873   0.975   3.487  1.2116  1.4112 -0.3374
  126SOPE  C21713515   3.027   0.832   3.506 -0.3765  0.1859 -0.0105
  126SOPE  H17R13516   2.963   0.766   3.444  1.5820 -0.9054 -0.9084
  126SOPE  H17S13517   3.082   0.772   3.581 -1.9460  0.5042  1.4098
  126SOPE  C21813518   3.138   0.900   3.423  0.2669 -0.6953 -0.0308
  126SOPE  H18R13519   3.173   0.999   3.461 -1.8442  0.0952 -0.0974
  126SOPE  H18S13520   3.102   0.922   3.320  1.7129  0.0719 -0.3945
  126SOPE  H18T13521   3.219   0.825   3.410  1.1816 -0.1880  2.4846
  126SOPE   C3313522   2.928   1.116   3.089  0.3185 -0.2018 -0.5975
  126SOPE   H3X13523   2.937   1.022   3.147  0.6587  0.2190  0.0347
  126SOPE   H3Y13524   2.822   1.139   3.066 -0.0899  0.5086  1.8628
  126SOPE   C3413525   2.989   1.218   3.176 -0.4606 -0.2799  0.3537
  126SOPE   H4X13526   2.983   1.316   3.124 -2.0723 -1.1437 -1.0912
  126SOPE   H4Y13527   3.094   1.183   3.187 -0.2551  0.8835  2.3214
  126SOPE   C3513528   2.928   1.241   3.318 -0.4173  0.1610  0.3030
  126SOPE   H5X13529   2.990   1.181   3.388 -0.7336 -0.6027 -0.0657
  126SOPE   H5Y13530   2.827   1.199   3.333 -0.4833  0.9626  2.2892
  126SOPE   C3613531   2.939   1.387   3.363 -0.9844 -0.5960  0.1680
  126SOPE   H6X13532   2.874   1.441   3.290 -1.7349  0.4899  1.5948
  126SOPE   H6Y13533   3.044   1.421   3.351 -0.7199 -0.8561  1.6101
  126SOPE   C3713534   2.894   1.421   3.508 -0.7843  0.3321  0.1837
  126SOPE   H7X13535   2.937   1.345   3.577  0.3498  2.2989  1.7084
  126SOPE   H7Y13536   2.785   1.404   3.503 -0.6025 -0.3269 -2.8638
  126SOPE   C3813537   2.920   1.563   3.562  0.2198 -0.2416 -0.4714
  126SOPE   H8X13538   2.850   1.632   3.510  1.1805  1.1027  0.0067
  126SOPE   H8Y13539   3.023   1.599   3.544  1.0206 -1.1125  2.1546
  126SOPE   C3913540   2.890   1.570   3.718  1.0262  0.0112  0.4114
  126SOPE   H9X13541   2.792   1.528   3.749 -0.3796  2.8271 -0.0823
  126SOPE   H9Y13542   2.898   1.675   3.753 -2.4783  0.9787 -1.5313
  126SOPE  C31013543   2.991   1.493   3.804 -0.0391  0.1747  1.3002
  126SOPE  H10X13544   3.093   1.530   3.780 -0.2590  0.2228  0.4087
  126SOPE  H10Y13545   2.980   1.388   3.771  1.1957 -0.1290  1.8262
  126SOPE  C31113546   2.959   1.498   3.955  0.2810 -0.4528 -0.2090
  126SOPE  H11X13547   2.853   1.467   3.960 -0.4720  1.7731 -1.2992
  126SOPE  H11Y13548   2.964   1.601   3.998 -0.7165 -1.7434  3.1192
  126SOPE  C31213549   3.025   1.398   4.048 -0.4361  0.1067  0.3804
  126SOPE  H12X13550   3.002   1.440   4.148 -0.8454  0.6896  0.0396
  126SOPE  H12Y13551   3.134   1.390   4.025 -0.7379  0.8140 -1.3161
  126SOPE  C31313552   2.969   1.255   4.045  0.0062  0.7865  0.0416
  126SOPE  H13X13553   3.055   1.191   4.071  0.1354  0.7948 -0.3651
  126SOPE  H13Y13554   2.935   1.227   3.943  1.5004 -0.7433 -0.0469
  126SOPE  C31413555   2.850   1.225   4.132  0.4842 -0.3200  0.2985
  126SOPE  H14X13556   2.809   1.126   4.102 -1.9736  0.2262  1.7345
  126SOPE  H14Y13557   2.768   1.298   4.112  0.8357  0.4389  1.5700
  126SOPE  C31513558   2.890   1.238   4.285  0.2646 -0.7930  0.4449
  126SOPE  H15X13559   2.903   1.347   4.304 -1.2268 -0.7065  1.0229
  126SOPE  H15Y13560   2.990   1.190   4.295  1.4579  1.3878 -0.5425
  126SOPE  C31613561   2.783   1.183   4.375 -0.1586 -0.0304 -0.6092
  126SOPE  H16X13562   2.681   1.208   4.340  0.8692  1.7804 -2.4079
  126SOPE  H16Y13563   2.801   1.229   4.475  2.0291  0.4660 -1.2208
  126SOPE  C31713564   2.803   1.041   4.403 -0.9097 -0.0830  0.0587
  126SOPE  H17X13565   2.794   0.971   4.317 -1.8886 -0.4627  0.4732
  126SOPE  H17Y13566   2.722   1.017   4.475  0.5088  0.7067  1.9757
  126SOPE  C31813567   2.931   1.008   4.487 -0.4428 -0.0410 -0.4891
  126SOPE  H18X13568   2.976   0.910   4.461  0.0221  0.1725 -0.5012
  126SOPE  H18Y13569   2.913   1.019   4.596 -0.9290  3.3779 -0.8453
  126SOPE  H18Z13570   3.001   1.090   4.459  2.3058 -3.1181 -2.9985
  127SOPE     N13571   6.207   1.449   2.266  0.2826 -0.2704  0.6804
  127SOPE   HN113572   6.226   1.551   2.275  0.4954 -0.2490  0.0270
  127SOPE   HN213573   6.228   1.402   2.356 -1.9980  1.4581  2.1765
  127SOPE   HN313574   6.282   1.421   2.200  1.0873  1.6820  0.7266
  127SOPE   C1213575   6.059   1.423   2.235 -0.4402 -0.1759 -0.0230
  127SOPE  H12A13576   6.040   1.315   2.252  1.5134 -0.3488  1.2463
  127SOPE  H12B13577   6.032   1.454   2.132 -3.2189  0.0964  0.7335
  127SOPE   C1113578   5.964   1.492   2.333 -0.0567 -0.3932 -0.0237
  127SOPE  H11A13579   5.966   1.440   2.431 -0.8957 -1.4941 -0.5752
  127SOPE  H11B13580   5.862   1.483   2.289  0.1349  1.4161 -0.8612
  127SOPE     P13581   5.950   1.751   2.266  0.2063 -0.2644  0.0305
  127SOPE   O1313582   5.923   1.702   2.130 -0.1780  0.1709 -0.1715
  127SOPE   O1413583   6.064   1.845   2.268  0.0383  0.5459 -0.3723
  127SOPE   O1213584   5.996   1.632   2.355 -0.0625  0.0576 -0.2982
  127SOPE   O1113585   5.826   1.813   2.330 -0.0038  0.6090  0.3724
  127SOPE    C113586   5.776   1.744   2.445 -0.5562  0.1591 -0.5845
  127SOPE    HA13587   5.858   1.741   2.521 -0.7772  2.2695 -0.2499
  127SOPE    HB13588   5.752   1.637   2.422 -0.1480 -0.3822  1.4106
  127SOPE    C213589   5.654   1.821   2.505 -0.3374 -0.3448  0.1082
  127SOPE    HS13590   5.582   1.847   2.425 -1.4715  1.6682  1.7321
  127SOPE   O2113591   5.706   1.943   2.560  0.1464  0.5741 -0.5185
  127SOPE   C2113592   5.608   2.026   2.595  0.1831 -0.2884 -0.4439
  127SOPE   O2213593   5.491   2.017   2.572  0.7583 -0.2365  0.1751
  127SOPE   C2213594   5.669   2.135   2.671  0.8766  0.1612 -0.0917
  127SOPE   H2R13595   5.670   2.228   2.610 -0.1245 -1.3905 -2.5507
  127SOPE   H2S13596   5.775   2.118   2.699  0.5494 -1.4232  0.2429
  127SOPE    C313597   5.573   1.738   2.613  0.5657 -0.0777 -0.6791
  127SOPE    HX13598   5.564   1.634   2.576  1.2680  0.4801 -2.5021
  127SOPE    HY13599   5.473   1.786   2.618 -0.3397 -2.1243  1.4032
  127SOPE   O3113600   5.638   1.739   2.740 -0.5217  0.0653  0.0226
  127SOPE   C3113601   5.706   1.635   2.784  0.2064  0.1220 -0.4462
  127SOPE   O3213602   5.704   1.525   2.732 -0.2936  0.6192 -0.5383
  127SOPE   C3213603   5.797   1.665   2.910  0.6881 -0.3351  0.3566
  127SOPE   H2X13604   5.880   1.590   2.907  1.3972  0.3807  1.6733
  127SOPE   H2Y13605   5.745   1.648   3.006 -0.1045  1.0551  0.1906
  127SOPE   C2313606   5.587   2.179   2.791 -0.0653  0.2875  0.7496
  127SOPE   H3R13607   5.604   2.096   2.863 -0.2355 -0.3067  0.1141
  127SOPE   H3S13608   5.482   2.204   2.768 -0.4398 -2.0784 -0.2318
  127SOPE   C2413609   5.647   2.302   2.855 -0.1250 -0.2470 -0.4231
  127SOPE   H4R13610   5.755   2.280   2.871 -0.8731 -2.6113  1.8550
  127SOPE   H4S13611   5.630   2.387   2.786 -0.9445 -2.5367 -3.1124
  127SOPE   C2513612   5.572   2.332   2.991  0.3706  0.0758 -0.6095
  127SOPE   H5R13613   5.592   2.436   3.026  1.4780 -0.9194  1.8563
  127SOPE   H5S13614   5.462   2.326   2.979  0.4906  1.0101 -2.4385
  127SOPE   C2613615   5.616   2.243   3.106  0.4207  0.2139  0.1256
  127SOPE   H6R13616   5.617   2.136   3.080  0.0026  0.3092 -0.2879
  127SOPE   H6S13617   5.723   2.261   3.132  0.8994 -1.3227 -0.7369
  127SOPE   C2713618   5.513   2.239   3.226  0.8119  0.2167 -0.7315
  127SOPE   H7R13619   5.452   2.331   3.216  0.3879 -0.1111 -1.1848
  127SOPE   H7S13620   5.438   2.159   3.205  0.2764  0.2656  0.9237
  127SOPE   C2813621   5.569   2.235   3.376 -0.4459  0.3962  0.3077
  127SOPE   H8R13622   5.601   2.336   3.410  0.0994  0.7212 -1.1195
  127SOPE   H8S13623   5.483   2.208   3.441 -1.2938 -0.8195 -1.2925
  127SOPE   C2913624   5.674   2.129   3.399 -0.2137 -0.7715 -0.3052
  127SOPE   H9113625   5.752   2.151   3.324 -0.7717 -2.8018 -1.5230
  127SOPE  C21013626   5.673   2.015   3.477  0.2260  0.2361  0.2860
  127SOPE  H10113627   5.759   1.947   3.476  0.3665  0.4114  0.3424
  127SOPE  C21113628   5.559   1.961   3.562 -0.6127  0.2931 -0.4839
  127SOPE  H11R13629   5.489   2.043   3.591 -2.1301 -1.3322  0.5344
  127SOPE  H11S13630   5.599   1.942   3.664  0.4990  1.7571 -0.6304
  127SOPE  C21213631   5.492   1.836   3.505  0.2757  0.4675  0.2212
  127SOPE  H12R13632   5.471   1.851   3.397  1.2497  0.2802  0.0006
  127SOPE  H12S13633   5.390   1.825   3.549 -0.4759 -1.2204 -1.8884
  127SOPE  C21313634   5.584   1.709   3.499  0.2576  0.1080  0.0830
  127SOPE  H13R13635   5.675   1.734   3.557 -0.5300 -0.3405  1.5616
  127SOPE  H13S13636   5.612   1.687   3.394  0.5126 -1.2942  0.4232
  127SOPE  C21413637   5.512   1.586   3.571  0.0795  0.4248  0.2926
  127SOPE  H14R13638   5.445   1.544   3.493 -1.5771 -0.6377  2.2439
  127SOPE  H14S13639   5.458   1.628   3.658 -0.1295 -0.8277  0.7819
  127SOPE  C21513640   5.623   1.493   3.618 -0.5415  0.7252  0.1995
  127SOPE  H15R13641   5.706   1.549   3.666  1.3719 -0.8207 -1.2520
  127SOPE  H15S13642   5.673   1.453   3.528 -0.2360  2.7448 -0.5581
  127SOPE  C21613643   5.581   1.362   3.696  0.8075  0.2117  0.5888
  127SOPE  H16R13644   5.665   1.290   3.694 -1.2293 -2.2840  0.8180
  127SOPE  H16S13645   5.507   1.308   3.634  0.9936 -1.1044  1.4896
  127SOPE  C21713646   5.545   1.385   3.841  0.1723 -0.0719 -0.0964
  127SOPE  H17R13647   5.503   1.294   3.887  2.1733 -0.0299  1.9496
  127SOPE  H17S13648   5.473   1.470   3.845 -0.2049 -0.3525 -0.9444
  127SOPE  C21813649   5.669   1.425   3.924  0.3245  0.9219 -0.2387
  127SOPE  H18R13650   5.752   1.352   3.906 -0.9139 -0.4280 -0.6066
  127SOPE  H18S13651   5.646   1.444   4.030 -1.2694  1.8085 -0.7349
  127SOPE  H18T13652   5.707   1.520   3.880  0.7999  1.2236  0.8272
  127SOPE   C3313653   5.839   1.817   2.912  0.4748 -1.0110  0.4263
  127SOPE   H3X13654   5.751   1.884   2.904  1.4589  0.6683  2.9342
  127SOPE   H3Y13655   5.902   1.846   2.825 -0.5761  0.2645  0.0687
  127SOPE   C3413656   5.911   1.847   3.045 -0.0543  0.0844 -0.1738
  127SOPE   H4X13657   6.007   1.791   3.050  0.3165  0.4587 -2.4263
  127SOPE   H4Y13658   5.847   1.820   3.131 -0.7146  0.1274 -0.6442
  127SOPE   C3513659   5.943   1.998   3.050  0.6835  0.0419  0.1305
  127SOPE   H5X13660   5.843   2.039   3.074  0.3107 -0.9767  0.3413
  127SOPE   H5Y13661   5.966   2.030   2.946  0.9732 -0.4844  0.0286
  127SOPE   C3613662   6.053   2.046   3.145  0.0328  0.8208 -0.3600
  127SOPE   H6X13663   6.155   2.011   3.119  0.3020  0.0436  1.6458
  127SOPE   H6Y13664   6.041   2.014   3.250 -1.2742 -1.1107 -1.0664
  127SOPE   C3713665   6.055   2.196   3.160  0.6106  0.4171 -0.0943
  127SOPE   H7X13666   5.955   2.237   3.188 -0.6255 -1.2528 -1.9641
  127SOPE   H7Y13667   6.085   2.241   3.063 -0.0048  1.6676  0.2767
  127SOPE   C3813668   6.155   2.253   3.266 -0.0809  0.0662  0.1921
  127SOPE   H8X13669   6.176   2.351   3.219  0.0807 -0.7813 -1.5480
  127SOPE   H8Y13670   6.252   2.200   3.275  0.2944  0.8650  0.9273
  127SOPE   C3913671   6.094   2.285   3.408  0.5761 -0.5109  0.6421
  127SOPE   H9X13672   5.992   2.329   3.399  0.1951 -1.4863  0.1464
  127SOPE   H9Y13673   6.148   2.368   3.458 -3.2471  2.1880  0.5012
  127SOPE  C31013674   6.093   2.162   3.500 -0.1044 -0.1292  0.0702
  127SOPE  H10X13675   6.198   2.124   3.495 -1.0895 -2.8443 -1.0088
  127SOPE  H10Y13676   6.042   2.073   3.457  1.3393 -1.3620  0.8577
  127SOPE  C31113677   6.058   2.192   3.645  0.4294  0.2360 -0.4057
  127SOPE  H11X13678   5.949   2.212   3.638  0.3606  0.3485  0.9506
  127SOPE  H11Y13679   6.115   2.283   3.671  1.5015 -0.3382 -0.7181
  127SOPE  C31213680   6.090   2.090   3.750  0.0784  0.2672  0.2792
  127SOPE  H12X13681   6.056   2.149   3.838  0.7477  0.8731  0.1338
  127SOPE  H12Y13682   6.199   2.067   3.747 -0.1909 -0.8625 -1.0329
  127SOPE  C31313683   6.004   1.961   3.740 -0.5168  1.1064 -0.0863
  127SOPE  H13X13684   6.042   1.898   3.656  0.9419  1.1363  0.5340
  127SOPE  H13Y13685   5.905   2.002   3.710 -0.5070  0.0014 -1.6611
  127SOPE  C31413686   5.987   1.889   3.875 -0.4823 -0.8440  0.6469
  127SOPE  H14X13687   5.910   1.809   3.871  0.5592 -1.8014 -0.5340
  127SOPE  H14Y13688   5.954   1.964   3.950  0.9458 -0.3183  0.7683
  127SOPE  C31513689   6.114   1.835   3.928  0.1988  0.3581  0.2865
  127SOPE  H15X13690   6.193   1.912   3.908  0.2330  0.7683  1.9144
  127SOPE  H15Y13691   6.130   1.738   3.877 -1.0421  0.0497  0.4672
  127SOPE  C31613692   6.115   1.807   4.078  0.1591  0.8027 -0.0984
  127SOPE  H16X13693   6.104   1.901   4.136 -1.7800  1.1809 -1.0416
  127SOPE  H16Y13694   6.214   1.764   4.105 -0.4445 -2.9003 -3.4027
  127SOPE  C31713695   6.007   1.705   4.115 -0.1156 -0.2229  0.3526
  127SOPE  H17X13696   6.056   1.637   4.188 -0.5889 -2.3495 -1.2854
  127SOPE  H17Y13697   5.982   1.649   4.023  3.6100  0.3854 -1.0974
  127SOPE  C31813698   5.884   1.761   4.178 -0.6720  0.0645 -0.1999
  127SOPE  H18X13699   5.907   1.806   4.277  0.3207 -1.0703  0.0916
  127SOPE  H18Y13700   5.819   1.673   4.200 -1.1349  0.3749 -0.3070
  127SOPE  H18Z13701   5.830   1.831   4.109 -0.0861 -0.7321 -1.4827
  128SOPE     N13702   7.337   2.002   1.937 -0.0963  0.1843 -0.3559
  128SOPE   HN113703   7.424   1.965   1.894  2.5407  0.8544  4.0362
  128SOPE   HN213704   7.280   2.038   1.858  2.2152  0.9050 -1.7519
  128SOPE   HN313705   7.368   2.085   1.991 -1.0309  1.8223 -2.2808
  128SOPE   C1213706   7.270   1.907   2.026 -0.4998 -0.3573 -0.0048
  128SOPE  H12A13707   7.246   1.818   1.963  1.7494 -1.1461  0.1971
  128SOPE  H12B13708   7.173   1.954   2.052 -0.9774 -1.3407  0.0087
  128SOPE   C1113709   7.345   1.869   2.153 -0.5186 -0.2119  0.3251
  128SOPE  H11A13710   7.274   1.827   2.227 -0.6028 -0.0063  0.3597
  128SOPE  H11B13711   7.390   1.952   2.212 -0.5025  2.0394 -2.7469
  128SOPE     P13712   7.471   1.656   2.204  0.0408  0.6780 -0.0826
  128SOPE   O1313713   7.590   1.587   2.159 -0.4332 -0.0272 -0.4065
  128SOPE   O1413714   7.342   1.581   2.234 -0.1364  0.3244  0.3784
  128SOPE   O1213715   7.448   1.781   2.106  0.1838  0.9199 -0.3506
  128SOPE   O1113716   7.508   1.728   2.339 -0.6246  0.5957 -0.1119
  128SOPE    C113717   7.501   1.656   2.463  0.2880 -0.8430 -0.0281
  128SOPE    HA13718   7.410   1.594   2.469 -1.4338  1.6695  0.7638
  128SOPE    HB13719   7.492   1.728   2.547  0.6359 -0.8590  0.0214
  128SOPE    C213720   7.631   1.572   2.508  0.2080 -0.4143  1.2129
  128SOPE    HS13721   7.642   1.494   2.430  1.8280 -2.2484  3.1868
  128SOPE   O2113722   7.600   1.521   2.637  0.2445  0.5278  0.3040
  128SOPE   C2113723   7.664   1.414   2.682 -0.0443  0.5216 -0.4995
  128SOPE   O2213724   7.758   1.358   2.627  0.1382  0.7517  0.1053
  128SOPE   C2213725   7.608   1.372   2.815 -0.1856  0.0737 -0.5909
  128SOPE   H2R13726   7.614   1.261   2.812 -1.1754  0.0142 -0.4336
  128SOPE   H2S13727   7.500   1.397   2.823 -0.0451  0.6788 -0.5459
  128SOPE    C313728   7.759   1.657   2.510 -0.4171 -0.2256 -0.0204
  128SOPE    HX13729   7.760   1.729   2.595 -1.9758  0.7755 -0.8232
  128SOPE    HY13730   7.752   1.720   2.419  0.8289  0.6385  0.4657
  128SOPE   O3113731   7.875   1.583   2.522 -0.2627  0.5866  0.5060
  128SOPE   C3113732   7.982   1.647   2.482 -0.2085  0.7400 -0.1931
  128SOPE   O3213733   8.000   1.757   2.435  0.2806 -0.2082 -0.2249
  128SOPE   C3213734   8.097   1.561   2.519 -0.1564  0.6110 -0.6398
  128SOPE   H2X13735   8.144   1.529   2.423 -1.5081  1.0058 -1.4483
  128SOPE   H2Y13736   8.070   1.461   2.560  2.2984 -0.5873 -1.7820
  128SOPE   C2313737   7.703   1.413   2.935  0.6231  0.0656 -0.4211
  128SOPE   H3R13738   7.805   1.381   2.904  0.7048  1.0284 -1.1792
  128SOPE   H3S13739   7.680   1.350   3.023 -0.4595  1.6421  0.4527
  128SOPE   C2413740   7.676   1.553   2.984 -0.1362 -0.3175 -0.0548
  128SOPE   H4R13741   7.750   1.593   3.056 -0.1391 -0.8663  0.2573
  128SOPE   H4S13742   7.693   1.623   2.900  1.3774  0.4348  0.8508
  128SOPE   C2513743   7.535   1.565   3.037 -0.4234 -0.0969  0.2948
  128SOPE   H5R13744   7.464   1.551   2.953 -0.9691  1.0103  0.5671
  128SOPE   H5S13745   7.512   1.493   3.118  1.7512 -0.6515  0.4398
  128SOPE   C2613746   7.503   1.708   3.094  0.1589 -0.1686 -0.1466
  128SOPE   H6R13747   7.492   1.774   3.006 -1.8068 -1.4959 -0.9226
  128SOPE   H6S13748   7.403   1.715   3.142 -0.0275 -0.4389 -0.4948
  128SOPE   C2713749   7.601   1.762   3.200  0.2842  0.7112  0.2389
  128SOPE   H7R13750   7.703   1.782   3.160 -0.3629 -1.1646 -2.4585
  128SOPE   H7S13751   7.553   1.857   3.233 -3.3499 -1.0773  0.3698
  128SOPE   C2813752   7.607   1.674   3.325 -0.1420 -0.2094 -0.1208
  128SOPE   H8R13753   7.500   1.668   3.355 -0.6362  1.8628 -1.3812
  128SOPE   H8S13754   7.644   1.572   3.305  0.7758  0.2923 -1.0224
  128SOPE   C2913755   7.688   1.736   3.435  0.1610 -0.2366  0.3147
  128SOPE   H9113756   7.797   1.726   3.419  0.1149 -2.4480  1.2985
  128SOPE  C21013757   7.652   1.819   3.531  0.2408  0.0383 -0.3422
  128SOPE  H10113758   7.739   1.831   3.598  0.2107 -0.4941 -0.2086
  128SOPE  C21113759   7.514   1.871   3.561  0.8022  0.1091 -0.3276
  128SOPE  H11R13760   7.494   1.878   3.670  1.7827 -1.1519 -0.0554
  128SOPE  H11S13761   7.429   1.809   3.524  0.7187 -0.0505  0.1315
  128SOPE  C21213762   7.471   2.001   3.486  0.1819 -0.2139  0.2278
  128SOPE  H12R13763   7.477   1.990   3.376 -0.7836 -0.1416  0.1615
  128SOPE  H12S13764   7.543   2.082   3.510  0.6753 -0.9168  1.1735
  128SOPE  C21313765   7.331   2.044   3.514 -0.2416  0.2093 -0.1355
  128SOPE  H13R13766   7.259   1.960   3.515 -1.8618  1.5313 -1.9119
  128SOPE  H13S13767   7.298   2.121   3.440 -2.0612 -1.6245 -1.2897
  128SOPE  C21413768   7.313   2.104   3.654 -0.4066 -0.1876  0.0725
  128SOPE  H14R13769   7.389   2.181   3.681 -1.9876  1.8825 -1.1893
  128SOPE  H14S13770   7.323   2.025   3.731 -0.2803 -0.9611 -0.7386
  128SOPE  C21513771   7.183   2.179   3.671  0.1242 -0.3922  0.1309
  128SOPE  H15R13772   7.090   2.122   3.648  0.1041 -0.2326 -0.1873
  128SOPE  H15S13773   7.178   2.259   3.594 -2.9162  0.2274  0.9084
  128SOPE  C21613774   7.160   2.238   3.815  0.2111 -0.4226  0.2653
  128SOPE  H16R13775   7.186   2.166   3.896 -1.1137 -1.7602 -0.4596
  128SOPE  H16S13776   7.053   2.264   3.833  0.4250  0.2699  0.5184
  128SOPE  C21713777   7.244   2.362   3.829 -0.3342 -0.0837 -0.0935
  128SOPE  H17R13778   7.237   2.428   3.740 -0.3161 -0.9227 -0.7148
  128SOPE  H17S13779   7.350   2.328   3.835 -0.4100  0.0218  2.3350
  128SOPE  C21813780   7.230   2.442   3.957  0.5954  0.2883 -0.7794
  128SOPE  H18R13781   7.299   2.530   3.956 -1.5854  2.0475 -1.6301
  128SOPE  H18S13782   7.249   2.378   4.046  1.3875  1.1812 -0.2884
  128SOPE  H18T13783   7.132   2.490   3.974  0.8191 -0.4904  3.2389
  128SOPE   C3313784   8.203   1.649   2.609  0.1280  0.3467  0.0100
  128SOPE   H3X13785   8.214   1.746   2.556 -0.6926  1.3384  1.6282
  128SOPE   H3Y13786   8.300   1.597   2.597  0.5718  1.4261 -1.2918
  128SOPE   C3413787   8.163   1.661   2.755 -0.3284 -0.4701  0.5306
  128SOPE   H4X13788   8.081   1.735   2.767  0.1645  0.5603 -2.0653
  128SOPE   H4Y13789   8.245   1.700   2.818  0.1193  0.2523 -0.4833
  128SOPE   C3513790   8.106   1.535   2.818  0.0330  0.4974 -1.2300
  128SOPE   H5X13791   8.191   1.464   2.826 -0.3241  0.1210 -0.6838
  128SOPE   H5Y13792   8.022   1.486   2.765 -1.1070 -0.3419  1.2477
  128SOPE   C3613793   8.062   1.541   2.969 -0.3429  0.0585  0.0119
  128SOPE   H6X13794   7.958   1.581   2.971 -0.0704  0.7679 -0.1320
  128SOPE   H6Y13795   8.136   1.604   3.023 -0.3308 -0.3029  0.4243
  128SOPE   C3713796   8.050   1.404   3.037  0.1863  0.2978 -0.0765
  128SOPE   H7X13797   8.154   1.365   3.045 -0.0993 -0.2472  1.1533
  128SOPE   H7Y13798   7.998   1.350   2.956  0.6826  0.3022 -0.3987
  128SOPE   C3813799   7.989   1.405   3.177 -0.7138 -0.3023 -0.6912
  128SOPE   H8X13800   7.971   1.301   3.212  1.4164 -0.0243  1.3889
  128SOPE   H8Y13801   7.888   1.446   3.160 -1.3831 -1.3272  0.6502
  128SOPE   C3913802   8.062   1.470   3.287 -0.0773 -0.7664  0.7339
  128SOPE   H9X13803   8.094   1.573   3.259  2.2764 -1.5832  0.3486
  128SOPE   H9Y13804   8.160   1.419   3.298 -1.6904 -4.2237 -0.2456
  128SOPE  C31013805   7.980   1.480   3.421  0.4658 -0.1374 -0.4378
  128SOPE  H10X13806   7.952   1.378   3.457  1.4779  0.0185  0.7934
  128SOPE  H10Y13807   7.884   1.518   3.380 -0.7609 -2.5955  0.0048
  128SOPE  C31113808   8.050   1.559   3.532  0.4484 -0.1916 -0.3993
  128SOPE  H11X13809   8.067   1.665   3.503  0.7274 -0.3413 -0.7798
  128SOPE  H11Y13810   8.145   1.508   3.557  0.3498 -0.2422 -0.1255
  128SOPE  C31213811   7.973   1.554   3.668 -0.3722 -0.2299  0.1901
  128SOPE  H12X13812   7.953   1.446   3.687  0.8030 -0.7921 -1.6598
  128SOPE  H12Y13813   7.887   1.625   3.672  0.5835  0.8550  2.0785
  128SOPE  C31313814   8.070   1.607   3.776 -0.3832 -0.3620 -0.3550
  128SOPE  H13X13815   8.079   1.717   3.763  0.1298 -0.2329  1.0613
  128SOPE  H13Y13816   8.171   1.564   3.763  0.6095  2.0149 -0.7816
  128SOPE  C31413817   8.020   1.587   3.926 -0.3943  0.6839  0.1781
  128SOPE  H14X13818   8.096   1.632   3.994 -0.5245 -1.7145  1.9617
  128SOPE  H14Y13819   8.010   1.478   3.945 -0.1686  0.6789  0.2780
  128SOPE  C31513820   7.879   1.647   3.950 -0.0893 -0.5075 -0.0334
  128SOPE  H15X13821   7.810   1.592   3.882 -0.5981  1.0020 -0.7754
  128SOPE  H15Y13822   7.887   1.756   3.932  0.2576 -1.0207 -3.3804
  128SOPE  C31613823   7.815   1.627   4.085 -0.6262  0.3775  1.2600
  128SOPE  H16X13824   7.863   1.694   4.159 -0.0414  1.7124 -0.2938
  128SOPE  H16Y13825   7.834   1.525   4.123  0.6739  0.0635 -0.1690
  128SOPE  C31713826   7.673   1.676   4.083 -0.2018  0.3945  0.5467
  128SOPE  H17X13827   7.613   1.619   4.009 -0.2225  2.1224 -0.8179
  128SOPE  H17Y13828   7.667   1.778   4.039 -1.4118 -0.5050 -1.4748
  128SOPE  C31813829   7.602   1.679   4.214  0.3560 -0.8000 -0.4001
  128SOPE  H18X13830   7.491   1.675   4.213  0.2972  0.5498 -1.5772
  128SOPE  H18Y13831   7.633   1.772   4.265  1.0026 -1.2129 -0.0417
  128SOPE  H18Z13832   7.633   1.590   4.273 -0.1643 -2.0521 -1.9613
  129OSM      N13833   2.494   5.088   6.451  0.1569 -0.3058 -0.2264
  129OSM    C1513834   2.374   5.004   6.455  0.6883 -0.5700 -0.1050
  129OSM   H15A13835   2.385   4.904   6.418 -0.1502 -1.0092  0.8129
  129OSM   H15B13836   2.286   5.039   6.405  0.8661 -2.4712 -1.7858
  129OSM   H15C13837   2.333   5.004   6.555  1.6873  1.7378  0.3456
  129OSM    C1413838   2.440   5.229   6.476  0.3989 -0.8994 -0.2981
  129OSM   H14A13839   2.380   5.245   6.565  0.6129 -1.5252 -0.0403
  129OSM   H14B13840   2.390   5.273   6.390  2.5375  1.5296 -0.3509
  129OSM   H14C13841   2.528   5.291   6.485  2.0280 -3.3297  0.8715
  129OSM    C1313842   2.581   5.054   6.572  0.0190  0.2055  0.7730
  129OSM   H13A13843   2.599   4.948   6.573  0.0197  0.2113  1.9649
  129OSM   H13B13844   2.535   5.080   6.666  0.3174 -0.1821  1.0256
  129OSM   H13C13845   2.678   5.099   6.559 -0.3749  0.1446 -3.0072
  129OSM    C1213846   2.566   5.091   6.313 -0.7087  0.3869 -0.4540
  129OSM   H12A13847   2.649   5.160   6.313 -0.6568  0.3257 -0.8875
  129OSM   H12B13848   2.501   5.140   6.242 -2.5207 -1.7510 -0.3282
  129OSM    C1113849   2.614   4.952   6.247 -0.4297  0.4433 -0.6088
  129OSM   H11A13850   2.650   4.970   6.143  1.9904 -1.1331 -0.0871
  129OSM   H11B13851   2.525   4.886   6.255 -0.3940  0.5332  0.7436
  129OSM      P13852   2.755   4.751   6.331 -0.5906  0.4565  0.1049
  129OSM    O1313853   2.883   4.738   6.417  0.3176 -0.4913 -0.0127
  129OSM    O1413854   2.632   4.683   6.375  0.1574  0.5472 -0.7003
  129OSM    O1113855   2.780   4.708   6.183 -0.3115 -0.5103  0.6329
  129OSM    O1213856   2.718   4.906   6.331  0.2380 -0.7176 -0.1592
  129OSM    C1S13857   2.897   4.650   6.138 -0.1843  0.3612 -0.0776
  129OSM    H1S13858   2.925   4.567   6.205 -0.8638 -0.8888 -1.3137
  129OSM    H1T13859   2.978   4.727   6.140 -0.6174  0.8182  0.0192
  129OSM     NF13860   3.001   4.526   5.957  0.1049 -0.2227  0.0963
  129OSM    HNF13861   3.050   4.571   5.883 -0.2903  0.3009  0.1465
  129OSM    C2S13862   2.889   4.608   5.987  0.4981  0.2935 -0.7544
  129OSM    H2S13863   2.801   4.541   5.972  1.8129 -1.0341 -2.7505
  129OSM    C3S13864   2.877   4.720   5.885 -0.6218  0.2173 -0.5097
  129OSM    H3S13865   2.972   4.778   5.884  0.8957 -2.1600  0.8474
  129OSM     O313866   2.779   4.817   5.915 -0.5944  0.8081  0.2031
  129OSM    HO313867   2.761   4.802   6.008 -2.0775  1.0669 -0.0194
  129OSM    C4S13868   2.852   4.655   5.748 -0.3201 -0.3131  0.5533
  129OSM    H4S13869   2.760   4.597   5.736  1.8951 -3.5378 -1.6610
  129OSM    C5S13870   2.930   4.659   5.640 -0.4450  0.4198  0.2502
  129OSM    H5S13871   3.024   4.716   5.647 -0.2797 -0.0013  1.6697
  129OSM    C6S13872   2.899   4.601   5.504  0.7650 -0.0403  0.0057
  129OSM    H6S13873   2.811   4.534   5.510  0.9186 -0.1142  1.9312
  129OSM    H6T13874   2.985   4.545   5.462  0.2584  0.8035 -2.1971
  129OSM    C7S13875   2.861   4.711   5.404 -0.3976 -0.1870  0.0288
  129OSM    H7S13876   2.936   4.793   5.407  1.3924 -1.8277  2.7194
  129OSM    H7T13877   2.760   4.747   5.432 -0.1602  0.3661  0.1902
  129OSM    C8S13878   2.857   4.648   5.263 -0.1264  0.8408 -0.1608
  129OSM    H8S13879   2.793   4.557   5.268 -0.3518  1.0587  1.2056
  129OSM    H8T13880   2.961   4.616   5.241  0.5788  2.9949 -0.0587
  129OSM    C9S13881   2.810   4.753   5.164  0.2924 -0.0751 -0.2253
  129OSM    H9S13882   2.855   4.852   5.186 -0.8466  0.1973  1.0012
  129OSM    H9T13883   2.701   4.767   5.186  0.1322  0.4344 -1.3026
  129OSM   C10S13884   2.821   4.715   5.013  0.3871 -0.3330  0.3478
  129OSM   H10S13885   2.764   4.621   4.999 -1.8158  1.0031  0.1625
  129OSM   H10T13886   2.928   4.695   4.993  0.3056 -1.0533  0.6056
  129OSM   C11S13887   2.777   4.812   4.900  0.0063  0.0932  0.1149
  129OSM   H11S13888   2.673   4.849   4.909  0.4051  0.8754  1.6579
  129OSM   H11T13889   2.783   4.777   4.795  0.2907  0.0770  0.1353
  129OSM   C12S13890   2.870   4.942   4.905  0.7190  0.4279 -0.0543
  129OSM   H12S13891   2.890   4.993   5.002 -1.1413 -0.3159  0.7387
  129OSM   H12T13892   2.812   5.014   4.844  1.8070  2.1384  0.8871
  129OSM   C13S13893   3.013   4.921   4.844 -0.4823 -0.4312  0.7354
  129OSM   H13S13894   2.998   4.868   4.748 -1.0346  1.0564 -0.0213
  129OSM   H13T13895   3.072   4.859   4.915 -0.1590  0.2037  1.0245
  129OSM   C14S13896   3.103   5.050   4.833 -0.3095  0.1445  0.1790
  129OSM   H14S13897   3.207   5.014   4.849 -1.0042 -2.8216 -1.6480
  129OSM   H14T13898   3.085   5.122   4.916 -1.3782 -0.6111  0.6150
  129OSM   C15S13899   3.076   5.143   4.705 -0.4504  0.4162  0.3491
  129OSM   H15S13900   2.989   5.202   4.741  0.0573  2.3150 -1.4550
  129OSM   H15T13901   3.053   5.087   4.611  2.1382 -0.3338  0.1111
  129OSM   C16S13902   3.191   5.248   4.690  0.1502  0.7577  0.2147
  129OSM   H16S13903   3.280   5.199   4.645 -0.8818  1.0717 -2.2463
  129OSM   H16T13904   3.221   5.294   4.787 -1.1632 -0.9025  1.4256
  129OSM   C17S13905   3.165   5.369   4.595  0.3621 -0.1597  0.5679
  129OSM   H17S13906   3.064   5.402   4.626  0.2775 -1.6278  1.9157
  129OSM   H17T13907   3.151   5.338   4.489  0.0859  1.9185 -0.0157
  129OSM   C18S13908   3.269   5.481   4.611  0.9171  0.4634 -0.4926
  129OSM   H18S13909   3.366   5.446   4.570 -0.3628 -0.0079 -3.1945
  129OSM   H18T13910   3.293   5.500   4.718  1.7849 -0.0236 -0.5921
  129OSM   H18U13911   3.240   5.579   4.568  0.4655  0.0345 -1.1615
  129OSM    C1F13912   3.036   4.420   6.013  0.5298 -0.0915  0.0046
  129OSM     OF13913   2.957   4.346   6.071 -0.1246 -0.1708 -0.0359
  129OSM    C2F13914   3.177   4.380   5.987 -0.3926  0.2379  0.0957
  129OSM    H2F13915   3.201   4.383   5.878 -0.3132  0.3940  0.1173
  129OSM    H2G13916   3.187   4.270   5.996  0.3342  0.0087 -2.8006
  129OSM    C3F13917   3.283   4.463   6.065 -0.0323 -0.7534  0.0508
  129OSM    H3F13918   3.374   4.399   6.062  2.3646  2.5146  0.6971
  129OSM    H3G13919   3.258   4.465   6.173 -0.0863  3.7802  0.0437
  129OSM    C4F13920   3.317   4.592   5.999 -0.1452  0.1992  0.5564
  129OSM    H4F13921   3.383   4.658   6.060 -0.1695  1.2861 -0.5856
  129OSM    H4G13922   3.222   4.650   5.999 -1.1399 -1.4105  0.4676
  129OSM    C5F13923   3.382   4.591   5.858 -0.4040  0.1228 -0.2443
  129OSM    H5F13924   3.326   4.518   5.795 -0.0418 -0.8273  0.5248
  129OSM    H5G13925   3.487   4.559   5.874  0.4369  2.4046 -1.1003
  129OSM    C6F13926   3.364   4.726   5.774  0.3086 -0.2361  0.2620
  129OSM    H6F13927   3.413   4.810   5.828  1.6450 -0.6499 -0.2728
  129OSM    H6G13928   3.253   4.731   5.771  0.2324 -2.0787 -0.6777
  129OSM    C7F13929   3.424   4.704   5.630  0.2201  0.1524 -0.1385
  129OSM    H7F13930   3.342   4.646   5.582 -2.8613  2.8716  1.6236
  129OSM    H7G13931   3.516   4.642   5.635 -0.3396 -0.9875 -2.8970
  129OSM    C8F13932   3.428   4.828   5.537 -0.1683  0.4735  0.1116
  129OSM    H8F13933   3.481   4.777   5.454 -1.3734 -0.8071  0.1089
  129OSM    H8G13934   3.503   4.905   5.564 -1.2988  1.2791  1.0372
  129OSM    C9F13935   3.289   4.877   5.494  0.3999 -0.3529  0.2698
  129OSM    H9F13936   3.212   4.892   5.571 -0.6626 -0.2273 -0.7796
  129OSM   C10F13937   3.247   4.904   5.368  0.0794 -0.8602 -0.3230
  129OSM   H10F13938   3.149   4.952   5.356 -0.4701 -1.7868  0.3138
  129OSM   C11F13939   3.326   4.900   5.238 -0.7679  0.1928 -0.1539
  129OSM   H11F13940   3.435   4.904   5.257 -0.2738 -1.5153 -2.5088
  129OSM   H11G13941   3.305   4.996   5.184 -1.7697 -0.4034 -0.8462
  129OSM   C12F13942   3.298   4.780   5.157 -1.2326  0.1363 -1.0585
  129OSM   H12F13943   3.199   4.796   5.110 -0.8537  0.9970 -1.5764
  129OSM   H12G13944   3.310   4.681   5.206  0.2218  1.8318  2.1358
  129OSM   C13F13945   3.394   4.780   5.032  0.5115 -0.0263  0.4126
  129OSM   H13F13946   3.495   4.752   5.067  0.2916 -0.6616  0.5420
  129OSM   H13G13947   3.397   4.879   4.981  0.4514 -0.1999  0.0682
  129OSM   C14F13948   3.354   4.682   4.925 -0.3383 -1.1181 -0.0116
  129OSM   H14F13949   3.286   4.736   4.856 -2.5572 -1.6865  1.6830
  129OSM   H14G13950   3.304   4.592   4.969 -1.9804 -0.6432 -0.8543
  129OSM   C15F13951   3.467   4.634   4.833 -0.2335  0.8073 -0.1867
  129OSM   H15F13952   3.546   4.616   4.908 -0.3283 -0.3810 -0.3654
  129OSM   H15G13953   3.494   4.709   4.756  0.2005 -0.8325 -1.6544
  129OSM   C16F13954   3.455   4.489   4.781  0.2137 -0.0392 -0.2650
  129OSM   H16F13955   3.373   4.477   4.707 -1.1285 -0.2380  1.2325
  129OSM   H16G13956   3.424   4.422   4.863  0.3807 -0.5897 -0.6479
  129OSM   C17F13957   3.585   4.432   4.726  0.9373  0.1372 -0.3001
  129OSM   H17F13958   3.652   4.415   4.814  0.1192  0.4269  0.3835
  129OSM   H17G13959   3.640   4.500   4.658 -0.2043  0.3701 -0.9923
  129OSM   C18F13960   3.568   4.288   4.676  0.4768 -0.2641  1.0126
  129OSM   H18F13961   3.492   4.232   4.733 -1.3313  0.9038 -0.1842
  129OSM   H18G13962   3.665   4.233   4.671  1.0304  0.7203  0.7331
  129OSM   H18H13963   3.529   4.298   4.572  0.5420 -1.1314  0.9072
  130OSM      N13964   3.830   5.837   6.766  1.0423  0.2587  0.0442
  130OSM    C1513965   3.849   5.755   6.895 -0.7276 -0.6705  0.4036
  130OSM   H15A13966   3.762   5.694   6.913  0.4332 -1.7221  2.6094
  130OSM   H15B13967   3.849   5.822   6.981  1.7413 -0.7225  0.4523
  130OSM   H15C13968   3.945   5.708   6.904  1.1256  2.5713 -1.3903
  130OSM    C1413969   3.697   5.909   6.770 -0.0419  0.8708  0.4255
  130OSM   H14A13970   3.614   5.840   6.761 -0.1330  1.1354 -0.9038
  130OSM   H14B13971   3.675   5.976   6.687 -2.6002  0.3276  0.6060
  130OSM   H14C13972   3.694   5.950   6.869  0.8850  1.5010  0.2022
  130OSM    C1313973   3.934   5.939   6.786  0.0210  0.3108 -0.3800
  130OSM   H13A13974   3.936   6.007   6.702 -0.5228  0.0243 -0.6246
  130OSM   H13B13975   4.033   5.898   6.801  0.2989  1.4874  1.1383
  130OSM   H13C13976   3.938   6.000   6.875  0.2466  1.3302 -1.0799
  130OSM    C1213977   3.856   5.746   6.652  0.3481  0.6206  0.8557
  130OSM   H12A13978   3.824   5.790   6.559 -0.4947 -0.7919  0.4633
  130OSM   H12B13979   3.794   5.659   6.664 -0.8087  1.2156 -0.6975
  130OSM    C1113980   4.005   5.705   6.626  0.2918 -1.1454 -0.5727
  130OSM   H11A13981   4.047   5.655   6.716  0.0024  0.1965  0.3335
  130OSM   H11B13982   4.074   5.788   6.600 -1.5919  0.6320 -0.0165
  130OSM      P13983   4.141   5.546   6.479  0.1210 -0.4156 -0.2036
  130OSM    O1313984   4.242   5.643   6.432 -0.2504 -0.0291  0.0739
  130OSM    O1413985   4.186   5.453   6.586 -0.0647  0.4313  0.2674
  130OSM    O1113986   4.105   5.464   6.347 -0.2337  0.3507 -0.7239
  130OSM    O1213987   4.007   5.614   6.519  0.3669  0.0117 -0.4695
  130OSM    C1S13988   3.975   5.467   6.290 -0.3132 -0.5347 -0.3939
  130OSM    H1S13989   3.920   5.561   6.314  1.7218  1.1225 -2.0669
  130OSM    H1T13990   3.912   5.384   6.327  0.3721 -0.5743  0.7033
  130OSM     NF13991   3.833   5.443   6.098 -1.2177 -0.4223  0.4771
  130OSM    HNF13992   3.788   5.356   6.115 -0.0043 -1.3243 -0.8624
  130OSM    C2S13993   3.970   5.445   6.134 -0.1332 -0.8639 -0.5237
  130OSM    H2S13994   4.019   5.526   6.076 -0.3444 -1.0705 -0.9964
  130OSM    C3S13995   4.051   5.315   6.090 -0.0080  1.1688  0.1186
  130OSM    H3S13996   4.019   5.225   6.146 -1.5812  1.5058 -0.2017
  130OSM     O313997   4.188   5.328   6.113 -1.2252 -0.4875 -0.0345
  130OSM    HO313998   4.198   5.394   6.182 -0.6258  0.7671 -1.2781
  130OSM    C4S13999   4.034   5.285   5.942 -0.6051 -0.2929 -0.6089
  130OSM    H4S14000   4.094   5.342   5.869  0.7744  0.1004  0.8229
  130OSM    C5S14001   3.965   5.185   5.894 -0.3300 -0.3051  0.2241
  130OSM    H5S14002   3.948   5.099   5.960 -0.8915 -0.4777 -0.1499
  130OSM    C6S14003   3.944   5.149   5.751  0.0517  0.6024 -0.0863
  130OSM    H6S14004   3.886   5.055   5.745  0.7442 -0.0698  2.6246
  130OSM    H6T14005   4.037   5.135   5.691  0.9237 -0.7728  1.5221
  130OSM    C7S14006   3.857   5.253   5.681  0.0308  0.3555  0.2243
  130OSM    H7S14007   3.874   5.359   5.710  0.0381 -0.2175  2.4490
  130OSM    H7T14008   3.752   5.236   5.714 -0.7094  0.5795 -1.9495
  130OSM    C8S14009   3.849   5.253   5.525 -0.6102 -0.1136  0.9485
  130OSM    H8S14010   3.832   5.151   5.485 -0.5031 -1.1788  3.5416
  130OSM    H8T14011   3.940   5.302   5.484 -0.2933 -2.4404 -1.2266
  130OSM    C9S14012   3.723   5.334   5.482  0.2913 -0.4027 -0.3639
  130OSM    H9S14013   3.744   5.432   5.433  1.6775 -0.8811 -0.7687
  130OSM    H9T14014   3.661   5.353   5.572  0.0198 -1.0295 -0.4154
  130OSM   C10S14015   3.634   5.264   5.378  0.5233  0.2836 -0.7362
  130OSM   H10S14016   3.534   5.312   5.371  0.0123 -0.4480  1.1959
  130OSM   H10T14017   3.601   5.165   5.414  3.3499  1.2402  4.9803
  130OSM   C11S14018   3.706   5.238   5.244  0.2857 -0.7024  0.3645
  130OSM   H11S14019   3.778   5.154   5.247  0.5993 -0.5167 -1.5629
  130OSM   H11T14020   3.767   5.325   5.213  1.4267 -1.0796  1.5060
  130OSM   C12S14021   3.605   5.215   5.119 -0.2934  0.4599 -0.3073
  130OSM   H12S14022   3.518   5.282   5.132 -1.6209 -1.6210  1.9457
  130OSM   H12T14023   3.566   5.115   5.146  2.2126 -0.3497  0.5124
  130OSM   C13S14024   3.667   5.202   4.982 -0.0297 -0.9189 -0.3021
  130OSM   H13S14025   3.607   5.129   4.924  0.2692 -1.9443  0.6586
  130OSM   H13T14026   3.773   5.171   4.995 -0.1392 -1.9629 -1.7712
  130OSM   C14S14027   3.653   5.332   4.898 -0.2600  0.0224  0.3609
  130OSM   H14S14028   3.719   5.410   4.941 -1.4737  0.4109  1.5365
  130OSM   H14T14029   3.552   5.378   4.898 -0.4311 -0.3406 -0.8264
  130OSM   C15S14030   3.695   5.317   4.748  0.2124  0.3225  0.5554
  130OSM   H15S14031   3.802   5.285   4.749  0.6075  1.5520 -0.8019
  130OSM   H15T14032   3.697   5.409   4.686 -1.8205 -0.0781 -0.1293
  130OSM   C16S14033   3.613   5.217   4.675  0.0946 -0.1303  0.1335
  130OSM   H16S14034   3.507   5.245   4.696 -0.2821 -1.7355  0.4437
  130OSM   H16T14035   3.631   5.117   4.719  0.0786  0.7205  2.0992
  130OSM   C17S14036   3.640   5.201   4.525  0.4907 -0.2364  0.0477
  130OSM   H17S14037   3.742   5.157   4.516  2.3940  3.6901  1.1088
  130OSM   H17T14038   3.642   5.303   4.483 -1.3322  0.2942  1.2166
  130OSM   C18S14039   3.545   5.119   4.446  0.0411  1.0516  0.3263
  130OSM   H18S14040   3.442   5.161   4.450 -0.0530  1.0111 -1.1337
  130OSM   H18T14041   3.535   5.013   4.477  1.0106  0.4362 -1.3661
  130OSM   H18U14042   3.582   5.119   4.341 -0.9109 -1.4882 -0.0657
  130OSM    C1F14043   3.766   5.557   6.090 -0.3414  0.7552 -0.2312
  130OSM     OF14044   3.823   5.668   6.112 -0.9817  0.0289  0.4476
  130OSM    C2F14045   3.620   5.544   6.064 -0.8878 -0.3252 -0.2382
  130OSM    H2F14046   3.594   5.436   6.070 -0.9372 -0.3204 -0.3604
  130OSM    H2G14047   3.605   5.587   5.963 -1.8893  2.5500  1.0840
  130OSM    C3F14048   3.524   5.615   6.168  0.7776 -0.3324 -0.0312
  130OSM    H3F14049   3.539   5.725   6.163  0.1293 -0.1298  1.8812
  130OSM    H3G14050   3.557   5.591   6.272 -0.2611  0.8520  0.5894
  130OSM    C4F14051   3.379   5.578   6.163  0.1933  0.1097  0.1821
  130OSM    H4F14052   3.338   5.599   6.264 -1.6953 -0.1834 -0.4978
  130OSM    H4G14053   3.371   5.468   6.151 -1.5205  0.5687 -3.3298
  130OSM    C5F14054   3.287   5.646   6.057 -0.5426 -0.0702 -0.2078
  130OSM    H5F14055   3.197   5.582   6.044  0.2842 -1.0009 -1.4567
  130OSM    H5G14056   3.326   5.652   5.953  0.0728  0.2475  0.0354
  130OSM    C6F14057   3.243   5.785   6.109 -0.1473  0.9998  0.1022
  130OSM    H6F14058   3.324   5.857   6.130  1.1561 -0.0792 -1.0570
  130OSM    H6G14059   3.180   5.774   6.200 -1.5640  3.3315 -0.5353
  130OSM    C7F14060   3.146   5.835   5.998  0.1424 -0.4286 -0.3157
  130OSM    H7F14061   3.062   5.765   5.981 -0.3391  0.1142 -0.1619
  130OSM    H7G14062   3.211   5.846   5.909 -0.7121 -0.9925 -1.0121
  130OSM    C8F14063   3.095   5.973   6.030  0.1150  0.2620  0.0582
  130OSM    H8F14064   3.186   6.032   6.005  0.5819 -0.4916 -0.0316
  130OSM    H8G14065   3.064   5.985   6.136 -0.3870  1.7821 -0.2434
  130OSM    C9F14066   2.975   6.005   5.940 -0.1232 -0.6753 -0.4070
  130OSM    H9F14067   2.881   6.035   5.989 -0.0331 -2.0535  0.6469
  130OSM   C10F14068   2.982   6.020   5.804 -0.7467 -1.0250  0.2336
  130OSM   H10F14069   2.883   6.035   5.761 -1.1144 -0.7744  1.1480
  130OSM   C11F14070   3.102   6.017   5.720  0.2991 -0.5582  0.0905
  130OSM   H11F14071   3.124   5.913   5.688 -0.5739 -0.5469 -0.5868
  130OSM   H11G14072   3.192   6.051   5.775 -0.0552  1.3931 -0.5259
  130OSM   C12F14073   3.075   6.106   5.598  0.0713  0.7596  0.1216
  130OSM   H12F14074   3.072   6.213   5.627  2.2258  0.5959  1.0708
  130OSM   H12G14075   2.973   6.084   5.559  0.4433 -1.0693  0.1446
  130OSM   C13F14076   3.181   6.090   5.485  0.4058  1.3567  0.2364
  130OSM   H13F14077   3.131   6.135   5.397  0.9499  0.0484 -0.7600
  130OSM   H13G14078   3.192   5.984   5.454 -1.4528  1.6831 -1.6809
  130OSM   C14F14079   3.315   6.151   5.518  0.4900 -0.7320  0.6959
  130OSM   H14F14080   3.354   6.118   5.617  2.0467 -1.8073 -0.2637
  130OSM   H14G14081   3.301   6.261   5.530 -1.2206 -0.5927 -2.1825
  130OSM   C15F14082   3.427   6.126   5.412  0.2065  0.4952  0.4318
  130OSM   H15F14083   3.518   6.172   5.456 -0.9839  4.1708 -0.7985
  130OSM   H15G14084   3.402   6.163   5.311  3.0163 -1.7907 -1.1836
  130OSM   C16F14085   3.460   5.979   5.400  0.2975  0.1507 -0.3364
  130OSM   H16F14086   3.377   5.914   5.365  0.4984 -0.9834  1.2477
  130OSM   H16G14087   3.488   5.931   5.496  0.8620  3.0267  0.9625
  130OSM   C17F14088   3.580   5.948   5.309  0.5866 -0.2717 -0.5303
  130OSM   H17F14089   3.673   5.975   5.364  0.9670 -0.2290 -1.1958
  130OSM   H17G14090   3.574   6.014   5.220  0.7990  1.1448  0.4847
  130OSM   C18F14091   3.597   5.803   5.262 -0.2620  0.7262  0.4414
  130OSM   H18F14092   3.651   5.795   5.165  0.9506 -1.3950  1.2475
  130OSM   H18G14093   3.495   5.764   5.239 -0.3794  1.8119 -0.9594
  130OSM   H18H14094   3.635   5.739   5.345  2.0779  2.1405  0.5025
  131OSM      N14095   3.971   1.714   6.385  0.0842 -0.0275 -0.5158
  131OSM    C1514096   3.899   1.684   6.518 -0.2356  0.8063 -0.0058
  131OSM   H15A14097   3.912   1.755   6.598 -0.9916 -0.7139  1.5156
  131OSM   H15B14098   3.943   1.597   6.565  1.5902  0.9437 -1.4140
  131OSM   H15C14099   3.795   1.658   6.504  0.2571 -0.8865 -0.7219
  131OSM    C1414100   4.111   1.738   6.422  0.0645  0.5235 -0.2556
  131OSM   H14A14101   4.183   1.743   6.342 -1.7667 -0.3563 -2.0017
  131OSM   H14B14102   4.151   1.669   6.494 -1.6320  1.1044  1.2645
  131OSM   H14C14103   4.124   1.830   6.477  0.4675  0.2758  0.0676
  131OSM    C1314104   3.971   1.581   6.312  0.4445  0.4375 -0.3816
  131OSM   H13A14105   4.029   1.504   6.361  0.8559  2.3269  2.1797
  131OSM   H13B14106   4.010   1.593   6.212  1.9379  1.0499  0.2543
  131OSM   H13C14107   3.869   1.546   6.306  0.0964  0.9668  1.9694
  131OSM    C1214108   3.895   1.827   6.317 -0.1282  0.6762 -0.3927
  131OSM   H12A14109   3.905   1.911   6.384  3.2820 -0.0557  0.1168
  131OSM   H12B14110   3.793   1.799   6.292 -0.6482 -1.2144  3.5293
  131OSM    C1114111   3.952   1.881   6.178  0.2290  0.1713  0.0601
  131OSM   H11A14112   3.869   1.930   6.122 -0.0659  0.2834  0.5956
  131OSM   H11B14113   3.979   1.788   6.123  1.5723  0.3922  0.3315
  131OSM      P14114   4.040   2.111   6.282  0.1422  0.3415  0.3985
  131OSM    O1314115   3.898   2.121   6.328  0.2009  0.4844  0.0093
  131OSM    O1414116   4.145   2.124   6.384  0.5965  0.3834  0.1487
  131OSM    O1114117   4.072   2.212   6.169  0.6410  0.6165 -0.4967
  131OSM    O1214118   4.059   1.976   6.195 -0.2031  0.5607  0.0725
  131OSM    C1S14119   4.194   2.211   6.098 -0.7768  0.4270 -0.1567
  131OSM    H1S14120   4.274   2.154   6.150 -0.0500  1.4375 -0.1538
  131OSM    H1T14121   4.226   2.316   6.088 -0.1768 -0.0408 -4.3993
  131OSM     NF14122   4.306   2.170   5.881 -0.3258  0.3000  0.2281
  131OSM    HNF14123   4.319   2.239   5.811  1.4031  0.4823  0.6977
  131OSM    C2S14124   4.178   2.150   5.948 -0.1910 -0.2747 -0.0702
  131OSM    H2S14125   4.159   2.041   5.950 -1.6542 -0.0302  0.0417
  131OSM    C3S14126   4.062   2.211   5.866  0.4621  0.3695 -0.1154
  131OSM    H3S14127   4.065   2.323   5.867  0.6400  0.3901 -1.2219
  131OSM     O314128   3.936   2.188   5.920 -0.0541 -0.0858 -1.0682
  131OSM    HO314129   3.949   2.133   5.997  2.0756  1.4777 -0.2782
  131OSM    C4S14130   4.063   2.159   5.723 -0.1927 -0.4851 -0.8376
  131OSM    H4S14131   4.046   2.051   5.717  1.5445 -0.7489 -1.1622
  131OSM    C5S14132   4.065   2.224   5.606 -0.5346 -0.6038  0.3340
  131OSM    H5S14133   4.070   2.334   5.607 -0.1366 -0.6113 -0.5375
  131OSM    C6S14134   4.047   2.159   5.466 -0.3626  0.4062 -0.3402
  131OSM    H6S14135   4.147   2.130   5.426 -0.6690 -0.3902 -0.5374
  131OSM    H6T14136   3.998   2.237   5.403 -3.1084  0.6338  1.9789
  131OSM    C7S14137   3.956   2.037   5.449  0.5777  0.4477 -0.1903
  131OSM    H7S14138   3.870   2.043   5.518  2.4101 -0.5011  2.2331
  131OSM    H7T14139   4.002   1.939   5.473  2.9355  0.4114 -4.3129
  131OSM    C8S14140   3.891   2.027   5.307  1.2369  0.9128  0.0600
  131OSM    H8S14141   3.849   2.128   5.287 -0.7592  0.3489  1.2909
  131OSM    H8T14142   3.801   1.963   5.318 -0.1239  2.5682 -1.2058
  131OSM    C9S14143   3.989   1.992   5.194 -0.4208  0.0037  0.3872
  131OSM    H9S14144   3.973   1.885   5.168  0.4780 -0.3562  1.3046
  131OSM    H9T14145   4.096   1.991   5.223  0.0477  0.8565 -1.1821
  131OSM   C10S14146   3.950   2.065   5.066 -0.2493 -0.1132  0.2310
  131OSM   H10S14147   3.940   2.174   5.085 -2.3171 -0.0672 -0.9160
  131OSM   H10T14148   3.851   2.027   5.031 -0.2868  1.0961 -0.9891
  131OSM   C11S14149   4.061   2.059   4.962 -0.6565 -0.2258  0.4117
  131OSM   H11S14150   4.093   1.953   4.951 -0.7548 -0.3905  1.6329
  131OSM   H11T14151   4.147   2.115   5.005  2.1082 -2.2886 -2.2246
  131OSM   C12S14152   4.028   2.127   4.827  0.4494 -0.4082 -0.0167
  131OSM   H12S14153   3.995   2.231   4.846  1.7685 -0.1865  1.1542
  131OSM   H12T14154   3.951   2.068   4.773  1.4989 -2.5781  0.7833
  131OSM   C13S14155   4.155   2.138   4.734  0.3273 -0.7468 -0.0993
  131OSM   H13S14156   4.198   2.046   4.690 -1.0978 -1.8040  0.6940
  131OSM   H13T14157   4.231   2.175   4.806 -1.2424  2.9159 -0.1748
  131OSM   C14S14158   4.135   2.241   4.620 -0.4242  0.5318 -0.0157
  131OSM   H14S14159   4.241   2.263   4.597  0.2902 -1.4098  1.3040
  131OSM   H14T14160   4.082   2.327   4.667 -1.7138  0.1533 -0.7555
  131OSM   C15S14161   4.077   2.186   4.496 -0.1876  0.7303 -0.0496
  131OSM   H15S14162   4.047   2.261   4.420 -3.2058  0.0270  0.3936
  131OSM   H15T14163   3.981   2.141   4.529  2.2332 -2.1099  3.4914
  131OSM   C16S14164   4.155   2.067   4.438 -0.7623  0.3088 -0.6227
  131OSM   H16S14165   4.105   1.976   4.478  2.1519 -1.5792 -1.0752
  131OSM   H16T14166   4.261   2.068   4.470 -0.8832  3.4578 -0.1428
  131OSM   C17S14167   4.159   2.065   4.280  0.0394 -0.0561 -0.7420
  131OSM   H17S14168   4.232   1.984   4.256 -0.2727 -0.2874 -0.9168
  131OSM   H17T14169   4.208   2.158   4.243  2.3453 -0.1150  1.9672
  131OSM   C18S14170   4.029   2.027   4.211  0.4243  0.4508  0.4988
  131OSM   H18S14171   3.990   1.938   4.265  0.2304  1.6536  2.3962
  131OSM   H18T14172   4.039   1.991   4.106  2.2025 -0.5798  1.0053
  131OSM   H18U14173   3.947   2.100   4.231  1.8472  2.1226  0.3477
  131OSM    C1F14174   4.414   2.090   5.906  0.4056  0.4918 -0.0614
  131OSM     OF14175   4.410   2.009   5.994  0.3867 -0.1838 -0.2408
  131OSM    C2F14176   4.522   2.093   5.801 -0.4259 -0.0435 -0.1591
  131OSM    H2F14177   4.603   2.159   5.839 -0.0074 -0.6819  0.0624
  131OSM    H2G14178   4.477   2.132   5.707 -0.5169 -0.7197 -0.4003
  131OSM    C3F14179   4.600   1.963   5.784 -0.1503 -0.4078 -0.5533
  131OSM    H3F14180   4.667   1.957   5.873  1.5536  2.0227 -1.5983
  131OSM    H3G14181   4.663   1.971   5.693 -0.7783  0.4349 -0.9240
  131OSM    C4F14182   4.526   1.832   5.760 -1.0160 -0.0847 -0.1054
  131OSM    H4F14183   4.466   1.818   5.852 -1.9598  2.8719 -0.2373
  131OSM    H4G14184   4.603   1.752   5.755  0.6963  1.4540  0.7898
  131OSM    C5F14185   4.429   1.827   5.647  0.1977  0.1508  0.3878
  131OSM    H5F14186   4.474   1.858   5.550 -1.0401  3.0279  0.6660
  131OSM    H5G14187   4.352   1.906   5.662  1.0063  1.1650 -0.7350
  131OSM    C6F14188   4.362   1.690   5.630 -0.4070  0.1618  0.1247
  131OSM    H6F14189   4.327   1.649   5.727 -0.6861  0.0006 -0.0459
  131OSM    H6G14190   4.446   1.619   5.615 -1.3021 -1.0556  0.8334
  131OSM    C7F14191   4.257   1.675   5.525 -0.0129 -0.5588  0.3056
  131OSM    H7F14192   4.177   1.751   5.537  0.5658  0.0796  0.1347
  131OSM    H7G14193   4.218   1.572   5.538 -0.9703 -0.2811 -0.3404
  131OSM    C8F14194   4.317   1.685   5.382 -1.1879 -0.5104  0.1243
  131OSM    H8F14195   4.404   1.616   5.369 -0.6213 -0.1340  1.7734
  131OSM    H8G14196   4.365   1.785   5.372 -0.3648 -0.7426  1.5526
  131OSM    C9F14197   4.214   1.657   5.264  0.5203 -0.1599  0.2711
  131OSM    H9F14198   4.130   1.588   5.281 -0.1804  0.5580 -0.2283
  131OSM   C10F14199   4.221   1.715   5.141  0.1197  0.8701  0.3687
  131OSM   H10F14200   4.138   1.694   5.072 -0.0004 -3.0677  1.5765
  131OSM   C11F14201   4.328   1.815   5.079  0.4483  0.7880  0.2819
  131OSM   H11F14202   4.408   1.827   5.155  0.3924 -0.5925  0.5628
  131OSM   H11G14203   4.284   1.915   5.057  0.2685  0.5603 -0.4024
  131OSM   C12F14204   4.392   1.758   4.950  0.1688  0.1053 -0.6051
  131OSM   H12F14205   4.432   1.661   4.986 -1.7884 -0.4014  0.2753
  131OSM   H12G14206   4.482   1.814   4.917  1.9572 -2.6646 -0.4952
  131OSM   C13F14207   4.295   1.728   4.826  0.9872  0.1880 -0.3324
  131OSM   H13F14208   4.235   1.815   4.792 -1.3598 -1.3787 -0.2939
  131OSM   H13G14209   4.226   1.647   4.858 -0.7329  1.8772  0.3492
  131OSM   C14F14210   4.369   1.663   4.701  0.0922 -0.1778 -0.2148
  131OSM   H14F14211   4.410   1.568   4.742 -0.5887  0.7369  2.7118
  131OSM   H14G14212   4.448   1.735   4.671 -0.0754  0.7561  1.4862
  131OSM   C15F14213   4.283   1.630   4.581  0.0754  0.2338  0.5472
  131OSM   H15F14214   4.263   1.722   4.522 -0.1888 -0.6738 -0.7801
  131OSM   H15G14215   4.184   1.588   4.609 -0.7007  1.2646 -0.5914
  131OSM   C16F14216   4.359   1.521   4.503 -0.4205  0.0940  0.0153
  131OSM   H16F14217   4.298   1.504   4.412 -2.9904  0.6351  1.6106
  131OSM   H16G14218   4.369   1.433   4.570  2.7783  0.9491  0.7621
  131OSM   C17F14219   4.491   1.565   4.446 -0.4560  0.8502 -0.4327
  131OSM   H17F14220   4.509   1.494   4.362 -1.2826 -0.1779  0.2286
  131OSM   H17G14221   4.572   1.544   4.519 -1.1352  1.2788  0.4462
  131OSM   C18F14222   4.499   1.707   4.377  0.3363  0.0781 -0.3247
  131OSM   H18F14223   4.598   1.707   4.325  1.1028 -0.9517  1.0776
  131OSM   H18G14224   4.489   1.790   4.450  1.5298  0.7507 -0.9164
  131OSM   H18H14225   4.431   1.719   4.290  0.1964 -1.5833 -0.4668
  132OSM      N14226   4.798   5.313   6.222  0.8252  0.7505  0.7510
  132OSM    C1514227   4.729   5.226   6.128 -0.1941 -0.6968  0.0172
  132OSM   H15A14228   4.631   5.249   6.088  0.0051 -1.4379 -0.9134
  132OSM   H15B14229   4.719   5.121   6.149  1.3450 -0.6702  0.9408
  132OSM   H15C14230   4.783   5.220   6.035  0.6185 -1.9383  0.5669
  132OSM    C1414231   4.793   5.453   6.161  0.3167 -0.5470  0.1212
  132OSM   H14A14232   4.845   5.514   6.234  1.1339  0.1786 -1.0534
  132OSM   H14B14233   4.696   5.499   6.151 -0.2975 -1.7336  0.6138
  132OSM   H14C14234   4.849   5.444   6.069  0.1491  0.8021 -0.1172
  132OSM    C1314235   4.722   5.311   6.353 -0.0655 -0.0917  0.2088
  132OSM   H13A14236   4.622   5.344   6.332  0.0224 -0.0083 -0.0746
  132OSM   H13B14237   4.768   5.374   6.428 -1.9561  2.3329 -0.6099
  132OSM   H13C14238   4.723   5.208   6.388 -0.7927 -0.1552  0.0480
  132OSM    C1214239   4.940   5.261   6.238 -0.3165  0.0582 -0.6790
  132OSM   H12A14240   4.924   5.154   6.249 -2.6969  0.2872 -1.5823
  132OSM   H12B14241   4.977   5.308   6.328 -3.6141  2.2372 -0.3757
  132OSM    C1114242   5.045   5.283   6.127  0.0530  0.0148 -0.1583
  132OSM   H11A14243   5.000   5.237   6.037  0.3707 -1.2824  0.3361
  132OSM   H11B14244   5.136   5.225   6.153  1.3270  1.1516 -1.9273
  132OSM      P14245   5.144   5.507   6.218 -0.2515  0.1435 -0.4482
  132OSM    O1314246   5.127   5.656   6.193  0.3292  0.0703 -0.1413
  132OSM    O1414247   5.103   5.452   6.352 -0.2285 -0.6205 -0.5612
  132OSM    O1114248   5.291   5.467   6.195  0.4102 -0.1059  0.0529
  132OSM    O1214249   5.066   5.424   6.103 -0.1774  0.8832 -0.2325
  132OSM    C1S14250   5.337   5.462   6.057 -0.4471 -0.3193  0.2848
  132OSM    H1S14251   5.369   5.566   6.031 -0.1758 -0.4985 -0.1038
  132OSM    H1T14252   5.257   5.418   5.994 -0.3267 -0.3417  0.1470
  132OSM     NF14253   5.502   5.363   5.901  0.1387  0.3194  0.3839
  132OSM    HNF14254   5.492   5.277   5.852  0.5283  2.9354 -4.6245
  132OSM    C2S14255   5.465   5.367   6.038 -0.0379 -0.3190 -0.0086
  132OSM    H2S14256   5.547   5.409   6.101 -0.6205  0.9400 -0.0669
  132OSM    C3S14257   5.433   5.225   6.079 -0.5492  0.1505 -0.0299
  132OSM    H3S14258   5.345   5.196   6.016 -1.1757  2.7642 -0.3975
  132OSM     O314259   5.397   5.216   6.220 -0.8089  0.3467 -0.7077
  132OSM    HO314260   5.373   5.308   6.232  2.6014  1.4185 -1.5295
  132OSM    C4S14261   5.558   5.137   6.065  0.2979 -0.7205  0.5479
  132OSM    H4S14262   5.634   5.154   6.143 -1.2231 -0.2709  1.9651
  132OSM    C5S14263   5.580   5.051   5.971 -0.4641  0.3811  0.2891
  132OSM    H5S14264   5.509   5.049   5.887  1.4170 -2.2511 -1.3444
  132OSM    C6S14265   5.704   4.959   5.959  0.3004 -0.6089  0.5069
  132OSM    H6S14266   5.677   4.851   5.959  2.3156 -1.1418 -0.2363
  132OSM    H6T14267   5.781   4.978   6.037 -0.0279  1.1441  0.4276
  132OSM    C7S14268   5.784   4.976   5.829  0.5522 -0.0106  0.3181
  132OSM    H7S14269   5.728   4.922   5.748  0.9684  1.6902 -1.1272
  132OSM    H7T14270   5.883   4.926   5.838 -0.0763 -1.6784 -1.5348
  132OSM    C8S14271   5.811   5.124   5.791  0.7103 -1.3763  0.5667
  132OSM    H8S14272   5.873   5.161   5.875  1.6833  0.8882 -1.0994
  132OSM    H8T14273   5.715   5.180   5.788  0.6896 -1.3028  2.1492
  132OSM    C9S14274   5.890   5.150   5.660 -0.2248 -0.8815 -0.2111
  132OSM    H9S14275   5.990   5.102   5.665  2.0672  3.6092 -0.6223
  132OSM    H9T14276   5.902   5.257   5.636  2.6238 -0.5893  2.1955
  132OSM   C10S14277   5.815   5.087   5.533 -0.5518  0.1171  0.0278
  132OSM   H10S14278   5.716   5.132   5.510 -2.0652 -3.3956 -0.5951
  132OSM   H10T14279   5.795   4.981   5.558 -3.0373  0.0870 -1.8788
  132OSM   C11S14280   5.894   5.070   5.403  0.0493 -0.2361 -0.3115
  132OSM   H11S14281   5.844   4.991   5.342 -0.8533 -0.9988  1.3809
  132OSM   H11T14282   5.991   5.027   5.437  0.4020 -1.1227 -2.3444
  132OSM   C12S14283   5.908   5.195   5.319 -0.7757  0.1695 -0.5875
  132OSM   H12S14284   5.977   5.265   5.372  3.7991 -5.0593  0.8477
  132OSM   H12T14285   5.813   5.248   5.297 -0.6513  0.1586 -1.1561
  132OSM   C13S14286   5.965   5.174   5.173  0.3728 -0.5182  0.2979
  132OSM   H13S14287   5.994   5.272   5.130 -1.8096  0.7032  1.4818
  132OSM   H13T14288   5.873   5.145   5.118  0.9150 -0.9787 -0.3766
  132OSM   C14S14289   6.077   5.076   5.136 -0.1041 -0.1806 -0.3594
  132OSM   H14S14290   6.029   4.976   5.133  2.5768 -1.5485  0.5501
  132OSM   H14T14291   6.162   5.065   5.207 -1.6202  3.3223  2.1281
  132OSM   C15S14292   6.136   5.103   4.996 -0.2931  0.1655  0.9365
  132OSM   H15S14293   6.196   5.197   4.999 -0.8633  0.5555  0.2606
  132OSM   H15T14294   6.058   5.119   4.918 -1.1926  0.4549  1.8956
  132OSM   C16S14295   6.242   4.989   4.954 -0.1117  0.0635 -0.4707
  132OSM   H16S14296   6.183   4.895   4.948 -0.2475 -0.0097  1.6018
  132OSM   H16T14297   6.317   4.988   5.036 -0.5492 -2.0354 -0.0680
  132OSM   C17S14298   6.308   5.011   4.820 -0.8067 -0.1889  0.0917
  132OSM   H17S14299   6.378   4.926   4.805 -0.7690 -0.7353  3.0596
  132OSM   H17T14300   6.363   5.107   4.813 -0.1272 -0.5306  0.6816
  132OSM   C18S14301   6.193   5.007   4.721 -0.0345 -0.1113  0.2886
  132OSM   H18S14302   6.119   4.928   4.747 -0.4399 -0.4600 -1.8023
  132OSM   H18T14303   6.229   4.981   4.619  1.1456 -2.2056  1.2118
  132OSM   H18U14304   6.143   5.107   4.715 -0.7612 -0.5590 -1.3796
  132OSM    C1F14305   5.541   5.465   5.838 -0.4674  0.0024  0.4233
  132OSM     OF14306   5.581   5.559   5.903 -0.4134  0.4048 -0.5405
  132OSM    C2F14307   5.547   5.456   5.692  0.2042  0.4534  0.1829
  132OSM    H2F14308   5.448   5.474   5.643  1.2730 -0.4149 -2.3701
  132OSM    H2G14309   5.571   5.353   5.658 -0.6548  0.0816  0.6821
  132OSM    C3F14310   5.651   5.552   5.627  1.3815  0.5856  0.6833
  132OSM    H3F14311   5.753   5.553   5.671  1.4770 -0.9339  0.5192
  132OSM    H3G14312   5.612   5.655   5.641 -0.9031 -0.3102  1.1303
  132OSM    C4F14313   5.663   5.533   5.474  0.0648 -0.2454  0.2942
  132OSM    H4F14314   5.569   5.565   5.425  0.9676  1.3247 -0.4475
  132OSM    H4G14315   5.673   5.427   5.442 -0.9272 -0.8383  1.8355
  132OSM    C5F14316   5.781   5.610   5.409  0.1655  0.1114  0.4174
  132OSM    H5F14317   5.879   5.562   5.431  1.3612  1.7121 -1.2792
  132OSM    H5G14318   5.778   5.714   5.448 -2.1748  0.0047  0.6444
  132OSM    C6F14319   5.784   5.636   5.258  0.4938 -0.0028 -0.6271
  132OSM    H6F14320   5.875   5.697   5.238 -0.8418  2.3097  0.1191
  132OSM    H6G14321   5.701   5.703   5.225 -0.0958 -0.2963  0.2318
  132OSM    C7F14322   5.786   5.504   5.181  0.4150  1.3892  0.3287
  132OSM    H7F14323   5.689   5.452   5.200 -0.4354  0.5953 -5.2840
  132OSM    H7G14324   5.873   5.442   5.213  0.6824  1.6992  0.1931
  132OSM    C8F14325   5.803   5.523   5.023 -0.4128  0.6055 -0.5605
  132OSM    H8F14326   5.912   5.543   5.014 -0.7262  1.6521 -2.3854
  132OSM    H8G14327   5.740   5.609   4.991 -0.5833  0.2376 -1.2232
  132OSM    C9F14328   5.754   5.395   4.957 -0.0701 -0.2849 -0.1888
  132OSM    H9F14329   5.682   5.341   5.021 -0.6292  1.1072  0.3765
  132OSM   C10F14330   5.812   5.345   4.842  1.3371  0.2325 -0.2656
  132OSM   H10F14331   5.775   5.249   4.801  0.9934 -1.1272  3.1021
  132OSM   C11F14332   5.920   5.407   4.762 -0.2149  0.3991  0.5527
  132OSM   H11F14333   5.993   5.323   4.752 -1.6527 -0.5020 -3.2332
  132OSM   H11G14334   5.963   5.496   4.813  0.3623  0.3772  0.1156
  132OSM   C12F14335   5.885   5.446   4.615 -1.2239 -0.3136  0.4238
  132OSM   H12F14336   5.804   5.522   4.615  0.0662  1.0987 -0.7774
  132OSM   H12G14337   5.855   5.363   4.547  0.4051  1.0715 -2.0903
  132OSM   C13F14338   6.014   5.489   4.543 -0.0827  0.5261 -0.2522
  132OSM   H13F14339   5.992   5.488   4.435  0.6810  3.0690 -0.4686
  132OSM   H13G14340   6.089   5.409   4.563 -0.0385  1.3601  3.2334
  132OSM   C14F14341   6.085   5.623   4.585 -0.0664  0.3237  0.1906
  132OSM   H14F14342   6.168   5.638   4.513  0.4894 -0.3247  0.6904
  132OSM   H14G14343   6.139   5.604   4.681  2.1314  1.7790 -0.7090
  132OSM   C15F14344   5.997   5.748   4.593 -0.1645  0.6043 -0.0532
  132OSM   H15F14345   5.944   5.736   4.690 -0.5343 -1.5505 -0.4924
  132OSM   H15G14346   5.916   5.739   4.517 -0.7498  0.8878  0.5284
  132OSM   C16F14347   6.082   5.881   4.592  0.0723 -0.0822  0.9069
  132OSM   H16F14348   6.172   5.863   4.656  0.7595 -2.6696 -0.6971
  132OSM   H16G14349   6.016   5.956   4.640 -0.8190 -0.1481 -0.1929
  132OSM   C17F14350   6.146   5.914   4.458  0.1707 -0.1629  0.0933
  132OSM   H17F14351   6.077   5.918   4.371 -0.4164 -2.2746  0.4497
  132OSM   H17G14352   6.217   5.835   4.424  1.9994  0.0302  3.2344
  132OSM   C18F14353   6.221   6.049   4.446 -0.4152 -0.0220 -0.4900
  132OSM   H18F14354   6.292   6.057   4.531 -0.4592  1.4685 -0.5728
  132OSM   H18G14355   6.147   6.132   4.450 -1.2723 -0.7850 -0.4348
  132OSM   H18H14356   6.278   6.054   4.351  1.3114  0.4826  0.5539
  133OSM      N14357   1.909   5.756   6.247 -0.0760 -0.2433  0.1317
  133OSM    C1514358   1.861   5.620   6.270  0.1323  0.4514 -0.0386
  133OSM   H15A14359   1.873   5.559   6.182  0.1153 -0.9518  0.9286
  133OSM   H15B14360   1.756   5.612   6.295  0.5059 -2.4948  0.6732
  133OSM   H15C14361   1.930   5.569   6.335  0.7733 -0.1581 -1.1781
  133OSM    C1414362   1.818   5.828   6.151  0.3621  0.0048  0.0289
  133OSM   H14A14363   1.714   5.824   6.183  0.3336  0.1051 -0.0516
  133OSM   H14B14364   1.824   5.780   6.055  3.5892 -0.7275  0.5514
  133OSM   H14C14365   1.848   5.930   6.135  0.6562  0.0364  0.7642
  133OSM    C1314366   1.905   5.837   6.375 -0.1288  0.7758  0.3226
  133OSM   H13A14367   1.804   5.828   6.410 -0.2718 -1.1318 -0.5080
  133OSM   H13B14368   1.932   5.942   6.366  0.0033  0.7916  0.9004
  133OSM   H13C14369   1.967   5.791   6.451  2.7198  2.8973 -0.5986
  133OSM    C1214370   2.052   5.760   6.192 -0.4564  0.0797 -0.7273
  133OSM   H12A14371   2.064   5.864   6.166 -1.6839  0.1355 -1.1141
  133OSM   H12B14372   2.059   5.704   6.100  1.0927 -0.6424 -0.1989
  133OSM    C1114373   2.172   5.718   6.287  0.1456 -0.3385 -0.2419
  133OSM   H11A14374   2.152   5.777   6.379 -1.5257  1.2283 -1.5747
  133OSM   H11B14375   2.268   5.757   6.248 -0.9298  3.8761  1.0142
  133OSM      P14376   2.200   5.472   6.207  0.3315  0.7147  0.1729
  133OSM    O1314377   2.298   5.373   6.259  0.0481 -0.7878 -0.6762
  133OSM    O1414378   2.072   5.431   6.147  0.2229 -0.4073 -0.3642
  133OSM    O1114379   2.285   5.548   6.100 -0.4779 -0.4367  0.2392
  133OSM    O1214380   2.177   5.575   6.329 -0.1151 -0.1650  0.2716
  133OSM    C1S14381   2.385   5.495   6.006  0.0531  0.0838 -0.5173
  133OSM    H1S14382   2.428   5.400   6.043 -0.3857  0.4061  0.8680
  133OSM    H1T14383   2.465   5.570   5.993 -0.1895  0.6305  0.9715
  133OSM     NF14384   2.393   5.366   5.794 -0.0844 -0.0292  0.1950
  133OSM    HNF14385   2.477   5.396   5.749 -0.6785  2.2313  0.5606
  133OSM    C2S14386   2.324   5.476   5.864 -0.2000 -0.1529  0.0140
  133OSM    H2S14387   2.217   5.447   5.877  0.2633 -1.5656  0.7418
  133OSM    C3S14388   2.320   5.610   5.799 -0.0579  0.5103 -0.9932
  133OSM    H3S14389   2.420   5.652   5.777  0.9478 -0.5665  1.4099
  133OSM     O314390   2.250   5.705   5.883  0.2441  0.2528  0.3907
  133OSM    HO314391   2.257   5.666   5.970  1.3804  2.2712  1.2337
  133OSM    C4S14392   2.251   5.607   5.670 -0.7117  0.4186 -0.0246
  133OSM    H4S14393   2.147   5.573   5.678  0.3369 -2.3790  2.5803
  133OSM    C5S14394   2.304   5.642   5.554 -0.0591 -0.1409 -0.0508
  133OSM    H5S14395   2.412   5.660   5.545 -0.2128  2.1635  2.1172
  133OSM    C6S14396   2.227   5.637   5.422  0.3947  0.1950  0.9547
  133OSM    H6S14397   2.194   5.741   5.406 -0.7033  0.0837  2.3542
  133OSM    H6T14398   2.132   5.583   5.444 -0.6394  1.0906 -1.2063
  133OSM    C7S14399   2.291   5.561   5.303  0.2226  0.1515 -0.0308
  133OSM    H7S14400   2.310   5.453   5.321  2.7080  0.8129  1.5613
  133OSM    H7T14401   2.391   5.606   5.287 -0.3555  2.1015  1.7284
  133OSM    C8S14402   2.208   5.580   5.175 -0.3882  0.1018 -0.6007
  133OSM    H8S14403   2.114   5.526   5.202 -0.2343  0.5578  0.8946
  133OSM    H8T14404   2.259   5.519   5.098  0.8004  1.2989 -0.7640
  133OSM    C9S14405   2.186   5.726   5.119 -0.7740  0.3276  0.2799
  133OSM    H9S14406   2.284   5.778   5.105  0.6346 -2.4912 -0.5743
  133OSM    H9T14407   2.128   5.789   5.191 -0.9886 -0.1496  0.5263
  133OSM   C10S14408   2.118   5.716   4.984  0.0404  0.0976  0.2639
  133OSM   H10S14409   2.097   5.821   4.956  3.1568  1.2597  2.0768
  133OSM   H10T14410   2.023   5.658   4.992  0.9097 -1.2732  0.9844
  133OSM   C11S14411   2.208   5.642   4.875 -0.4976  0.4596 -0.3790
  133OSM   H11S14412   2.234   5.537   4.900  0.6666  1.0110  0.8010
  133OSM   H11T14413   2.302   5.700   4.867  0.0423 -0.5693 -1.6762
  133OSM   C12S14414   2.139   5.648   4.739 -0.0811 -0.0059  0.1502
  133OSM   H12S14415   2.112   5.755   4.721 -0.4921 -0.3361 -1.2421
  133OSM   H12T14416   2.044   5.590   4.737  0.2331 -0.4966 -0.8653
  133OSM   C13S14417   2.230   5.599   4.626  0.5053 -0.8286  0.3145
  133OSM   H13S14418   2.249   5.491   4.644 -0.4983 -1.2516 -1.0656
  133OSM   H13T14419   2.328   5.649   4.642  0.2285 -0.3085  0.3962
  133OSM   C14S14420   2.180   5.623   4.485  0.1196  0.3728  0.3212
  133OSM   H14S14421   2.173   5.732   4.464  1.8490  0.4683  0.2061
  133OSM   H14T14422   2.083   5.576   4.457  2.0928 -5.1768  2.1294
  133OSM   C15S14423   2.281   5.569   4.381 -0.0889  0.0885  0.0812
  133OSM   H15S14424   2.274   5.458   4.384  1.2721  0.0010  0.3199
  133OSM   H15T14425   2.386   5.599   4.401 -0.3443 -0.0869  1.8133
  133OSM   C16S14426   2.237   5.614   4.232 -0.2114 -0.2632 -0.2457
  133OSM   H16S14427   2.269   5.719   4.215  0.0583 -0.4885 -1.1403
  133OSM   H16T14428   2.127   5.603   4.226 -0.2907  0.8071 -0.9601
  133OSM   C17S14429   2.292   5.528   4.120  0.2999 -0.7022 -0.1876
  133OSM   H17S14430   2.261   5.584   4.030 -0.4188 -1.4967 -0.4391
  133OSM   H17T14431   2.256   5.423   4.129 -2.0486  0.0810 -0.1750
  133OSM   C18S14432   2.443   5.530   4.131 -0.7281  0.4705  0.2128
  133OSM   H18S14433   2.485   5.484   4.224  1.2260 -1.2981 -1.4892
  133OSM   H18T14434   2.479   5.635   4.135  0.8103 -0.0520  0.5266
  133OSM   H18U14435   2.504   5.483   4.051  0.0543  3.3734 -0.9485
  133OSM    C1F14436   2.383   5.241   5.828 -0.8719 -0.3152  0.4660
  133OSM     OF14437   2.292   5.200   5.902 -0.4141  0.0742  0.6332
  133OSM    C2F14438   2.503   5.161   5.791 -0.3904  0.3411 -0.3416
  133OSM    H2F14439   2.572   5.173   5.877 -1.1802 -0.0835  0.3635
  133OSM    H2G14440   2.559   5.205   5.705 -0.8442  1.5150 -0.0464
  133OSM    C3F14441   2.466   5.017   5.781  0.5316  0.4651  0.2754
  133OSM    H3F14442   2.430   4.990   5.883  0.2568  1.5992  0.4890
  133OSM    H3G14443   2.553   4.948   5.775  1.7127  2.1030 -2.1384
  133OSM    C4F14444   2.359   4.976   5.676 -0.1082  1.0239  0.5294
  133OSM    H4F14445   2.262   5.008   5.721 -0.6933  1.3432 -0.9286
  133OSM    H4G14446   2.362   4.865   5.677  0.9100  0.9926 -2.5866
  133OSM    C5F14447   2.369   5.031   5.536  0.2655 -0.0628  0.4723
  133OSM    H5F14448   2.352   5.141   5.533  2.6345  0.2896 -0.4561
  133OSM    H5G14449   2.286   4.988   5.475 -1.2034  0.1431  2.2765
  133OSM    C6F14450   2.498   4.995   5.458  0.3727 -0.6149  0.1773
  133OSM    H6F14451   2.529   4.889   5.467  1.3734 -0.1218  2.7787
  133OSM    H6G14452   2.580   5.053   5.505  0.1411 -0.9070  0.9434
  133OSM    C7F14453   2.501   5.015   5.303  0.0612  0.0393 -0.1133
  133OSM    H7F14454   2.412   4.969   5.255  0.4830 -1.6273  0.6484
  133OSM    H7G14455   2.591   4.966   5.260  0.1088  1.2211 -1.4024
  133OSM    C8F14456   2.489   5.164   5.269 -0.5649  0.0528 -0.7829
  133OSM    H8F14457   2.391   5.201   5.307 -0.4929 -0.2912 -0.2499
  133OSM    H8G14458   2.468   5.170   5.160 -2.2613 -0.1062 -0.4904
  133OSM    C9F14459   2.601   5.250   5.310  0.0621 -0.4270 -0.0229
  133OSM    H9F14460   2.657   5.228   5.402 -0.0719  1.9442  0.6497
  133OSM   C10F14461   2.661   5.343   5.236  0.2081 -0.2926  0.8431
  133OSM   H10F14462   2.731   5.412   5.285  0.6029  0.4607 -0.7541
  133OSM   C11F14463   2.612   5.383   5.097 -0.7264  0.1879  0.3032
  133OSM   H11F14464   2.649   5.488   5.087 -0.8124  0.3739  1.8226
  133OSM   H11G14465   2.501   5.377   5.100 -0.7657  0.8536  0.2902
  133OSM   C12F14466   2.649   5.299   4.979 -0.0033  1.2762 -0.4392
  133OSM   H12F14467   2.614   5.194   4.990 -0.7717  1.5227 -0.4367
  133OSM   H12G14468   2.755   5.278   4.955 -0.4756 -1.1983 -0.5545
  133OSM   C13F14469   2.595   5.373   4.855 -0.0373 -0.2472  0.3407
  133OSM   H13F14470   2.638   5.475   4.844 -1.2893  0.1723 -0.7467
  133OSM   H13G14471   2.486   5.391   4.866  0.0585 -1.5175  4.1403
  133OSM   C14F14472   2.623   5.280   4.733 -0.5795 -0.3650 -0.1616
  133OSM   H14F14473   2.599   5.173   4.751 -0.1136 -0.5456 -0.5727
  133OSM   H14G14474   2.734   5.274   4.735 -0.6236 -2.1245 -1.6118
  133OSM   C15F14475   2.561   5.334   4.608 -0.1730  0.4395  0.5000
  133OSM   H15F14476   2.587   5.439   4.583 -1.0341  0.3760 -0.7068
  133OSM   H15G14477   2.452   5.336   4.629 -0.9665  0.8487 -3.2176
  133OSM   C16F14478   2.584   5.248   4.485  0.2189 -0.1348 -0.4296
  133OSM   H16F14479   2.514   5.282   4.406  0.0749 -1.1521 -0.7452
  133OSM   H16G14480   2.552   5.144   4.506 -1.2280  0.3631 -0.0741
  133OSM   C17F14481   2.728   5.255   4.423  0.0496 -0.0251 -0.4607
  133OSM   H17F14482   2.731   5.186   4.336  0.2479 -1.0883  0.3835
  133OSM   H17G14483   2.807   5.238   4.499  0.3041  0.7345 -0.5516
  133OSM   C18F14484   2.774   5.394   4.367 -0.0149  0.7495 -0.2833
  133OSM   H18F14485   2.881   5.380   4.340  0.2866  2.4229 -0.0089
  133OSM   H18G14486   2.767   5.484   4.432  0.0253 -0.4436  1.4089
  133OSM   H18H14487   2.723   5.421   4.272  1.0848  1.6586 -0.6314
  134OSM      N14488   2.006   2.404   6.228 -0.3008  1.5872 -0.0900
  134OSM    C1514489   1.866   2.449   6.195 -0.1724  0.1122  0.5743
  134OSM   H15A14490   1.852   2.477   6.091 -1.6822  0.7284  0.9202
  134OSM   H15B14491   1.843   2.542   6.246 -1.4349 -0.1604  0.5170
  134OSM   H15C14492   1.783   2.383   6.216 -0.0645 -1.1193 -2.6515
  134OSM    C1414493   2.024   2.376   6.377 -0.2674  0.0997  0.1597
  134OSM   H14A14494   1.996   2.461   6.437  0.1391 -0.1042  0.6447
  134OSM   H14B14495   2.128   2.353   6.394 -0.1945 -0.6938 -1.2785
  134OSM   H14C14496   1.963   2.293   6.409  1.8656 -0.9845  1.5005
  134OSM    C1314497   2.020   2.280   6.152  0.3914 -0.4341  0.0336
  134OSM   H13A14498   2.116   2.235   6.171  0.5155 -1.5538 -2.8878
  134OSM   H13B14499   2.015   2.308   6.048  0.4992  1.0809  0.4363
  134OSM   H13C14500   1.936   2.216   6.175 -0.2256  0.7518  1.1366
  134OSM    C1214501   2.113   2.507   6.177  0.7802  0.1648  0.1773
  134OSM   H12A14502   2.101   2.511   6.070  1.0228  0.4247  0.1597
  134OSM   H12B14503   2.211   2.462   6.187  0.3421 -1.3996 -2.1961
  134OSM    C1114504   2.114   2.642   6.239  0.9475  0.1664  0.0203
  134OSM   H11A14505   2.207   2.700   6.223  0.2491  1.4037  0.3458
  134OSM   H11B14506   2.116   2.627   6.349  0.2781  3.4314  0.5232
  134OSM      P14507   1.966   2.852   6.277  0.7625  0.2022  0.5084
  134OSM    O1314508   1.973   2.821   6.420  0.0323 -0.5297  0.3608
  134OSM    O1414509   2.054   2.960   6.226 -0.5701 -0.0145 -0.1625
  134OSM    O1114510   1.823   2.882   6.234  0.8906 -0.0018 -0.2045
  134OSM    O1214511   1.998   2.719   6.198 -0.4340 -1.1131 -0.3654
  134OSM    C1S14512   1.713   2.794   6.244  0.5779 -0.1917 -0.1393
  134OSM    H1S14513   1.747   2.694   6.209 -3.3284 -1.1011 -1.7039
  134OSM    H1T14514   1.639   2.817   6.164  0.4938  0.8863  0.2469
  134OSM     NF14515   1.533   2.693   6.395 -0.1832 -0.2039 -0.2327
  134OSM    HNF14516   1.440   2.728   6.404 -0.0276  0.0122  0.5815
  134OSM    C2S14517   1.640   2.790   6.383  0.4375  0.5454 -0.7030
  134OSM    H2S14518   1.715   2.756   6.457  0.7111  1.9368 -0.3323
  134OSM    C3S14519   1.594   2.926   6.428 -0.6213 -0.3744 -0.6341
  134OSM    H3S14520   1.677   3.000   6.421 -3.1960  2.4609 -2.2352
  134OSM     O314521   1.552   2.918   6.565  0.2561 -0.0924 -0.3128
  134OSM    HO314522   1.585   2.833   6.594 -0.9149  0.5965  3.2150
  134OSM    C4S14523   1.483   2.980   6.346 -0.0393  0.8139  0.2307
  134OSM    H4S14524   1.384   2.967   6.392  0.1295  0.9903  0.6470
  134OSM    C5S14525   1.507   3.043   6.231  0.1335 -0.9470 -0.2001
  134OSM    H5S14526   1.606   3.059   6.187 -1.2143  0.8803 -2.6908
  134OSM    C6S14527   1.395   3.108   6.148  0.0494 -0.3983 -0.4096
  134OSM    H6S14528   1.412   3.215   6.125 -0.4734 -0.1726  0.2322
  134OSM    H6T14529   1.299   3.112   6.204  1.1055 -1.3135  1.5194
  134OSM    C7S14530   1.387   3.028   6.022  0.2738 -0.6027 -0.4991
  134OSM    H7S14531   1.293   3.048   5.966  0.9364  0.4862 -1.2332
  134OSM    H7T14532   1.374   2.921   6.050  0.1877 -0.3888  0.2838
  134OSM    C8S14533   1.495   3.043   5.918 -0.5020  0.3221  0.1018
  134OSM    H8S14534   1.592   3.001   5.953 -0.6191 -0.2400 -0.2493
  134OSM    H8T14535   1.506   3.153   5.900 -2.5279  0.2840 -1.6102
  134OSM    C9S14536   1.469   2.978   5.785 -0.4282 -0.0130  0.0033
  134OSM    H9S14537   1.372   3.014   5.745  0.0647 -0.3156 -1.4948
  134OSM    H9T14538   1.457   2.868   5.796 -1.4474  0.3495  2.7470
  134OSM   C10S14539   1.578   3.002   5.680 -0.2208 -0.2365  0.1856
  134OSM   H10S14540   1.669   2.950   5.718 -0.5036 -1.0023 -0.1904
  134OSM   H10T14541   1.589   3.113   5.685 -1.3486 -0.1755  1.5677
  134OSM   C11S14542   1.542   2.973   5.534 -0.0579  1.1874  0.2340
  134OSM   H11S14543   1.631   3.015   5.482 -0.0147  0.2745 -0.4336
  134OSM   H11T14544   1.454   3.033   5.502 -0.7186 -0.8036 -1.8142
  134OSM   C12S14545   1.535   2.820   5.498 -0.1789  0.0456  0.0472
  134OSM   H12S14546   1.442   2.798   5.554 -0.9625  0.3373 -1.1312
  134OSM   H12T14547   1.626   2.766   5.533 -0.5006 -0.9468 -0.6301
  134OSM   C13S14548   1.513   2.784   5.348 -0.3713  0.0773  0.2141
  134OSM   H13S14549   1.438   2.852   5.302  0.6586  2.3506  1.7957
  134OSM   H13T14550   1.469   2.683   5.335 -0.4802  0.1384  0.1097
  134OSM   C14S14551   1.641   2.800   5.268 -0.2712  0.0489  0.7010
  134OSM   H14S14552   1.730   2.768   5.326 -0.8484 -0.9787  1.0289
  134OSM   H14T14553   1.667   2.908   5.270  0.5667 -0.1426  0.1972
  134OSM   C15S14554   1.647   2.749   5.123 -0.3274  0.2537  0.4717
  134OSM   H15S14555   1.547   2.770   5.077 -0.2960 -1.3497 -0.3591
  134OSM   H15T14556   1.668   2.640   5.121 -2.4403 -0.1836 -1.2922
  134OSM   C16S14557   1.743   2.824   5.033 -0.7492 -0.0086 -0.7810
  134OSM   H16S14558   1.835   2.844   5.092  0.4898 -1.1678 -2.2577
  134OSM   H16T14559   1.695   2.914   4.991 -0.7392  0.8177  0.9259
  134OSM   C17S14560   1.803   2.732   4.918 -0.2338  0.1343 -0.1384
  134OSM   H17S14561   1.870   2.658   4.965  0.6267  0.7868 -0.3131
  134OSM   H17T14562   1.857   2.804   4.853  1.2494 -1.9172 -1.2183
  134OSM   C18S14563   1.692   2.678   4.824 -0.0175  0.0352 -0.7615
  134OSM   H18S14564   1.742   2.617   4.746  2.2019  0.7458  0.0607
  134OSM   H18T14565   1.643   2.761   4.767  0.4433  2.1918  1.8672
  134OSM   H18U14566   1.622   2.613   4.881 -0.7573 -1.7811 -3.6566
  134OSM    C1F14567   1.561   2.564   6.375  0.0470  0.1226  0.6417
  134OSM     OF14568   1.677   2.534   6.387 -0.4493 -0.0377 -0.5621
  134OSM    C2F14569   1.455   2.468   6.331  0.3388 -0.0238  0.0204
  134OSM    H2F14570   1.404   2.426   6.420 -0.1448 -1.6296 -0.9945
  134OSM    H2G14571   1.512   2.383   6.286  0.3971 -0.1520  0.3328
  134OSM    C3F14572   1.353   2.507   6.211 -0.1247 -0.4601 -0.7337
  134OSM    H3F14573   1.261   2.562   6.240  0.4709 -0.2272  0.7716
  134OSM    H3G14574   1.328   2.405   6.173  1.1797 -0.7931 -0.7479
  134OSM    C4F14575   1.414   2.583   6.093  0.2157 -0.0033 -0.1519
  134OSM    H4F14576   1.508   2.528   6.069  0.9018  1.3347 -0.5898
  134OSM    H4G14577   1.441   2.687   6.123 -0.1983 -0.0771  0.4952
  134OSM    C5F14578   1.327   2.608   5.973  0.5711 -0.2482 -0.3774
  134OSM    H5F14579   1.291   2.514   5.925  2.2619 -1.1019  0.0141
  134OSM    H5G14580   1.393   2.656   5.897 -2.9912  3.4559 -1.3140
  134OSM    C6F14581   1.202   2.695   5.995 -0.4910  0.2298  0.0597
  134OSM    H6F14582   1.224   2.756   6.085  1.6970 -0.8371  0.2858
  134OSM    H6G14583   1.115   2.631   6.020  0.8373 -1.1808  1.1513
  134OSM    C7F14584   1.146   2.779   5.878  0.8361  0.2469 -0.4690
  134OSM    H7F14585   1.123   2.724   5.784 -2.8181  0.7623  0.0446
  134OSM    H7G14586   1.222   2.856   5.850  1.0072  0.7220  1.2222
  134OSM    C8F14587   1.021   2.861   5.930  0.3649  0.1007  0.6295
  134OSM    H8F14588   0.994   2.822   6.031  1.1568 -2.0411  0.0337
  134OSM    H8G14589   0.934   2.827   5.870  2.9239 -0.9717 -2.6182
  134OSM    C9F14590   1.035   3.009   5.935  0.1521  0.4914 -0.1558
  134OSM    H9F14591   1.084   3.048   6.026  1.7854 -0.6262 -0.5380
  134OSM   C10F14592   1.010   3.097   5.841 -0.0389  0.6565  0.6020
  134OSM   H10F14593   1.045   3.201   5.850  1.1247  0.1361  2.3693
  134OSM   C11F14594   0.955   3.061   5.707 -0.4489 -1.0218 -0.1336
  134OSM   H11F14595   0.879   3.137   5.679 -0.0357  0.0847  1.7186
  134OSM   H11G14596   0.899   2.965   5.701 -0.6061 -0.8447 -1.9554
  134OSM   C12F14597   1.055   3.078   5.592  0.2301 -0.2182 -1.0963
  134OSM   H12F14598   1.128   2.994   5.601 -0.1451 -0.2398  2.6729
  134OSM   H12G14599   1.107   3.176   5.596 -1.2955  0.5373  2.5457
  134OSM   C13F14600   0.992   3.063   5.456  0.1858  0.4792 -0.5444
  134OSM   H13F14601   0.921   3.147   5.443 -2.3678 -1.4741  0.4625
  134OSM   H13G14602   0.932   2.970   5.453  1.0187 -0.0959  0.2397
  134OSM   C14F14603   1.103   3.055   5.351 -0.2358 -0.3948  0.1914
  134OSM   H14F14604   1.171   2.976   5.387  0.5091  0.2687  0.2654
  134OSM   H14G14605   1.168   3.145   5.342  0.6279 -1.2965 -3.1883
  134OSM   C15F14606   1.066   3.017   5.205  0.9160  0.2200  0.5007
  134OSM   H15F14607   1.010   3.096   5.151 -2.6714 -1.7284  1.2428
  134OSM   H15G14608   1.008   2.923   5.198 -2.0593  2.1695 -2.4656
  134OSM   C16F14609   1.194   2.989   5.128 -0.2285  0.0558  0.0347
  134OSM   H16F14610   1.160   2.940   5.034 -0.3399 -2.4331  1.3328
  134OSM   H16G14611   1.255   2.921   5.192 -0.8345 -0.4844  0.0483
  134OSM   C17F14612   1.263   3.119   5.078  0.1571  0.3395 -0.5206
  134OSM   H17F14613   1.294   3.178   5.167 -0.2822  2.5454 -1.7842
  134OSM   H17G14614   1.208   3.192   5.015 -1.2723 -1.0040 -0.8570
  134OSM   C18F14615   1.391   3.094   4.996 -0.2083  0.3638 -0.2936
  134OSM   H18F14616   1.415   3.184   4.936  0.1719  0.3448 -0.1670
  134OSM   H18G14617   1.374   3.008   4.928  0.0985 -0.4881  0.6934
  134OSM   H18H14618   1.479   3.080   5.062  0.4442  0.0572 -1.2062
  135OSM      N14619   2.877   2.703   6.410 -0.3288 -0.8715  0.5510
  135OSM    C1514620   2.887   2.561   6.383 -0.0117 -0.7457 -0.1555
  135OSM   H15A14621   2.893   2.502   6.473 -0.7037  1.7131  1.5645
  135OSM   H15B14622   2.971   2.543   6.317  2.1095 -1.9414  2.7476
  135OSM   H15C14623   2.807   2.525   6.319 -0.5301 -3.6526  2.0608
  135OSM    C1414624   2.758   2.728   6.496  0.5971 -0.1243 -0.1080
  135OSM   H14A14625   2.750   2.659   6.579  0.1076  0.6892  0.5418
  135OSM   H14B14626   2.664   2.730   6.444  0.3286 -2.5652  0.2386
  135OSM   H14C14627   2.757   2.824   6.546  1.2151 -1.2485  2.1663
  135OSM    C1314628   2.996   2.745   6.492 -0.0673 -0.2394  0.0058
  135OSM   H13A14629   2.999   2.850   6.515 -0.0173 -0.1653 -0.3331
  135OSM   H13B14630   3.092   2.716   6.451 -1.5307 -1.8174 -2.4844
  135OSM   H13C14631   2.989   2.691   6.585  0.0056 -1.6487 -0.7821
  135OSM    C1214632   2.867   2.772   6.278  0.0499 -0.2257 -0.3275
  135OSM   H12A14633   2.927   2.727   6.200 -0.2770 -0.6104 -0.3600
  135OSM   H12B14634   2.923   2.860   6.304 -1.0704  0.2657  0.4675
  135OSM    C1114635   2.729   2.797   6.219  0.6050 -0.1038  0.3294
  135OSM   H11A14636   2.742   2.851   6.123  1.8610  0.3884  0.7656
  135OSM   H11B14637   2.660   2.860   6.280  0.6014 -0.4747  0.7160
  135OSM      P14638   2.537   2.601   6.221  0.1451 -0.1531  0.4159
  135OSM    O1314639   2.556   2.452   6.226  0.9216 -0.3249  0.0776
  135OSM    O1414640   2.471   2.658   6.339 -0.2547  0.0339 -0.0077
  135OSM    O1114641   2.451   2.652   6.098 -0.0180 -0.4402 -0.3753
  135OSM    O1214642   2.667   2.672   6.186  0.0512 -0.1440  0.2509
  135OSM    C1S14643   2.504   2.666   5.964  0.1328 -0.8773  1.1807
  135OSM    H1S14644   2.528   2.565   5.924 -0.4411  0.0332 -1.5426
  135OSM    H1T14645   2.597   2.727   5.963 -0.0696 -0.5618  1.5247
  135OSM     NF14646   2.419   2.726   5.730 -0.8349  0.2050  0.3408
  135OSM    HNF14647   2.438   2.810   5.679 -2.2551  1.4199  1.7256
  135OSM    C2S14648   2.396   2.744   5.869 -0.0573 -0.7447  0.5138
  135OSM    H2S14649   2.290   2.720   5.892  0.1903  0.1445  2.7787
  135OSM    C3S14650   2.397   2.893   5.919 -0.7647 -0.0141 -1.0479
  135OSM    H3S14651   2.496   2.940   5.903  0.4486 -1.8614  0.7857
  135OSM     O314652   2.369   2.908   6.054  0.4973  0.3331 -0.4260
  135OSM    HO314653   2.379   2.820   6.092  0.8170  1.0932  1.3319
  135OSM    C4S14654   2.292   2.976   5.847  0.4411 -0.5650 -0.5122
  135OSM    H4S14655   2.186   2.951   5.862  0.8865 -0.3465  3.6264
  135OSM    C5S14656   2.316   3.073   5.762 -1.1258 -0.3609  0.1704
  135OSM    H5S14657   2.417   3.107   5.737 -1.3149  2.1760  2.5572
  135OSM    C6S14658   2.202   3.145   5.706 -0.0454  1.6041 -0.8500
  135OSM    H6S14659   2.235   3.245   5.669  1.0891  1.3482 -0.5676
  135OSM    H6T14660   2.128   3.156   5.788  0.3438 -2.4696  0.1323
  135OSM    C7S14661   2.140   3.072   5.592  0.1774 -0.3923 -0.3299
  135OSM    H7S14662   2.089   2.978   5.620 -0.5354  0.2180  0.4397
  135OSM    H7T14663   2.224   3.037   5.528  0.0485 -0.9241 -0.2074
  135OSM    C8S14664   2.053   3.163   5.505 -0.1829 -0.4626 -0.9954
  135OSM    H8S14665   2.118   3.237   5.454  0.1085 -0.5014 -0.6826
  135OSM    H8T14666   1.983   3.220   5.570 -0.7367  0.2076 -2.1596
  135OSM    C9S14667   1.961   3.099   5.396  0.5209  0.2787  0.1262
  135OSM    H9S14668   1.905   3.023   5.455 -1.2375 -0.0585 -1.9206
  135OSM    H9T14669   2.012   3.045   5.314 -1.1011 -0.3179 -0.5107
  135OSM   C10S14670   1.866   3.196   5.324 -0.0785  0.3908  0.0131
  135OSM   H10S14671   1.809   3.255   5.400  0.3954  2.0737 -0.9260
  135OSM   H10T14672   1.795   3.136   5.263  2.3610 -1.5710 -0.9805
  135OSM   C11S14673   1.930   3.295   5.220  0.5330  0.1350 -0.5165
  135OSM   H11S14674   1.993   3.232   5.154 -1.0627 -2.8313  0.6869
  135OSM   H11T14675   1.995   3.365   5.275 -0.4931  0.4142  0.3586
  135OSM   C12S14676   1.829   3.380   5.142 -0.1769 -0.9890 -0.0085
  135OSM   H12S14677   1.878   3.468   5.097  1.6188 -1.7663  0.3844
  135OSM   H12T14678   1.750   3.414   5.212  0.4522  0.7548 -0.1352
  135OSM   C13S14679   1.754   3.313   5.024  0.0461 -0.1797 -0.0233
  135OSM   H13S14680   1.663   3.374   5.004 -2.0010 -2.0599  3.0556
  135OSM   H13T14681   1.706   3.216   5.052  0.2509 -0.1136  0.5721
  135OSM   C14S14682   1.845   3.291   4.898  0.2600  0.7416 -0.2602
  135OSM   H14S14683   1.784   3.240   4.821  1.9273  2.1820 -2.5983
  135OSM   H14T14684   1.937   3.231   4.917  0.5641  0.8491 -1.3447
  135OSM   C15S14685   1.891   3.423   4.834 -0.7494 -0.1208  0.3579
  135OSM   H15S14686   1.970   3.464   4.901 -0.5492 -2.4598  1.6026
  135OSM   H15T14687   1.801   3.488   4.841 -1.1251 -0.5827 -0.1840
  135OSM   C16S14688   1.939   3.401   4.695 -0.0110  0.4695  0.5132
  135OSM   H16S14689   1.865   3.354   4.627 -0.1089  0.6774  0.4763
  135OSM   H16T14690   2.025   3.332   4.706  0.2794 -0.0632 -4.1254
  135OSM   C17S14691   1.972   3.537   4.632 -0.9554  0.4657 -0.2811
  135OSM   H17S14692   1.908   3.608   4.689 -0.3474 -0.0714  1.0890
  135OSM   H17T14693   1.954   3.542   4.523  0.8225 -0.2138 -0.6313
  135OSM   C18S14694   2.119   3.584   4.669 -0.0595  0.1696 -0.2178
  135OSM   H18S14695   2.180   3.512   4.611 -3.3522 -1.3151 -1.9659
  135OSM   H18T14696   2.149   3.571   4.775 -1.6333 -0.0955  0.2118
  135OSM   H18U14697   2.138   3.685   4.628 -3.4552  1.3189  0.8607
  135OSM    C1F14698   2.412   2.610   5.670 -0.5029  0.3268  0.4298
  135OSM     OF14699   2.399   2.513   5.734 -0.3182  0.2755 -0.3158
  135OSM    C2F14700   2.434   2.611   5.519  0.8632 -0.3001 -0.4783
  135OSM    H2F14701   2.540   2.601   5.490  0.5498 -1.3379 -1.3023
  135OSM    H2G14702   2.399   2.709   5.481  0.3632 -0.1076  0.4570
  135OSM    C3F14703   2.374   2.486   5.453 -0.2620 -0.0647  0.0181
  135OSM    H3F14704   2.265   2.485   5.470 -0.1415  0.8678  0.9278
  135OSM    H3G14705   2.425   2.395   5.493 -0.6130  1.0354  3.1507
  135OSM    C4F14706   2.403   2.484   5.305 -0.2407 -0.5405 -0.2942
  135OSM    H4F14707   2.361   2.572   5.251 -1.9544  0.0635  1.9391
  135OSM    H4G14708   2.513   2.498   5.293  0.1308 -1.2266  2.1147
  135OSM    C5F14709   2.360   2.355   5.238 -0.5765  0.1506 -0.1925
  135OSM    H5F14710   2.250   2.340   5.243 -0.4879  0.0305  1.9382
  135OSM    H5G14711   2.405   2.281   5.307 -1.5877  0.2102  0.5340
  135OSM    C6F14712   2.423   2.349   5.100 -0.2260  0.2409 -0.3194
  135OSM    H6F14713   2.533   2.361   5.100 -0.2993  0.9382  0.5581
  135OSM    H6G14714   2.387   2.435   5.039  0.5480  0.5587 -0.3263
  135OSM    C7F14715   2.417   2.202   5.046  0.4934 -0.3828 -0.1019
  135OSM    H7F14716   2.489   2.143   5.107 -0.2899 -0.0145  1.1979
  135OSM    H7G14717   2.452   2.201   4.940  3.4144  0.2983  0.8044
  135OSM    C8F14718   2.281   2.131   5.047 -0.6429 -1.1563 -0.5537
  135OSM    H8F14719   2.213   2.195   4.988  1.4943 -0.2520 -2.1076
  135OSM    H8G14720   2.244   2.115   5.150 -2.4420 -1.5902 -1.2632
  135OSM    C9F14721   2.294   1.997   4.981 -0.2230 -0.9623 -0.1259
  135OSM    H9F14722   2.321   1.916   5.052  0.8866 -0.5915 -0.1104
  135OSM   C10F14723   2.276   1.970   4.851  0.2236 -0.4971  0.2467
  135OSM   H10F14724   2.293   1.869   4.810 -0.9099 -0.3816 -0.5402
  135OSM   C11F14725   2.237   2.070   4.742 -0.2960  0.0285 -0.5131
  135OSM   H11F14726   2.234   2.176   4.774 -1.0266  0.2640 -1.3163
  135OSM   H11G14727   2.134   2.046   4.707 -0.8636 -1.2248  1.9354
  135OSM   C12F14728   2.328   2.049   4.618  0.1400  0.4991 -0.0629
  135OSM   H12F14729   2.266   2.089   4.535  0.1002 -1.9389 -1.2588
  135OSM   H12G14730   2.337   1.943   4.587 -1.2508  0.4853 -0.4636
  135OSM   C13F14731   2.461   2.119   4.616  0.5996  0.3249  0.1465
  135OSM   H13F14732   2.526   2.054   4.678 -0.9933 -2.1671 -0.7204
  135OSM   H13G14733   2.469   2.226   4.647  1.9128  0.2119  0.2189
  135OSM   C14F14734   2.547   2.111   4.485  0.5106  0.4253  0.1404
  135OSM   H14F14735   2.494   2.164   4.403  2.0212  0.6688 -0.6880
  135OSM   H14G14736   2.555   2.002   4.469 -0.1726  0.3115  0.5470
  135OSM   C15F14737   2.685   2.176   4.513  0.4806  0.3436  0.1560
  135OSM   H15F14738   2.704   2.180   4.622 -0.4370  1.0898  0.2987
  135OSM   H15G14739   2.692   2.284   4.484 -3.1712  1.1168  1.9183
  135OSM   C16F14740   2.808   2.098   4.452 -0.4005  0.4027  0.1237
  135OSM   H16F14741   2.780   1.990   4.457  0.5165  0.0943 -1.0676
  135OSM   H16G14742   2.903   2.114   4.507  0.6767  1.1309 -1.8970
  135OSM   C17F14743   2.828   2.139   4.302 -0.2640 -0.2295 -0.1253
  135OSM   H17F14744   2.852   2.247   4.296  0.2703 -0.2160  1.7205
  135OSM   H17G14745   2.728   2.128   4.257 -1.2630  1.1127  1.6547
  135OSM   C18F14746   2.940   2.067   4.230 -0.2468 -0.3028 -0.1952
  135OSM   H18F14747   3.039   2.082   4.278  0.8566 -1.7341 -1.9412
  135OSM   H18G14748   2.959   2.097   4.125 -1.1246 -0.6872 -0.4640
  135OSM   H18H14749   2.922   1.958   4.212 -1.3951  0.0392 -1.1715
  136OSM      N14750   6.491   3.956   6.512 -0.7452  0.3753 -0.2894
  136OSM    C1514751   6.349   3.948   6.575 -0.5159 -0.2487  0.1160
  136OSM   H15A14752   6.309   4.043   6.606 -2.3020 -1.4487  1.6617
  136OSM   H15B14753   6.358   3.886   6.663 -0.2256 -0.3197  0.0368
  136OSM   H15C14754   6.280   3.900   6.506  0.1665 -1.5329  0.3023
  136OSM    C1414755   6.577   4.058   6.592  0.1213  0.3403  0.2499
  136OSM   H14A14756   6.541   4.156   6.564 -1.4173 -0.2824 -0.0113
  136OSM   H14B14757   6.682   4.058   6.566 -0.2389  1.4436 -1.3119
  136OSM   H14C14758   6.575   4.032   6.696  1.7866 -0.2224  0.1491
  136OSM    C1314759   6.555   3.824   6.510 -0.7605  0.2783 -0.0505
  136OSM   H13A14760   6.651   3.822   6.459 -0.9564 -0.4643 -0.4033
  136OSM   H13B14761   6.504   3.743   6.461  3.4416 -0.6816 -3.1724
  136OSM   H13C14762   6.569   3.779   6.607  1.0718 -1.4717 -1.0704
  136OSM    C1214763   6.488   3.996   6.367 -0.4471 -0.2207 -0.3231
  136OSM   H12A14764   6.586   4.012   6.325 -1.3142  1.2566 -1.8442
  136OSM   H12B14765   6.439   4.092   6.363 -1.3387 -0.4550  3.0012
  136OSM    C1114766   6.417   3.901   6.274  0.1436  0.2802 -0.5309
  136OSM   H11A14767   6.443   3.796   6.299 -0.3854  0.1504 -0.5125
  136OSM   H11B14768   6.430   3.931   6.168  1.9118  0.0517 -0.3971
  136OSM      P14769   6.183   4.024   6.246  0.0783  0.0367 -0.3862
  136OSM    O1314770   6.047   3.983   6.295 -0.2050 -0.2427  0.8233
  136OSM    O1414771   6.235   4.152   6.299 -0.1140  0.2595  0.1770
  136OSM    O1114772   6.186   4.028   6.086 -0.6167  0.4812 -0.0596
  136OSM    O1214773   6.279   3.910   6.297  0.2625  0.0865 -0.0943
  136OSM    C1S14774   6.261   4.122   6.010 -0.1969 -0.7042 -0.4116
  136OSM    H1S14775   6.367   4.119   6.040 -0.9241  0.8509  2.5046
  136OSM    H1T14776   6.231   4.225   6.042  0.7971  0.4064 -2.9155
  136OSM     NF14777   6.298   4.239   5.794 -0.2273  0.8198  0.1034
  136OSM    HNF14778   6.249   4.323   5.776  0.4920  1.6931  2.1412
  136OSM    C2S14779   6.232   4.120   5.851 -0.8039  0.9747  0.5323
  136OSM    H2S14780   6.276   4.027   5.809 -2.8082  0.5352 -0.6416
  136OSM    C3S14781   6.077   4.111   5.827 -1.0084  0.7565  0.2607
  136OSM    H3S14782   6.032   4.195   5.884 -0.6562  0.1257  1.4927
  136OSM     O314783   6.020   3.995   5.880 -0.1075  0.5548 -0.6597
  136OSM    HO314784   6.078   3.961   5.948 -1.2180 -0.0528  0.0139
  136OSM    C4S14785   6.054   4.126   5.685 -1.1180  0.6782  0.2629
  136OSM    H4S14786   6.037   4.230   5.654 -1.0842 -0.2185 -2.9571
  136OSM    C5S14787   6.044   4.028   5.593 -0.5701  0.5248 -0.4751
  136OSM    H5S14788   6.053   3.920   5.615 -0.9882  0.3925 -0.9239
  136OSM    C6S14789   6.009   4.063   5.451  0.8600  1.0883  0.2651
  136OSM    H6S14790   5.901   4.075   5.427  0.3001 -2.3425  0.7857
  136OSM    H6T14791   6.046   3.975   5.394 -1.9957 -1.6870  2.5536
  136OSM    C7S14792   6.084   4.194   5.395 -0.3802  0.2014 -0.2330
  136OSM    H7S14793   6.193   4.183   5.407 -0.4707  0.4569  0.8656
  136OSM    H7T14794   6.059   4.278   5.463  0.2315 -1.3653  1.9927
  136OSM    C8S14795   6.054   4.216   5.249  0.8901 -1.0732 -0.9085
  136OSM    H8S14796   6.119   4.302   5.220 -0.5416  0.1534 -0.5205
  136OSM    H8T14797   5.947   4.237   5.230  1.5184  1.9401 -1.3890
  136OSM    C9S14798   6.095   4.105   5.153  0.2288  1.1108 -0.1338
  136OSM    H9S14799   6.038   4.012   5.173  0.7478  0.6280 -0.9065
  136OSM    H9T14800   6.203   4.084   5.170 -0.4311 -0.9874  1.7806
  136OSM   C10S14801   6.085   4.151   5.006  0.5638 -0.6744 -0.6128
  136OSM   H10S14802   6.148   4.240   4.986 -0.6734  0.5083  0.6837
  136OSM   H10T14803   5.988   4.203   4.994  0.8443 -0.2255 -0.9337
  136OSM   C11S14804   6.097   4.046   4.897  0.3016 -0.4598  0.0773
  136OSM   H11S14805   6.012   3.975   4.908  0.8952 -1.3784 -1.1502
  136OSM   H11T14806   6.189   3.985   4.912  0.8684  0.3931  0.1124
  136OSM   C12S14807   6.109   4.099   4.745  0.3898 -0.0292 -0.3561
  136OSM   H12S14808   6.214   4.134   4.739 -0.0301  1.8930  2.6432
  136OSM   H12T14809   6.042   4.185   4.721 -0.5172 -0.3015  1.1072
  136OSM   C13S14810   6.092   3.987   4.636  0.4492  0.4322  0.1740
  136OSM   H13S14811   5.986   3.955   4.645  0.1119  1.7599  0.9303
  136OSM   H13T14812   6.153   3.895   4.650 -1.9669 -1.5424 -1.6513
  136OSM   C14S14813   6.114   4.032   4.488 -0.2685 -0.1530 -0.7779
  136OSM   H14S14814   6.224   4.024   4.474  0.0021  0.8552  0.6291
  136OSM   H14T14815   6.066   4.130   4.470  0.7665  0.2521 -1.4162
  136OSM   C15S14816   6.061   3.928   4.387 -0.7305 -0.4197  1.1382
  136OSM   H15S14817   5.959   3.899   4.420 -0.3441  0.2226  2.9472
  136OSM   H15T14818   6.119   3.833   4.388 -0.8842 -0.5239  0.2853
  136OSM   C16S14819   6.067   3.978   4.245  0.5569  0.8315  0.2722
  136OSM   H16S14820   6.163   4.028   4.223  0.0212  1.7008 -0.1054
  136OSM   H16T14821   6.000   4.065   4.232  1.9166  1.8037 -0.3261
  136OSM   C17S14822   6.032   3.862   4.141 -0.0653 -0.0671 -0.5268
  136OSM   H17S14823   5.931   3.819   4.158 -0.3418  0.8853  0.2929
  136OSM   H17T14824   6.114   3.787   4.147  0.1690  0.1833 -0.5608
  136OSM   C18S14825   6.039   3.923   4.003 -0.6937 -0.7381  0.7114
  136OSM   H18S14826   5.983   4.018   3.988 -1.6378 -1.2853  0.7356
  136OSM   H18T14827   6.001   3.858   3.922  2.4687 -0.3902 -1.1207
  136OSM   H18U14828   6.146   3.943   3.978 -0.8868  1.2931  1.3748
  136OSM    C1F14829   6.427   4.247   5.790 -0.8401 -0.1492  0.2026
  136OSM     OF14830   6.502   4.162   5.832 -0.2296  0.1096 -1.0295
  136OSM    C2F14831   6.481   4.373   5.721  0.2219 -0.2792  0.3401
  136OSM    H2F14832   6.513   4.444   5.800 -3.4050  0.5341  1.1933
  136OSM    H2G14833   6.405   4.426   5.659  0.6824  0.1729  0.1641
  136OSM    C3F14834   6.601   4.341   5.629  0.8930  0.8174 -0.4507
  136OSM    H3F14835   6.683   4.288   5.682  1.6534  1.5991 -0.8411
  136OSM    H3G14836   6.659   4.432   5.604 -0.1983  1.3226 -1.1573
  136OSM    C4F14837   6.570   4.262   5.500 -0.2146 -0.4428  0.0089
  136OSM    H4F14838   6.515   4.168   5.521 -1.0109  0.5008  2.3242
  136OSM    H4G14839   6.665   4.236   5.447  0.7548  1.9058  0.5362
  136OSM    C5F14840   6.487   4.354   5.410 -0.0834  0.4821 -0.2391
  136OSM    H5F14841   6.548   4.444   5.391  3.4031 -1.7473  0.0959
  136OSM    H5G14842   6.390   4.385   5.455  0.6328  0.6251  1.2368
  136OSM    C6F14843   6.457   4.287   5.273 -0.2865  0.6235 -0.7010
  136OSM    H6F14844   6.373   4.338   5.222 -1.1194 -0.9125 -0.8646
  136OSM    H6G14845   6.436   4.185   5.309  0.7264  1.1359  1.4428
  136OSM    C7F14846   6.577   4.295   5.181  0.6861  0.3068  0.2561
  136OSM    H7F14847   6.663   4.338   5.236  0.5721 -1.7918  2.1544
  136OSM    H7G14848   6.557   4.355   5.090 -0.1738 -0.7836 -0.3013
  136OSM    C8F14849   6.613   4.153   5.133  0.8510  0.0705 -0.0157
  136OSM    H8F14850   6.639   4.100   5.227  0.7296 -0.2580 -0.1648
  136OSM    H8G14851   6.708   4.152   5.077 -0.0060  1.4657 -1.5373
  136OSM    C9F14852   6.511   4.080   5.046 -1.0963 -1.0079  0.0315
  136OSM    H9F14853   6.423   4.032   5.092  0.3970 -1.4500  2.4851
  136OSM   C10F14854   6.517   4.055   4.917  0.0382  0.1247 -0.1822
  136OSM   H10F14855   6.439   3.995   4.868 -1.6176  2.3678 -0.3350
  136OSM   C11F14856   6.642   4.090   4.837  0.6260  0.5285 -0.2483
  136OSM   H11F14857   6.706   4.003   4.812 -0.1541  0.2127 -1.1462
  136OSM   H11G14858   6.713   4.159   4.888  2.1091 -0.6080 -0.7553
  136OSM   C12F14859   6.601   4.158   4.707 -0.8765 -0.4417 -0.4523
  136OSM   H12F14860   6.693   4.213   4.675  0.6792 -2.0683  1.1041
  136OSM   H12G14861   6.525   4.238   4.719 -0.0379  0.7645 -2.8957
  136OSM   C13F14862   6.543   4.072   4.606  0.1188  0.5021  0.4959
  136OSM   H13F14863   6.454   4.023   4.651  0.7312 -4.0329 -2.8416
  136OSM   H13G14864   6.605   3.984   4.576  1.5812  2.1882 -1.5466
  136OSM   C14F14865   6.486   4.145   4.482 -0.2065 -0.3640 -0.3156
  136OSM   H14F14866   6.408   4.212   4.525 -0.6512 -0.0319 -1.6122
  136OSM   H14G14867   6.447   4.068   4.412  0.0566  0.3265 -1.2302
  136OSM   C15F14868   6.602   4.218   4.399 -0.6842 -0.1462  0.3181
  136OSM   H15F14869   6.653   4.137   4.343 -0.1710  0.4443 -0.0766
  136OSM   H15G14870   6.664   4.284   4.463 -2.5129  1.0231  0.9239
  136OSM   C16F14871   6.561   4.301   4.279 -0.6997 -0.5045  0.8566
  136OSM   H16F14872   6.494   4.387   4.300  0.8764  0.3181  2.6797
  136OSM   H16G14873   6.506   4.233   4.210 -1.8427 -0.7121  1.9590
  136OSM   C17F14874   6.681   4.366   4.210  0.0458  1.1657  0.5538
  136OSM   H17F14875   6.765   4.299   4.180 -0.6396 -1.3267  3.8049
  136OSM   H17G14876   6.724   4.437   4.284 -0.2971 -0.1718  2.0852
  136OSM   C18F14877   6.616   4.441   4.095 -0.8500 -0.2134 -0.5023
  136OSM   H18F14878   6.511   4.472   4.111 -0.1060  1.5042  1.1808
  136OSM   H18G14879   6.636   4.381   4.003  2.1388  1.0736 -0.7609
  136OSM   H18H14880   6.675   4.532   4.068 -1.8642  1.1547  1.8001
  137OSM      N14881   2.565   1.364   5.985  0.4417  0.2742 -0.1351
  137OSM    C1514882   2.637   1.336   5.857 -0.9983 -0.2207 -0.3370
  137OSM   H15A14883   2.600   1.249   5.805  0.0295 -1.9633  1.7904
  137OSM   H15B14884   2.741   1.320   5.878 -0.2007  0.9952 -3.1180
  137OSM   H15C14885   2.635   1.424   5.793 -0.2526  0.4775  0.5864
  137OSM    C1414886   2.425   1.409   5.939  0.1240  0.0717  0.6068
  137OSM   H14A14887   2.406   1.341   5.858  0.2030 -0.7232  1.2469
  137OSM   H14B14888   2.425   1.511   5.902 -0.3474 -0.5863 -1.2468
  137OSM   H14C14889   2.362   1.397   6.026  0.1513  0.0839  0.6277
  137OSM    C1314890   2.557   1.241   6.073 -0.3254  0.0693 -0.5147
  137OSM   H13A14891   2.525   1.158   6.012  0.3390 -2.1155  2.0313
  137OSM   H13B14892   2.485   1.254   6.152 -0.9807 -0.6552 -0.9848
  137OSM   H13C14893   2.652   1.225   6.122 -0.6605  1.6914  0.7133
  137OSM    C1214894   2.627   1.485   6.055 -0.6616  0.1955  0.0146
  137OSM   H12A14895   2.631   1.573   5.993 -0.8897 -1.5979 -2.6571
  137OSM   H12B14896   2.729   1.457   6.079 -1.3714 -2.9701 -0.4050
  137OSM    C1114897   2.564   1.529   6.192 -0.2966 -0.1727 -0.0475
  137OSM   H11A14898   2.563   1.439   6.257  0.2082 -1.8114 -2.2440
  137OSM   H11B14899   2.459   1.558   6.173 -0.8983 -1.2851  1.5038
  137OSM      P14900   2.598   1.750   6.332 -0.0159  0.1061  0.0201
  137OSM    O1314901   2.553   1.680   6.453  0.2231 -0.3548 -0.0705
  137OSM    O1414902   2.705   1.853   6.340  0.0353  0.0788 -0.0017
  137OSM    O1114903   2.475   1.816   6.261  1.0275  0.0268  0.0484
  137OSM    O1214904   2.646   1.639   6.237  0.2458  0.3295  0.0472
  137OSM    C1S14905   2.488   1.878   6.130  0.0017 -0.3948  0.7977
  137OSM    H1S14906   2.584   1.857   6.080  0.3465  0.1408  1.2260
  137OSM    H1T14907   2.484   1.989   6.137 -3.2153 -0.2615 -2.1127
  137OSM     NF14908   2.396   1.888   5.903  0.3705  0.0608  0.2711
  137OSM    HNF14909   2.365   1.978   5.875  2.3682  0.1924 -1.6404
  137OSM    C2S14910   2.365   1.844   6.040 -0.3248  0.1822 -0.4907
  137OSM    H2S14911   2.350   1.735   6.027  1.3879  0.0844 -1.8845
  137OSM    C3S14912   2.241   1.906   6.104  0.3471  0.4218  0.6048
  137OSM    H3S14913   2.247   2.016   6.091  1.9581  0.2405 -0.2836
  137OSM     O314914   2.219   1.881   6.241 -0.0462 -0.1081  0.2632
  137OSM    HO314915   2.306   1.870   6.281  0.4561  1.7493 -0.3043
  137OSM    C4S14916   2.121   1.874   6.012 -0.4866 -0.3064 -1.0940
  137OSM    H4S14917   2.115   1.944   5.927 -1.1753  1.3436  0.2961
  137OSM    C5S14918   2.028   1.773   6.025 -0.0951 -0.6649  0.2819
  137OSM    H5S14919   2.032   1.707   6.112  1.7429 -1.0662 -0.0812
  137OSM    C6S14920   1.924   1.752   5.914  0.6315  0.1750 -0.2936
  137OSM    H6S14921   1.824   1.800   5.927  1.2658  1.4560 -0.0337
  137OSM    H6T14922   1.899   1.645   5.900  0.8351 -0.0917  1.2797
  137OSM    C7S14923   1.946   1.806   5.775 -0.1448 -0.2320  0.2038
  137OSM    H7S14924   2.035   1.765   5.724  0.5783 -1.2323  2.2031
  137OSM    H7T14925   1.962   1.916   5.784 -2.5145  0.1261  0.2652
  137OSM    C8S14926   1.829   1.784   5.672  0.0045  0.5145 -0.0860
  137OSM    H8S14927   1.732   1.823   5.709 -1.0256 -1.1018 -1.0640
  137OSM    H8T14928   1.805   1.677   5.653  1.5614 -0.4094  2.7688
  137OSM    C9S14929   1.851   1.861   5.543  0.1057 -0.0336 -0.0322
  137OSM    H9S14930   1.878   1.969   5.556 -0.1629  0.4744 -3.2737
  137OSM    H9T14931   1.756   1.850   5.487  2.0870 -0.7644 -3.4200
  137OSM   C10S14932   1.967   1.794   5.468 -0.4262 -0.0134  0.3370
  137OSM   H10S14933   1.932   1.689   5.454 -1.3057  0.2722  0.3702
  137OSM   H10T14934   2.060   1.804   5.527 -1.1345  0.2037  1.4298
  137OSM   C11S14935   2.002   1.864   5.334  0.2878 -0.5929 -0.5301
  137OSM   H11S14936   2.107   1.834   5.309  1.5483  2.1650  1.2081
  137OSM   H11T14937   2.011   1.973   5.349  3.5272 -0.6656 -1.4514
  137OSM   C12S14938   1.905   1.833   5.218 -0.5526  0.3886 -0.5943
  137OSM   H12S14939   1.801   1.857   5.248 -1.1463 -1.3740 -1.1662
  137OSM   H12T14940   1.896   1.725   5.193 -0.8620 -0.0363  1.2374
  137OSM   C13S14941   1.935   1.912   5.086  0.4544 -0.9350  0.1784
  137OSM   H13S14942   2.040   1.894   5.056  0.9737  2.4302 -0.2228
  137OSM   H13T14943   1.915   2.020   5.107  1.7200 -0.3340 -1.6455
  137OSM   C14S14944   1.845   1.860   4.968 -0.9232 -0.3358  0.0449
  137OSM   H14S14945   1.821   1.955   4.916  1.4000  1.3849  1.9663
  137OSM   H14T14946   1.741   1.834   4.997 -0.6996 -2.3062 -0.8813
  137OSM   C15S14947   1.922   1.779   4.867 -0.5920 -0.4520 -0.1308
  137OSM   H15S14948   1.965   1.687   4.911  1.5403 -0.2793 -1.7693
  137OSM   H15T14949   2.014   1.830   4.832  1.2430 -1.6987  2.7178
  137OSM   C16S14950   1.834   1.739   4.749 -0.3812 -0.0124  0.0135
  137OSM   H16S14951   1.778   1.829   4.716 -1.0374 -0.1513  0.7350
  137OSM   H16T14952   1.758   1.663   4.775 -1.8632  1.5385  0.2679
  137OSM   C17S14953   1.919   1.673   4.644  0.0327 -0.1921 -0.3949
  137OSM   H17S14954   1.940   1.575   4.692  1.4042  1.2941  2.1551
  137OSM   H17T14955   2.003   1.739   4.616  0.8906 -1.1181 -0.0564
  137OSM   C18S14956   1.836   1.657   4.516  0.2365 -0.1002 -0.3121
  137OSM   H18S14957   1.905   1.630   4.433  0.9428  1.9359 -0.4121
  137OSM   H18T14958   1.795   1.758   4.496  1.9649  0.8760  0.9491
  137OSM   H18U14959   1.747   1.591   4.520  2.7325 -3.6217  0.1291
  137OSM    C1F14960   2.482   1.821   5.826  0.2718  0.8282  0.2811
  137OSM     OF14961   2.518   1.704   5.842 -0.5969  0.7035  0.3676
  137OSM    C2F14962   2.539   1.902   5.710  0.3093 -0.2233 -0.3175
  137OSM    H2F14963   2.563   1.837   5.623 -0.6640  2.7308 -2.8826
  137OSM    H2G14964   2.628   1.956   5.750  0.0483  0.3790 -0.5447
  137OSM    C3F14965   2.453   2.019   5.656  0.1746 -0.6918  0.2901
  137OSM    H3F14966   2.507   2.081   5.582 -0.7265  0.3959  0.5426
  137OSM    H3G14967   2.429   2.087   5.740 -0.9498  1.7196 -1.9181
  137OSM    C4F14968   2.336   1.968   5.578  0.1991 -0.5342 -0.1251
  137OSM    H4F14969   2.265   1.909   5.640 -1.9729  1.0108 -1.0801
  137OSM    H4G14970   2.368   1.890   5.506 -0.1317 -0.1985 -0.6328
  137OSM    C5F14971   2.254   2.075   5.499 -0.2916 -0.2562 -0.3917
  137OSM    H5F14972   2.207   2.046   5.403 -0.3408  0.7811 -0.6876
  137OSM    H5G14973   2.327   2.157   5.480 -0.6258 -0.2373 -1.6162
  137OSM    C6F14974   2.139   2.123   5.582  0.0328 -0.2790  0.3039
  137OSM    H6F14975   2.174   2.156   5.682  0.6009  0.8603 -0.2582
  137OSM    H6G14976   2.071   2.036   5.590 -0.4659 -0.4164 -4.1658
  137OSM    C7F14977   2.080   2.249   5.511  0.2091  0.8258 -0.2767
  137OSM    H7F14978   2.016   2.197   5.436  2.3560 -3.7714  0.8726
  137OSM    H7G14979   2.159   2.298   5.451  0.8262 -0.2122 -0.3386
  137OSM    C8F14980   2.004   2.346   5.603 -0.0252 -0.3352  0.4993
  137OSM    H8F14981   2.082   2.419   5.633  1.3649 -1.3837 -0.5390
  137OSM    H8G14982   1.969   2.292   5.694  0.6034 -0.4923  0.6488
  137OSM    C9F14983   1.887   2.429   5.550  0.0830 -0.3581  0.1415
  137OSM    H9F14984   1.794   2.374   5.572  1.5542 -2.9673  0.0238
  137OSM   C10F14985   1.882   2.545   5.488  0.2594 -0.7714  0.8106
  137OSM   H10F14986   1.785   2.588   5.458  0.3916 -0.1652  1.2495
  137OSM   C11F14987   1.998   2.643   5.454 -0.4817 -0.0369 -0.7990
  137OSM   H11F14988   2.085   2.609   5.514 -0.5844  1.4067  0.1836
  137OSM   H11G14989   1.961   2.743   5.484  1.1176  0.2356  0.2800
  137OSM   C12F14990   2.036   2.650   5.304 -0.1391  0.5467  0.6062
  137OSM   H12F14991   1.949   2.685   5.244  0.7142  1.8918  0.1352
  137OSM   H12G14992   2.067   2.554   5.259  0.8831  1.6018 -0.9706
  137OSM   C13F14993   2.139   2.758   5.280  0.0500 -0.2976  0.1669
  137OSM   H13F14994   2.231   2.717   5.325 -1.0053  0.1559  2.8374
  137OSM   H13G14995   2.125   2.850   5.341 -0.3778  1.0161 -1.8324
  137OSM   C14F14996   2.150   2.793   5.130  0.0593  0.6142  0.0004
  137OSM   H14F14997   2.047   2.824   5.103 -0.0784  0.1213 -0.0357
  137OSM   H14G14998   2.181   2.706   5.069 -0.0731 -0.5805  1.6111
  137OSM   C15F14999   2.241   2.910   5.127 -1.0045  0.1016 -0.4950
  137OSM   H15F15000   2.327   2.872   5.187  0.2543  0.4831 -2.0206
  137OSM   H15G15001   2.197   2.997   5.179 -2.0396 -1.1858  0.7919
  137OSM   C16F15002   2.294   2.960   4.989  0.2777 -0.6079 -0.0704
  137OSM   H16F15003   2.364   2.882   4.952 -0.3500 -1.0480 -0.3277
  137OSM   H16G15004   2.337   3.060   5.009 -0.6908  0.1084 -1.5606
  137OSM   C17F15005   2.184   2.988   4.888  0.0928  0.4555  0.6846
  137OSM   H17F15006   2.125   3.072   4.931 -1.7369 -0.6333  0.3613
  137OSM   H17G15007   2.115   2.901   4.881 -0.1145  0.0961  5.3022
  137OSM   C18F15008   2.247   3.027   4.747  0.4072  0.5940 -0.3129
  137OSM   H18F15009   2.317   2.946   4.716 -0.7322  0.0666 -1.5363
  137OSM   H18G15010   2.316   3.113   4.759 -0.8149  1.6510 -0.7420
  137OSM   H18H15011   2.170   3.043   4.669 -0.9375  2.9536  1.4178
  138OSM      N15012   6.319   2.557   6.494  0.0315 -0.7232  0.4628
  138OSM    C1515013   6.264   2.418   6.520 -0.1382  0.2939  0.6948
  138OSM   H15A15014   6.341   2.351   6.553 -0.7466  0.2289  1.9802
  138OSM   H15B15015   6.232   2.385   6.422 -1.0117 -1.7910  1.6591
  138OSM   H15C15016   6.183   2.417   6.591 -1.5997 -1.3459 -0.9701
  138OSM    C1415017   6.344   2.625   6.623 -0.5040 -0.5660 -0.4323
  138OSM   H14A15018   6.394   2.556   6.690  0.4155  0.3285 -0.1803
  138OSM   H14B15019   6.249   2.661   6.662 -0.4071 -0.9835  0.2057
  138OSM   H14C15020   6.406   2.714   6.620 -0.7885 -0.3181  0.5698
  138OSM    C1315021   6.447   2.547   6.423 -0.1380 -0.4461 -0.9372
  138OSM   H13A15022   6.436   2.509   6.323  3.0005 -0.9192 -1.1735
  138OSM   H13B15023   6.510   2.478   6.479 -1.0140 -0.9916 -0.6152
  138OSM   H13C15024   6.488   2.647   6.427  0.1874 -0.6342  1.3008
  138OSM    C1215025   6.219   2.643   6.414 -0.9902 -0.9656  0.2208
  138OSM   H12A15026   6.246   2.746   6.429 -0.2266 -1.1779  0.3273
  138OSM   H12B15027   6.122   2.638   6.461 -2.1779  2.1672 -1.7530
  138OSM    C1115028   6.202   2.612   6.257  0.3600 -0.1480  0.4151
  138OSM   H11A15029   6.289   2.650   6.200  1.7042 -1.1635  1.7444
  138OSM   H11B15030   6.115   2.673   6.226  1.6121  1.5623  0.1418
  138OSM      P15031   6.256   2.385   6.143  0.0622  0.3345  0.4004
  138OSM    O1315032   6.399   2.406   6.155 -0.0676  0.3173  0.2585
  138OSM    O1415033   6.207   2.249   6.174  0.4334  0.3309 -0.1014
  138OSM    O1115034   6.218   2.427   5.991 -0.8089  0.2640 -0.5262
  138OSM    O1215035   6.165   2.480   6.230 -0.3773 -0.4612  0.1457
  138OSM    C1S15036   6.097   2.496   5.955 -0.5336  0.2873  0.1120
  138OSM    H1S15037   6.113   2.604   5.975  1.6665  0.4017 -2.0758
  138OSM    H1T15038   6.000   2.462   5.998 -0.2361 -0.5185  0.1517
  138OSM     NF15039   5.979   2.554   5.737  0.0005 -0.2501 -0.3344
  138OSM    HNF15040   5.899   2.502   5.709 -2.1158  2.4487  0.5341
  138OSM    C2S15041   6.074   2.468   5.807 -1.0585  0.9421  0.1079
  138OSM    H2S15042   6.169   2.482   5.750  0.6298  1.2949  2.9388
  138OSM    C3S15043   6.041   2.317   5.790 -0.2716 -0.7720 -0.3811
  138OSM    H3S15044   5.956   2.289   5.856  0.9630 -0.7704  1.2454
  138OSM     O315045   6.146   2.226   5.829  0.2016  0.0342  0.2180
  138OSM    HO315046   6.200   2.288   5.879 -1.1020  2.0759 -0.8041
  138OSM    C4S15047   6.001   2.282   5.647  0.1739 -0.0673 -0.2866
  138OSM    H4S15048   6.071   2.282   5.563  0.2831 -0.4583 -0.2003
  138OSM    C5S15049   5.877   2.248   5.610 -0.2730 -0.2234  0.1542
  138OSM    H5S15050   5.797   2.249   5.685 -0.8316  0.2011 -0.4462
  138OSM    C6S15051   5.850   2.210   5.468  0.2190 -0.8691  0.8581
  138OSM    H6S15052   5.915   2.267   5.398 -1.2255  2.7279  2.3120
  138OSM    H6T15053   5.748   2.250   5.452  1.7581  2.6583 -0.9382
  138OSM    C7S15054   5.850   2.067   5.443  0.0656 -0.0229  0.1640
  138OSM    H7S15055   5.789   2.013   5.519 -1.6271 -0.2818 -1.3550
  138OSM    H7T15056   5.955   2.033   5.454 -0.6292 -1.8861  1.2911
  138OSM    C8S15057   5.797   2.023   5.312  0.2942 -0.5096  0.2082
  138OSM    H8S15058   5.826   2.102   5.239  0.0705 -0.6383 -0.0188
  138OSM    H8T15059   5.686   2.030   5.317  0.5174  4.2752  1.6384
  138OSM    C9S15060   5.843   1.885   5.269 -0.2421 -0.2935  0.1392
  138OSM    H9S15061   5.791   1.805   5.326  1.7074 -1.5904  0.1392
  138OSM    H9T15062   5.949   1.880   5.300 -0.0476  0.0653 -0.4564
  138OSM   C10S15063   5.842   1.868   5.118  0.7645  0.1304 -0.0766
  138OSM   H10S15064   5.896   1.780   5.079 -0.3152 -0.6594  0.1954
  138OSM   H10T15065   5.885   1.962   5.075 -0.9229  1.0694  0.2334
  138OSM   C11S15066   5.707   1.883   5.059 -0.2597  0.0190  0.0536
  138OSM   H11S15067   5.643   1.960   5.107  1.4525  0.8649  1.0076
  138OSM   H11T15068   5.655   1.787   5.080  0.0772 -0.1826 -0.0272
  138OSM   C12S15069   5.699   1.899   4.909  1.0184  0.3316 -0.5953
  138OSM   H12S15070   5.746   1.998   4.890  0.4413  0.7642  0.1892
  138OSM   H12T15071   5.593   1.891   4.878  0.7773  2.6954 -0.5218
  138OSM   C13S15072   5.787   1.797   4.834 -0.6853  0.0754 -0.3412
  138OSM   H13S15073   5.776   1.690   4.861 -0.7500  0.3338  0.6821
  138OSM   H13T15074   5.895   1.802   4.860 -0.7656 -0.2077  0.0501
  138OSM   C14S15075   5.761   1.813   4.682 -0.0873 -0.2255 -0.7800
  138OSM   H14S15076   5.836   1.885   4.644 -0.1211  1.0984  1.5913
  138OSM   H14T15077   5.658   1.852   4.669  0.5267  1.5041 -0.5295
  138OSM   C15S15078   5.791   1.677   4.607 -0.8369  0.5479  0.0903
  138OSM   H15S15079   5.761   1.694   4.501 -1.2914 -0.0807  0.1219
  138OSM   H15T15080   5.723   1.602   4.651  1.2385 -1.1656  0.4456
  138OSM   C16S15081   5.934   1.643   4.623 -0.4815  0.0667 -0.3023
  138OSM   H16S15082   5.962   1.620   4.728 -0.2922 -0.7723 -0.5296
  138OSM   H16T15083   5.994   1.722   4.572  0.4219 -1.1499 -1.1531
  138OSM   C17S15084   5.968   1.518   4.546 -0.3803 -0.0345 -0.2256
  138OSM   H17S15085   5.931   1.521   4.441 -1.0917 -1.5254 -0.0259
  138OSM   H17T15086   5.922   1.432   4.600 -0.5873  1.5401  2.1959
  138OSM   C18S15087   6.123   1.503   4.539 -0.4109  0.1383 -0.1096
  138OSM   H18S15088   6.180   1.542   4.625  0.5172 -2.8205  0.6659
  138OSM   H18T15089   6.164   1.564   4.455  1.4750  0.2459  0.8617
  138OSM   H18U15090   6.144   1.396   4.521 -1.7980 -0.1872  0.1340
  138OSM    C1F15091   5.980   2.686   5.736  0.3676  0.1602  0.5456
  138OSM     OF15092   6.062   2.749   5.796 -0.2771 -0.4105  0.8703
  138OSM    C2F15093   5.867   2.754   5.666  0.8609  0.5097  0.4077
  138OSM    H2F15094   5.808   2.802   5.747 -1.2232  0.7791 -1.2230
  138OSM    H2G15095   5.800   2.677   5.624  1.1108  0.6397 -0.2322
  138OSM    C3F15096   5.916   2.859   5.561 -0.1498 -0.2453  0.7772
  138OSM    H3F15097   5.998   2.820   5.497  0.4630  2.0210  0.1458
  138OSM    H3G15098   5.965   2.948   5.605 -0.9745  1.1666 -1.1153
  138OSM    C4F15099   5.806   2.905   5.473 -0.1460 -0.2187  0.0961
  138OSM    H4F15100   5.829   3.013   5.462 -0.5207  0.2243  3.2098
  138OSM    H4G15101   5.715   2.894   5.536 -0.1190 -2.7278 -0.2547
  138OSM    C5F15102   5.817   2.838   5.334 -0.1963 -0.0953 -0.2975
  138OSM    H5F15103   5.916   2.861   5.290  0.2537  0.3471  0.9304
  138OSM    H5G15104   5.730   2.884   5.282 -0.7425  1.6450  2.0645
  138OSM    C6F15105   5.801   2.684   5.334  0.7316  0.1944  0.4122
  138OSM    H6F15106   5.709   2.667   5.394  0.4477  0.1527 -0.0379
  138OSM    H6G15107   5.883   2.632   5.387  0.6350  2.1273  2.5697
  138OSM    C7F15108   5.757   2.608   5.209  0.6775 -0.2781  0.3299
  138OSM    H7F15109   5.655   2.649   5.191  1.5097  1.1227 -1.2731
  138OSM    H7G15110   5.752   2.497   5.214 -2.3547 -0.1735  0.5487
  138OSM    C8F15111   5.845   2.644   5.091  0.3256 -0.1250  0.7905
  138OSM    H8F15112   5.830   2.749   5.059  0.0239 -0.3770  0.0866
  138OSM    H8G15113   5.820   2.582   5.002  0.5948 -2.7737  2.5025
  138OSM    C9F15114   5.992   2.621   5.110  0.0518  0.0307 -0.8136
  138OSM    H9F15115   6.060   2.707   5.122 -2.6508  2.0855  0.3559
  138OSM   C10F15116   6.050   2.501   5.123  0.1849 -0.1779  0.2703
  138OSM   H10F15117   6.159   2.494   5.139  0.0649  1.2734  1.8932
  138OSM   C11F15118   5.984   2.364   5.122  0.1943  0.8949 -1.1100
  138OSM   H11F15119   5.877   2.373   5.150  0.5892  1.2211  0.3089
  138OSM   H11G15120   6.023   2.295   5.200 -1.7758  0.2559 -0.6497
  138OSM   C12F15121   5.977   2.308   4.975 -0.2273 -0.1006  0.0902
  138OSM   H12F15122   5.951   2.388   4.903  0.3628  0.4481  0.4794
  138OSM   H12G15123   5.906   2.222   4.972 -0.3932  0.0175  0.5014
  138OSM   C13F15124   6.113   2.237   4.927 -0.2896 -0.4767 -0.3118
  138OSM   H13F15125   6.152   2.171   5.008  1.6929  1.0397  0.0067
  138OSM   H13G15126   6.190   2.317   4.925 -2.2010  1.5041  2.0224
  138OSM   C14F15127   6.090   2.162   4.797  0.1909  0.0710  1.1539
  138OSM   H14F15128   6.033   2.070   4.821  0.1461  0.0602  1.0029
  138OSM   H14G15129   6.192   2.138   4.759 -0.8648 -1.2023 -0.9149
  138OSM   C15F15130   6.025   2.239   4.677 -0.8819 -0.2547 -0.7549
  138OSM   H15F15131   6.083   2.328   4.644  0.2260 -0.1554  1.3886
  138OSM   H15G15132   5.926   2.264   4.720  0.3478 -1.0068  2.7188
  138OSM   C16F15133   6.012   2.142   4.558 -0.1526 -0.0518  0.9535
  138OSM   H16F15134   5.958   2.047   4.580  1.1421 -1.0069  0.1404
  138OSM   H16G15135   6.113   2.114   4.521 -0.2963 -1.7783  1.8117
  138OSM   C17F15136   5.929   2.203   4.442 -0.4005  0.1233  0.1319
  138OSM   H17F15137   5.985   2.289   4.400  0.2357 -0.9610 -1.2916
  138OSM   H17G15138   5.835   2.236   4.491  0.5065  0.2109  1.8374
  138OSM   C18F15139   5.901   2.107   4.327  0.2691 -0.6775  0.9613
  138OSM   H18F15140   6.000   2.063   4.304  0.5650 -0.6149  2.1015
  138OSM   H18G15141   5.861   2.151   4.233  0.2961 -1.9051  0.3549
  138OSM   H18H15142   5.828   2.031   4.361  0.7215 -0.6734  1.9551
  139OSM      N15143   6.105   5.575   6.351  0.3857 -0.7443 -0.0929
  139OSM    C1515144   5.984   5.499   6.411 -0.3035  0.0548 -0.1400
  139OSM   H15A15145   5.981   5.392   6.400 -2.4847 -0.1777  2.2807
  139OSM   H15B15146   5.894   5.548   6.377 -0.9699 -0.0249  1.4628
  139OSM   H15C15147   5.979   5.500   6.519 -1.4519  0.4188 -0.1925
  139OSM    C1415148   6.105   5.718   6.391 -0.1174  0.3646 -0.1308
  139OSM   H14A15149   6.066   5.713   6.492  0.8825 -4.5131  0.1483
  139OSM   H14B15150   6.032   5.772   6.332  0.0293  0.2239 -0.4401
  139OSM   H14C15151   6.204   5.760   6.387 -1.3013  3.4730  0.9746
  139OSM    C1315152   6.232   5.516   6.399  0.9064 -0.5093 -0.3457
  139OSM   H13A15153   6.222   5.409   6.390 -0.9329 -0.6085  2.2292
  139OSM   H13B15154   6.239   5.536   6.505 -1.3718  1.8335 -0.6050
  139OSM   H13C15155   6.319   5.558   6.351  0.5840  0.0551 -0.4360
  139OSM    C1215156   6.090   5.565   6.200  0.0005  0.1273  0.1718
  139OSM   H12A15157   6.004   5.625   6.170 -1.1171 -1.7987 -0.5893
  139OSM   H12B15158   6.066   5.465   6.167 -0.1479  0.6377 -1.3631
  139OSM    C1115159   6.208   5.609   6.108 -0.2284 -0.4167  0.0537
  139OSM   H11A15160   6.176   5.598   6.003 -1.7203 -0.8055  0.5462
  139OSM   H11B15161   6.288   5.533   6.119  1.1985  0.8836 -1.1268
  139OSM      P15162   6.415   5.760   6.127 -0.0473  0.0561 -0.3476
  139OSM    O1315163   6.448   5.896   6.078 -0.3002  0.3547  0.4065
  139OSM    O1415164   6.466   5.722   6.266 -0.0670 -0.4970  0.0741
  139OSM    O1115165   6.468   5.652   6.026  0.7738 -0.2200 -0.2730
  139OSM    O1215166   6.260   5.745   6.135 -0.0574 -0.4270 -0.8219
  139OSM    C1S15167   6.480   5.696   5.883  0.1518  0.3897  0.2086
  139OSM    H1S15168   6.562   5.770   5.873  0.0649  0.4685  0.0802
  139OSM    H1T15169   6.381   5.736   5.852 -0.4140 -0.7797  0.4680
  139OSM     NF15170   6.510   5.618   5.644 -0.1827 -0.7044 -0.3273
  139OSM    HNF15171   6.435   5.578   5.593 -1.6184 -0.7053  1.7210
  139OSM    C2S15172   6.514   5.574   5.785 -0.5758 -0.3312 -0.2126
  139OSM    H2S15173   6.618   5.539   5.802  0.0661  0.7285 -1.8516
  139OSM    C3S15174   6.427   5.451   5.831 -0.0501  0.6177 -0.2064
  139OSM    H3S15175   6.322   5.488   5.839  0.1008  1.0112 -0.0522
  139OSM     O315176   6.461   5.395   5.960  0.0717 -0.2527  0.6441
  139OSM    HO315177   6.506   5.469   6.000 -0.0172  0.6485 -0.9070
  139OSM    C4S15178   6.445   5.342   5.737  0.0172  0.7065 -0.5322
  139OSM    H4S15179   6.546   5.302   5.720  0.4442  1.2954  0.5791
  139OSM    C5S15180   6.350   5.272   5.673  0.0227  0.2523 -0.4125
  139OSM    H5S15181   6.250   5.308   5.701 -0.8586 -0.2656 -2.8205
  139OSM    C6S15182   6.357   5.162   5.572  0.1857 -0.5598 -0.0018
  139OSM    H6S15183   6.290   5.078   5.601  0.1211  0.4086  2.7939
  139OSM    H6T15184   6.459   5.118   5.567  0.8604  1.0196 -0.3293
  139OSM    C7S15185   6.313   5.211   5.434 -0.1523 -0.6715  0.7107
  139OSM    H7S15186   6.216   5.265   5.435  0.7123  0.9354  0.4016
  139OSM    H7T15187   6.302   5.121   5.369 -2.9632 -0.7538  1.2326
  139OSM    C8S15188   6.403   5.308   5.369  0.3373  0.2714  0.3323
  139OSM    H8S15189   6.492   5.254   5.330 -0.5764 -0.8156 -0.2991
  139OSM    H8T15190   6.426   5.386   5.445  1.1012  0.3664  0.0098
  139OSM    C9S15191   6.341   5.380   5.245  0.8611 -0.3135  0.8824
  139OSM    H9S15192   6.300   5.312   5.167  0.0588  1.9216 -0.6868
  139OSM    H9T15193   6.422   5.430   5.188  0.7126 -2.2613 -1.1272
  139OSM   C10S15194   6.240   5.494   5.273  0.1662 -1.0432 -0.2020
  139OSM   H10S15195   6.288   5.562   5.346  1.2842 -2.2475  0.1868
  139OSM   H10T15196   6.156   5.443   5.326  0.6761  1.0496  2.7257
  139OSM   C11S15197   6.185   5.563   5.142 -0.4748 -0.2232 -0.1969
  139OSM   H11S15198   6.088   5.615   5.159 -0.1313  0.6790 -0.9536
  139OSM   H11T15199   6.167   5.484   5.067 -1.3137 -0.5682  0.3573
  139OSM   C12S15200   6.287   5.661   5.095 -0.0988  0.0043 -0.5048
  139OSM   H12S15201   6.388   5.616   5.079  0.0443 -0.4237  1.4856
  139OSM   H12T15202   6.300   5.747   5.163 -0.0364  0.7506 -1.4508
  139OSM   C13S15203   6.240   5.725   4.964  0.0960 -0.1732 -0.0919
  139OSM   H13S15204   6.137   5.767   4.975 -0.9519 -2.6644 -0.0466
  139OSM   H13T15205   6.232   5.642   4.892  0.0555 -0.6078  0.4091
  139OSM   C14S15206   6.340   5.825   4.899 -0.2623  0.0530 -0.0226
  139OSM   H14S15207   6.336   5.815   4.788  0.6831  2.8113 -0.3572
  139OSM   H14T15208   6.443   5.794   4.926  0.0515 -0.4732 -1.7747
  139OSM   C15S15209   6.330   5.973   4.935 -1.0418  0.4304  0.5099
  139OSM   H15S15210   6.329   5.975   5.046  0.8976  0.0527  0.5604
  139OSM   H15T15211   6.232   6.015   4.905 -2.2400 -0.9450  2.4456
  139OSM   C16S15212   6.445   6.058   4.895  0.3170 -0.3651  0.8919
  139OSM   H16S15213   6.446   6.046   4.785  0.1917  1.3623  0.6796
  139OSM   H16T15214   6.541   6.015   4.929  0.6048 -2.0094 -1.8673
  139OSM   C17S15215   6.443   6.209   4.927  0.0573 -0.9212 -0.3089
  139OSM   H17S15216   6.356   6.251   4.871 -0.4072 -0.1916  0.9235
  139OSM   H17T15217   6.533   6.255   4.881  0.2993  0.4716  1.4664
  139OSM   C18S15218   6.450   6.247   5.081 -0.7987 -0.8093  0.5081
  139OSM   H18S15219   6.439   6.356   5.100  2.8405 -0.3185  0.2905
  139OSM   H18T15220   6.551   6.216   5.114  0.1864 -0.5186 -2.0990
  139OSM   H18U15221   6.377   6.194   5.145  0.1230 -1.9680  0.6125
  139OSM    C1F15222   6.562   5.725   5.595  0.2437 -0.5521 -0.3403
  139OSM     OF15223   6.670   5.766   5.645 -0.8317 -0.3343  0.2165
  139OSM    C2F15224   6.500   5.799   5.485  0.0874 -0.1023  0.5439
  139OSM    H2F15225   6.472   5.902   5.514 -0.9217  0.1262 -1.1675
  139OSM    H2G15226   6.415   5.746   5.437  0.6990 -0.0261 -0.6606
  139OSM    C3F15227   6.599   5.815   5.367 -0.3220  0.5562  0.1441
  139OSM    H3F15228   6.695   5.855   5.407  0.6341 -1.4662 -0.0561
  139OSM    H3G15229   6.555   5.894   5.303  1.4542  0.8894 -0.7043
  139OSM    C4F15230   6.618   5.689   5.285  0.5032 -0.7231 -0.4333
  139OSM    H4F15231   6.523   5.676   5.230 -0.4552 -1.3602  1.3066
  139OSM    H4G15232   6.629   5.610   5.362 -1.2181  0.2729  0.8961
  139OSM    C5F15233   6.737   5.693   5.187  0.1145  0.8721  0.3010
  139OSM    H5F15234   6.815   5.760   5.228 -1.0500  2.8016 -0.5515
  139OSM    H5G15235   6.704   5.729   5.088 -0.7625  1.9628  0.9709
  139OSM    C6F15236   6.807   5.557   5.167 -0.1245  0.4071  0.7710
  139OSM    H6F15237   6.849   5.513   5.260  0.6032  0.7588  0.6173
  139OSM    H6G15238   6.894   5.574   5.100  0.0699 -2.0226  0.3363
  139OSM    C7F15239   6.720   5.455   5.092  0.2653 -0.4785  0.5142
  139OSM    H7F15240   6.701   5.504   4.994 -0.9869 -0.9679  0.4985
  139OSM    H7G15241   6.625   5.459   5.151 -0.2864 -2.0724 -0.2492
  139OSM    C8F15242   6.783   5.326   5.071 -0.3030 -0.4888  0.1941
  139OSM    H8F15243   6.825   5.283   5.164  1.1881  2.7035  1.0615
  139OSM    H8G15244   6.879   5.346   5.017 -2.1959  1.8605 -2.4537
  139OSM    C9F15245   6.700   5.210   5.034  0.4659  0.0525  0.5284
  139OSM    H9F15246   6.608   5.206   5.094 -0.5372  0.1520 -0.9833
  139OSM   C10F15247   6.697   5.140   4.919  1.0800  0.3054 -0.0752
  139OSM   H10F15248   6.635   5.049   4.913  0.3459  0.8744 -0.9994
  139OSM   C11F15249   6.784   5.172   4.798  0.2719 -0.5043  0.3883
  139OSM   H11F15250   6.871   5.233   4.829 -1.6072  3.0356 -0.9750
  139OSM   H11G15251   6.718   5.225   4.725  0.7514  0.2311  0.4784
  139OSM   C12F15252   6.848   5.045   4.740  0.3037  1.0479 -0.4152
  139OSM   H12F15253   6.760   4.987   4.704  0.7940 -0.3684  0.6206
  139OSM   H12G15254   6.909   4.986   4.812 -0.2497  0.9215 -0.0517
  139OSM   C13F15255   6.940   5.071   4.618 -0.2455  0.3153 -0.0799
  139OSM   H13F15256   7.039   5.118   4.631  0.8778 -1.8191 -0.7527
  139OSM   H13G15257   6.888   5.145   4.552 -0.8556  1.2336  1.3927
  139OSM   C14F15258   6.958   4.942   4.543  0.1212 -0.5085 -0.0890
  139OSM   H14F15259   6.861   4.891   4.529  0.7055 -2.0068  1.2973
  139OSM   H14G15260   7.027   4.872   4.595 -2.4322 -1.5419  1.9923
  139OSM   C15F15261   7.018   4.967   4.402 -0.3754 -0.4635 -0.9525
  139OSM   H15F15262   7.123   4.997   4.421  0.2914 -2.9076 -0.5570
  139OSM   H15G15263   6.964   5.052   4.356  1.7073  2.5821  2.0044
  139OSM   C16F15264   7.043   4.851   4.306 -0.2379  0.5347  0.1549
  139OSM   H16F15265   7.076   4.760   4.360  0.9514 -0.7971 -2.6916
  139OSM   H16G15266   7.134   4.872   4.245 -1.0476  1.1087 -0.8757
  139OSM   C17F15267   6.937   4.821   4.195  0.7025 -0.6437  0.2293
  139OSM   H17F15268   6.888   4.913   4.157  0.4956 -1.0332 -0.4540
  139OSM   H17G15269   6.851   4.766   4.240  0.9635 -0.6032  0.7850
  139OSM   C18F15270   6.992   4.738   4.077  0.0355 -0.4190 -0.6742
  139OSM   H18F15271   6.981   4.630   4.104 -0.5577 -0.5495 -1.4173
  139OSM   H18G15272   7.097   4.772   4.067  0.2028 -0.3944  1.0009
  139OSM   H18H15273   6.938   4.748   3.981 -0.2568 -1.6438 -0.6539
  140OSM      N15274   1.379   1.638   6.390 -0.2100 -0.3778  0.0395
  140OSM    C1515275   1.275   1.636   6.284  0.5585 -0.2188  0.5429
  140OSM   H15A15276   1.193   1.578   6.324  1.8032 -0.8166  2.3237
  140OSM   H15B15277   1.305   1.582   6.195 -1.2306 -1.2509  0.5432
  140OSM   H15C15278   1.249   1.732   6.242 -1.2680  0.1769  2.4966
  140OSM    C1415279   1.316   1.722   6.501 -0.3525  0.0452 -0.1120
  140OSM   H14A15280   1.330   1.827   6.479  1.5140 -0.6649 -2.4750
  140OSM   H14B15281   1.369   1.717   6.595 -1.3630  1.4059  0.5501
  140OSM   H14C15282   1.215   1.698   6.533 -0.2834 -0.5858 -0.3632
  140OSM    C1315283   1.409   1.495   6.430  0.2388 -0.2968  0.2199
  140OSM   H13A15284   1.456   1.434   6.354  1.3141  0.3277  0.3762
  140OSM   H13B15285   1.316   1.446   6.454 -0.3051  1.5379  1.8884
  140OSM   H13C15286   1.472   1.483   6.517 -0.7779  0.0670  1.0031
  140OSM    C1215287   1.510   1.712   6.347 -0.0450  0.0569  0.2059
  140OSM   H12A15288   1.486   1.804   6.295 -0.8079 -0.9930 -1.3338
  140OSM   H12B15289   1.545   1.649   6.266 -2.3281 -2.5033  1.1433
  140OSM    C1115290   1.613   1.723   6.456  0.5142 -0.8813 -1.0391
  140OSM   H11A15291   1.580   1.762   6.555  1.3642 -2.2850 -0.1790
  140OSM   H11B15292   1.683   1.798   6.413 -0.4821  0.1398 -0.9067
  140OSM      P15293   1.813   1.563   6.412  0.2621  0.2580  0.1047
  140OSM    O1315294   1.909   1.674   6.436 -0.1444  0.4617 -0.3939
  140OSM    O1415295   1.857   1.431   6.466  0.4822 -0.0109 -0.4249
  140OSM    O1115296   1.780   1.558   6.258 -0.2431  0.1551 -0.0687
  140OSM    O1215297   1.669   1.592   6.474 -0.4750 -0.1559 -0.3541
  140OSM    C1S15298   1.707   1.446   6.205  0.7433  0.3644  0.4213
  140OSM    H1S15299   1.598   1.463   6.223  0.2255  0.0397 -2.1703
  140OSM    H1T15300   1.739   1.352   6.256  0.2891 -0.2409 -0.3906
  140OSM     NF15301   1.616   1.353   6.003  0.0913  1.0477  0.2153
  140OSM    HNF15302   1.635   1.256   5.987 -1.9890  0.8845 -1.4944
  140OSM    C2S15303   1.729   1.427   6.056  0.5642  0.2448  0.5050
  140OSM    H2S15304   1.725   1.525   6.005 -0.9164  1.1714  2.3505
  140OSM    C3S15305   1.864   1.354   6.019 -0.2930  0.2437 -1.0260
  140OSM    H3S15306   1.860   1.263   6.082  0.1125  2.0446  1.7413
  140OSM     O315307   1.978   1.426   6.067 -0.2199  0.3549 -0.3451
  140OSM    HO315308   1.941   1.472   6.143  0.8648 -3.7891  2.9193
  140OSM    C4S15309   1.887   1.315   5.873 -0.3052  0.4026 -0.1295
  140OSM    H4S15310   1.853   1.214   5.846 -0.7195  0.7446 -0.8955
  140OSM    C5S15311   1.947   1.378   5.773  0.6190  0.3852 -0.1692
  140OSM    H5S15312   1.989   1.478   5.785  1.7270 -0.2736  1.5451
  140OSM    C6S15313   1.960   1.318   5.637  0.2021 -0.0928  0.0742
  140OSM    H6S15314   1.901   1.225   5.625  1.5129 -0.8297 -0.7652
  140OSM    H6T15315   2.068   1.300   5.619  0.2543 -1.5979  1.7795
  140OSM    C7S15316   1.917   1.407   5.517  0.3052  0.2933 -0.5362
  140OSM    H7S15317   2.009   1.464   5.493  1.9280 -2.2683 -0.5471
  140OSM    H7T15318   1.831   1.474   5.540 -0.1351 -0.1402 -0.8823
  140OSM    C8S15319   1.876   1.330   5.396  0.3688  0.3290 -0.2441
  140OSM    H8S15320   1.780   1.279   5.416  1.0079 -0.6171  0.4371
  140OSM    H8T15321   1.942   1.243   5.378  0.3406  0.3489 -0.4415
  140OSM    C9S15322   1.873   1.401   5.262 -0.1603 -0.9943 -0.4414
  140OSM    H9S15323   1.978   1.426   5.239  0.1906 -0.4118  1.7253
  140OSM    H9T15324   1.822   1.499   5.261 -0.8169 -1.3310 -0.5710
  140OSM   C10S15325   1.815   1.324   5.133 -0.6742 -0.3273  0.3147
  140OSM   H10S15326   1.712   1.291   5.154 -0.1865 -0.9683  1.7361
  140OSM   H10T15327   1.878   1.234   5.119  0.4862  0.4188  0.6546
  140OSM   C11S15328   1.826   1.409   5.006 -0.9738 -0.1780 -0.8475
  140OSM   H11S15329   1.927   1.455   5.004 -0.3125 -1.6443 -1.2594
  140OSM   H11T15330   1.758   1.495   5.026 -1.5040 -0.2892 -2.0922
  140OSM   C12S15331   1.801   1.338   4.874 -0.5775  0.3728 -0.1770
  140OSM   H12S15332   1.873   1.253   4.877  1.3557  1.9806 -0.1251
  140OSM   H12T15333   1.832   1.415   4.800 -1.2373  0.8766  0.0750
  140OSM   C13S15334   1.660   1.288   4.862  0.7299 -0.3296  0.3477
  140OSM   H13S15335   1.632   1.210   4.936  2.0808  0.9439  2.2469
  140OSM   H13T15336   1.651   1.238   4.763  2.1142 -0.4081  0.2481
  140OSM   C14S15337   1.545   1.398   4.867 -0.5964  0.7422 -0.4818
  140OSM   H14S15338   1.550   1.480   4.793  2.3542 -0.1294 -1.3172
  140OSM   H14T15339   1.555   1.437   4.970  0.0160  0.2775 -0.3634
  140OSM   C15S15340   1.409   1.325   4.855 -0.3112 -0.2587  0.1194
  140OSM   H15S15341   1.329   1.400   4.871  0.0022  0.1657 -0.2952
  140OSM   H15T15342   1.405   1.240   4.927 -0.3511  0.4457  0.9434
  140OSM   C16S15343   1.373   1.277   4.717 -0.7499 -0.0267  0.4773
  140OSM   H16S15344   1.445   1.201   4.680  0.0626  1.3333 -0.8345
  140OSM   H16T15345   1.376   1.362   4.645  3.6563 -1.6469 -1.4729
  140OSM   C17S15346   1.234   1.211   4.710 -0.2341  0.1828 -0.7592
  140OSM   H17S15347   1.163   1.293   4.734  0.4015  0.9576 -1.4722
  140OSM   H17T15348   1.225   1.130   4.785 -1.5823  2.4034  1.5661
  140OSM   C18S15349   1.198   1.156   4.573 -0.2789  0.0658 -0.2763
  140OSM   H18S15350   1.211   1.232   4.493  0.2049  1.9534  1.5654
  140OSM   H18T15351   1.094   1.117   4.575 -0.2529 -0.1164 -1.8246
  140OSM   H18U15352   1.271   1.075   4.550 -0.6156  0.1312 -1.5873
  140OSM    C1F15353   1.486   1.388   5.997  0.3381  0.1726  0.0425
  140OSM     OF15354   1.450   1.494   6.049 -0.7551  0.0943  0.0702
  140OSM    C2F15355   1.391   1.291   5.937  0.5053 -0.0201 -0.1789
  140OSM    H2F15356   1.305   1.356   5.909  0.6466 -1.2698 -3.7096
  140OSM    H2G15357   1.365   1.222   6.020 -0.6407  0.3098 -0.2586
  140OSM    C3F15358   1.436   1.208   5.816  0.0656 -0.3093  0.3563
  140OSM    H3F15359   1.364   1.125   5.799 -0.3171  0.0854  0.0418
  140OSM    H3G15360   1.534   1.158   5.833  1.1624  0.8936 -2.1659
  140OSM    C4F15361   1.438   1.294   5.686 -0.4079 -0.1163  0.0273
  140OSM    H4F15362   1.507   1.380   5.696  1.2448 -1.4326  0.0235
  140OSM    H4G15363   1.334   1.328   5.664  0.4462  1.0459 -2.2757
  140OSM    C5F15364   1.481   1.216   5.566  0.6149  0.2013 -0.7188
  140OSM    H5F15365   1.409   1.136   5.537  0.2796  0.5527 -0.8725
  140OSM    H5G15366   1.578   1.165   5.582 -0.4158 -1.6077 -0.1323
  140OSM    C6F15367   1.502   1.312   5.442  0.2050  0.4991 -0.2119
  140OSM    H6F15368   1.504   1.253   5.348  1.5023  0.7258 -0.3363
  140OSM    H6G15369   1.597   1.359   5.474 -0.4021  0.6314  1.4817
  140OSM    C7F15370   1.396   1.419   5.423 -0.3899 -0.4806  0.3670
  140OSM    H7F15371   1.411   1.505   5.491 -1.4126 -1.0723  1.3735
  140OSM    H7G15372   1.294   1.375   5.437 -0.3318 -1.2775 -1.5979
  140OSM    C8F15373   1.398   1.496   5.285 -0.4567 -0.2305  0.4534
  140OSM    H8F15374   1.312   1.566   5.274 -0.5784 -0.4924 -0.3371
  140OSM    H8G15375   1.380   1.421   5.205  1.2552  0.6466 -0.7916
  140OSM    C9F15376   1.532   1.567   5.255 -0.8937  0.4419  0.1283
  140OSM    H9F15377   1.621   1.502   5.261  0.3746  2.0096 -1.4705
  140OSM   C10F15378   1.538   1.694   5.215 -0.8516  0.3076 -0.0757
  140OSM   H10F15379   1.639   1.719   5.179  1.2818 -4.2237  2.2690
  140OSM   C11F15380   1.422   1.786   5.191 -0.0468  0.1962 -0.4972
  140OSM   H11F15381   1.462   1.884   5.222 -0.0573 -0.0446  0.3070
  140OSM   H11G15382   1.338   1.772   5.263 -0.3852  2.2105 -0.4952
  140OSM   C12F15383   1.357   1.769   5.047 -0.6711 -0.2198 -0.1449
  140OSM   H12F15384   1.268   1.835   5.052 -0.5771 -0.1230  0.3345
  140OSM   H12G15385   1.313   1.671   5.018  1.5084 -1.1654 -0.3854
  140OSM   C13F15386   1.461   1.808   4.935  0.2317 -0.0594  0.6215
  140OSM   H13F15387   1.543   1.734   4.943 -1.1664 -1.3924  2.6702
  140OSM   H13G15388   1.508   1.907   4.956  2.0264 -0.4885 -1.1070
  140OSM   C14F15389   1.398   1.810   4.795  0.3023  0.4440  0.4525
  140OSM   H14F15390   1.325   1.892   4.781 -0.1177 -0.3133 -2.1521
  140OSM   H14G15391   1.346   1.713   4.780  1.2926 -0.3016  1.8367
  140OSM   C15F15392   1.497   1.816   4.674  0.2987 -0.2152 -0.3502
  140OSM   H15F15393   1.579   1.743   4.690 -0.1756 -0.3514  1.5531
  140OSM   H15G15394   1.559   1.908   4.678  0.1035 -0.1149  0.4289
  140OSM   C16F15395   1.410   1.816   4.551  0.3740  1.2822 -0.2880
  140OSM   H16F15396   1.347   1.907   4.548  1.3539  1.9795  0.1902
  140OSM   H16G15397   1.335   1.733   4.554  0.9190  0.7925  0.1227
  140OSM   C17F15398   1.489   1.804   4.423 -0.2507  0.2095  0.0446
  140OSM   H17F15399   1.550   1.711   4.424 -0.0872  0.3162  1.5256
  140OSM   H17G15400   1.573   1.876   4.415 -0.5548  0.5374 -0.1881
  140OSM   C18F15401   1.392   1.805   4.311 -0.3796 -0.4349 -0.6475
  140OSM   H18F15402   1.444   1.787   4.214  1.2455  2.2311 -0.3025
  140OSM   H18G15403   1.349   1.907   4.305 -0.6454 -0.5739 -1.1410
  140OSM   H18H15404   1.300   1.743   4.313  0.6104 -1.9494 -0.5109
  141OSM      N15405   7.278   3.729   6.423  0.3521  0.0271 -0.0164
  141OSM    C1515406   7.204   3.814   6.325  0.4196  0.3736 -0.2595
  141OSM   H15A15407   7.166   3.766   6.236  0.1185  0.1877 -0.0321
  141OSM   H15B15408   7.268   3.894   6.292  0.3380  1.3730  1.8722
  141OSM   H15C15409   7.121   3.868   6.368  1.3184  1.4540  0.1686
  141OSM    C1415410   7.293   3.825   6.544 -0.4700  0.4958 -0.1668
  141OSM   H14A15411   7.368   3.900   6.523  1.2198 -0.8749  0.8430
  141OSM   H14B15412   7.322   3.774   6.635  1.9485  1.7293 -0.2064
  141OSM   H14C15413   7.197   3.872   6.558 -0.6884 -0.6628  2.4148
  141OSM    C1315414   7.197   3.606   6.460 -0.4610 -0.1144  0.1376
  141OSM   H13A15415   7.186   3.539   6.375  1.6914 -0.2301 -0.0905
  141OSM   H13B15416   7.097   3.623   6.497 -0.8714 -3.9424  0.9970
  141OSM   H13C15417   7.252   3.551   6.535 -0.4230 -1.2079 -0.6712
  141OSM    C1215418   7.411   3.695   6.372 -0.3770 -0.4156  0.0885
  141OSM   H12A15419   7.464   3.631   6.441  1.3325 -1.0510 -1.7695
  141OSM   H12B15420   7.475   3.780   6.358 -0.9450 -0.1193 -0.7410
  141OSM    C1115421   7.421   3.614   6.245  0.1468  0.1230  0.8117
  141OSM   H11A15422   7.513   3.626   6.185  0.7935 -0.5064  1.6536
  141OSM   H11B15423   7.342   3.639   6.172  0.0555 -4.2351 -0.7495
  141OSM      P15424   7.526   3.392   6.334 -0.1894  0.2548 -0.4642
  141OSM    O1315425   7.593   3.470   6.444 -0.1289 -0.0449  0.0870
  141OSM    O1415426   7.473   3.256   6.367  0.5426 -0.4496 -0.0798
  141OSM    O1115427   7.630   3.372   6.217 -0.3638  0.2117  0.0604
  141OSM    O1215428   7.401   3.474   6.271  0.7021 -0.1140  1.0884
  141OSM    C1S15429   7.604   3.288   6.106  0.4026  0.0124 -0.1376
  141OSM    H1S15430   7.501   3.244   6.103  0.7268 -0.6159 -3.4033
  141OSM    H1T15431   7.679   3.206   6.107 -1.8308 -2.1173 -1.7656
  141OSM     NF15432   7.550   3.290   5.869  0.5905  0.2620 -0.6429
  141OSM    HNF15433   7.616   3.234   5.819  1.4959  1.2132 -0.5507
  141OSM    C2S15434   7.608   3.368   5.975  0.2435 -0.1629 -0.3996
  141OSM    H2S15435   7.545   3.457   5.993 -0.0041 -0.7750  1.9079
  141OSM    C3S15436   7.755   3.414   5.940 -0.1746  0.2204  0.1854
  141OSM    H3S15437   7.813   3.324   5.913 -2.7865 -0.7753 -2.3636
  141OSM     O315438   7.812   3.490   6.047  0.3094 -0.1992  0.3390
  141OSM    HO315439   7.747   3.486   6.117  0.3518  0.1309  0.3966
  141OSM    C4S15440   7.742   3.514   5.830  0.1168  0.2117 -0.2963
  141OSM    H4S15441   7.659   3.585   5.837  0.4454  0.4840  0.9095
  141OSM    C5S15442   7.839   3.540   5.742 -0.2166  0.6246 -0.2295
  141OSM    H5S15443   7.936   3.491   5.761 -0.8386 -0.7691 -0.5898
  141OSM    C6S15444   7.844   3.644   5.628 -0.9236  0.7491 -0.0379
  141OSM    H6S15445   7.918   3.723   5.653  0.3103 -0.2938 -0.3914
  141OSM    H6T15446   7.744   3.693   5.630 -2.2913 -1.9398  3.1354
  141OSM    C7S15447   7.866   3.578   5.491 -0.4050  0.4838  0.7981
  141OSM    H7S15448   7.971   3.544   5.477 -0.7386 -0.0356 -0.4681
  141OSM    H7T15449   7.853   3.662   5.419 -2.1370 -0.1421  0.3483
  141OSM    C8S15450   7.763   3.466   5.463 -0.1856  0.9881 -0.3984
  141OSM    H8S15451   7.671   3.520   5.494 -0.0002  0.1562  1.6654
  141OSM    H8T15452   7.762   3.385   5.538 -0.7662  2.5611  1.3462
  141OSM    C9S15453   7.774   3.405   5.327  0.2075 -0.6600 -1.0359
  141OSM    H9S15454   7.871   3.361   5.295  1.0298 -0.3363  0.9305
  141OSM    H9T15455   7.764   3.495   5.262 -0.8678  0.7905  1.0983
  141OSM   C10S15456   7.677   3.298   5.296 -0.2743  0.2435  0.4442
  141OSM   H10S15457   7.575   3.317   5.336  0.4948 -0.5525  2.8949
  141OSM   H10T15458   7.714   3.216   5.362 -0.6276 -0.1457  0.1582
  141OSM   C11S15459   7.683   3.257   5.146  0.0731  0.0990  0.5419
  141OSM   H11S15460   7.781   3.207   5.127  1.0327  2.1573 -0.1382
  141OSM   H11T15461   7.671   3.342   5.076  1.4165 -1.1091 -1.2045
  141OSM   C12S15462   7.560   3.170   5.114 -0.2234  0.0475  0.9587
  141OSM   H12S15463   7.476   3.235   5.085  0.7854  0.1028 -1.9519
  141OSM   H12T15464   7.524   3.112   5.201  2.0018 -1.1631  1.1126
  141OSM   C13S15465   7.588   3.063   5.001  0.8493 -0.1249 -0.3345
  141OSM   H13S15466   7.506   2.990   4.985  0.2614  0.7299 -1.3554
  141OSM   H13T15467   7.675   3.012   5.048  0.5869 -0.5451 -0.3006
  141OSM   C14S15468   7.638   3.111   4.863  0.6134  1.0745 -0.2014
  141OSM   H14S15469   7.738   3.158   4.877  0.2615  1.8874 -0.3926
  141OSM   H14T15470   7.562   3.183   4.828 -0.9321  1.0067  2.7756
  141OSM   C15S15471   7.656   2.997   4.763 -0.1617  0.4954 -0.1083
  141OSM   H15S15472   7.565   2.936   4.746 -0.5570  0.9577  0.3349
  141OSM   H15T15473   7.743   2.939   4.802  1.7537  2.0969 -1.8377
  141OSM   C16S15474   7.704   3.050   4.626 -0.0733  0.4920  0.2341
  141OSM   H16S15475   7.800   3.107   4.623 -1.0308  2.1014 -1.6778
  141OSM   H16T15476   7.626   3.115   4.582 -2.6416 -1.7491  1.3841
  141OSM   C17S15477   7.757   2.943   4.536  0.8079 -0.0598 -0.7054
  141OSM   H17S15478   7.674   2.888   4.488 -0.9349 -0.0472  2.1500
  141OSM   H17T15479   7.821   2.870   4.589 -0.3630 -0.9503 -0.4978
  141OSM   C18S15480   7.845   3.007   4.416 -0.0092 -0.2131 -0.4862
  141OSM   H18S15481   7.941   3.044   4.458  0.8804 -0.2306 -2.4642
  141OSM   H18T15482   7.801   3.101   4.377  0.8736  0.7404  0.8045
  141OSM   H18U15483   7.862   2.928   4.340  2.3923  0.6385 -0.8611
  141OSM    C1F15484   7.415   3.283   5.853  0.6230  0.0652  0.4397
  141OSM     OF15485   7.341   3.337   5.935 -0.3486  0.1421  0.5941
  141OSM    C2F15486   7.368   3.199   5.744 -0.4568 -0.4528 -0.5597
  141OSM    H2F15487   7.270   3.150   5.762 -1.5509  1.8529 -0.0788
  141OSM    H2G15488   7.435   3.110   5.738  0.6042  0.2294  0.8117
  141OSM    C3F15489   7.369   3.275   5.607 -0.6077  0.0452  0.1241
  141OSM    H3F15490   7.470   3.307   5.572 -0.6683  0.7762  0.6111
  141OSM    H3G15491   7.307   3.366   5.614 -0.3070  0.5539 -2.9847
  141OSM    C4F15492   7.319   3.184   5.497  0.4880 -0.0781  0.5424
  141OSM    H4F15493   7.394   3.105   5.473  0.2613 -0.9129  2.4796
  141OSM    H4G15494   7.315   3.240   5.401  1.1626 -1.1263 -0.1101
  141OSM    C5F15495   7.183   3.124   5.527 -0.4489 -0.8737 -0.3886
  141OSM    H5F15496   7.104   3.198   5.551 -1.2064 -2.1806  1.2251
  141OSM    H5G15497   7.193   3.053   5.612  2.0967 -0.6390 -0.4344
  141OSM    C6F15498   7.135   3.050   5.406  0.5617  0.6758 -0.2807
  141OSM    H6F15499   7.050   2.982   5.427  1.3197 -0.0510  0.4709
  141OSM    H6G15500   7.222   2.993   5.366  0.4814  0.0129  0.4805
  141OSM    C7F15501   7.079   3.141   5.300  0.0412  0.3585  0.3413
  141OSM    H7F15502   7.161   3.206   5.262  1.0589 -0.6195  0.8348
  141OSM    H7G15503   6.996   3.191   5.354  0.3442  0.2508  0.9119
  141OSM    C8F15504   7.006   3.072   5.171 -1.2148 -0.9145  0.2799
  141OSM    H8F15505   6.970   3.159   5.112  2.9003  1.1611  0.6416
  141OSM    H8G15506   6.922   3.010   5.209 -1.6917 -0.9227 -0.7670
  141OSM    C9F15507   7.081   2.975   5.092 -0.1281 -0.1567 -0.0297
  141OSM    H9F15508   7.149   3.029   5.025 -0.7986  0.2300 -0.4032
  141OSM   C10F15509   7.078   2.839   5.095  0.0567 -0.6595 -1.0347
  141OSM   H10F15510   7.151   2.789   5.030  1.9093 -0.6668  0.9640
  141OSM   C11F15511   6.996   2.746   5.187 -0.1592  0.2507  0.4940
  141OSM   H11F15512   6.978   2.801   5.282  1.3067  1.0248  0.3404
  141OSM   H11G15513   7.050   2.651   5.207 -2.0718 -0.4414  2.4925
  141OSM   C12F15514   6.856   2.702   5.133 -0.1764  0.2029 -0.6709
  141OSM   H12F15515   6.780   2.782   5.142  1.6783  1.7048  2.2531
  141OSM   H12G15516   6.818   2.618   5.196  1.2999  1.0951  1.4807
  141OSM   C13F15517   6.864   2.654   4.988  0.6329  0.5205  0.1504
  141OSM   H13F15518   6.958   2.679   4.936  1.1900 -0.3251  0.7414
  141OSM   H13G15519   6.787   2.713   4.934  0.8706  1.3385  0.6954
  141OSM   C14F15520   6.816   2.508   4.955  0.3627  0.0064  0.1372
  141OSM   H14F15521   6.710   2.494   4.985  0.0062 -2.2153 -1.9866
  141OSM   H14G15522   6.877   2.426   4.998  1.5194  0.7745 -0.0139
  141OSM   C15F15523   6.815   2.499   4.797  0.4552  0.1318 -0.1183
  141OSM   H15F15524   6.922   2.499   4.767  0.1010  0.4530 -1.4191
  141OSM   H15G15525   6.769   2.588   4.749  3.9941  1.3523 -1.3746
  141OSM   C16F15526   6.747   2.373   4.734 -0.1536 -0.0232  0.3403
  141OSM   H16F15527   6.646   2.355   4.776  0.0271 -0.9449  0.4030
  141OSM   H16G15528   6.786   2.271   4.755  0.5339 -0.1691 -1.5121
  141OSM   C17F15529   6.725   2.356   4.583 -0.1719 -0.0382 -0.3010
  141OSM   H17F15530   6.806   2.405   4.525  1.9307 -1.4812  1.3484
  141OSM   H17G15531   6.626   2.396   4.552 -0.2493 -0.3094 -0.4103
  141OSM   C18F15532   6.722   2.200   4.548 -0.2437  0.3266 -0.0573
  141OSM   H18F15533   6.701   2.182   4.440  0.5269  1.9155 -0.4867
  141OSM   H18G15534   6.641   2.158   4.612  0.5743  0.9826  1.4245
  141OSM   H18H15535   6.822   2.157   4.572 -0.8128 -0.4293  0.9926
  142OSM      N15536   6.140   1.694   6.563  0.4870  0.2807  0.0868
  142OSM    C1515537   6.242   1.806   6.541 -1.2199 -0.0451 -0.2085
  142OSM   H15A15538   6.250   1.820   6.434 -1.1190 -2.0078 -0.4877
  142OSM   H15B15539   6.338   1.773   6.579 -1.3929  2.2258  2.2630
  142OSM   H15C15540   6.207   1.900   6.580  1.9014  1.2375 -0.3269
  142OSM    C1415541   6.101   1.697   6.711  0.1246  0.3530 -0.8986
  142OSM   H14A15542   6.058   1.791   6.743  1.1942  0.2348  0.9868
  142OSM   H14B15543   6.178   1.662   6.779 -0.5719 -0.0362 -0.3035
  142OSM   H14C15544   6.032   1.615   6.726  0.5192  0.2673  0.5198
  142OSM    C1315545   6.021   1.727   6.479 -0.2722  0.1969  0.2546
  142OSM   H13A15546   5.933   1.668   6.503 -1.4173  1.5116 -0.6804
  142OSM   H13B15547   6.046   1.713   6.375 -0.2415  1.4914  0.0888
  142OSM   H13C15548   5.991   1.827   6.504 -0.8489 -0.1930  1.1654
  142OSM    C1215549   6.200   1.565   6.523  0.2002  0.0181  0.3035
  142OSM   H12A15550   6.126   1.487   6.525 -1.3495  1.4226 -0.9182
  142OSM   H12B15551   6.267   1.534   6.602 -1.7437 -1.2821  1.4709
  142OSM    C1115552   6.286   1.559   6.397  0.5695  0.7567  0.4263
  142OSM   H11A15553   6.314   1.453   6.378 -0.6883  0.2954  1.0674
  142OSM   H11B15554   6.379   1.615   6.421  2.2351 -1.6655 -0.1833
  142OSM      P15555   6.304   1.666   6.160  0.6269  0.4365  0.2267
  142OSM    O1315556   6.296   1.809   6.176 -0.1850  0.5034 -0.1062
  142OSM    O1415557   6.437   1.612   6.147 -0.2274  0.0347  0.5683
  142OSM    O1115558   6.210   1.631   6.034 -0.2764  0.9126 -0.4601
  142OSM    O1215559   6.221   1.611   6.281 -0.0665 -0.0145 -0.0764
  142OSM    C1S15560   6.255   1.531   5.943  0.4206 -0.3836 -0.3806
  142OSM    H1S15561   6.303   1.445   5.994 -4.2231 -2.5691  0.6391
  142OSM    H1T15562   6.326   1.570   5.868  0.0018 -1.8627 -1.5680
  142OSM     NF15563   6.192   1.359   5.780 -0.5217  0.0861  0.2324
  142OSM    HNF15564   6.225   1.383   5.689  0.0365  0.5208  0.5467
  142OSM    C2S15565   6.137   1.470   5.850 -0.2915 -1.1533  0.2523
  142OSM    H2S15566   6.050   1.435   5.911  0.0605 -3.7304 -0.6774
  142OSM    C3S15567   6.089   1.599   5.765 -0.2622 -0.0401 -0.2989
  142OSM    H3S15568   6.177   1.641   5.712 -0.9984 -0.8677 -2.2429
  142OSM     O315569   6.033   1.711   5.832  0.8134 -0.8811  0.7477
  142OSM    HO315570   6.073   1.704   5.919 -0.9775 -0.8606  1.6001
  142OSM    C4S15571   5.997   1.542   5.659 -0.1066 -0.4429 -0.3356
  142OSM    H4S15572   5.902   1.510   5.704 -0.9637  1.4372 -0.7700
  142OSM    C5S15573   6.008   1.539   5.523 -0.2338 -0.3676 -0.2239
  142OSM    H5S15574   6.093   1.576   5.464 -0.6167 -0.4320 -0.8174
  142OSM    C6S15575   5.905   1.473   5.427  0.5382 -0.3288  0.3838
  142OSM    H6S15576   5.837   1.551   5.386 -0.0082 -0.4511  1.0441
  142OSM    H6T15577   5.848   1.394   5.480  1.7145 -1.2948  0.2231
  142OSM    C7S15578   5.982   1.401   5.317  0.2899 -0.4277  0.1515
  142OSM    H7S15579   5.921   1.316   5.278 -0.9383 -0.2465  1.6404
  142OSM    H7T15580   6.074   1.352   5.355  0.9891  0.3083 -0.5645
  142OSM    C8S15581   6.026   1.494   5.199  0.4421  0.2862 -0.1966
  142OSM    H8S15582   6.069   1.587   5.243 -0.0972  0.1952  0.5440
  142OSM    H8T15583   5.934   1.529   5.147  0.3681 -0.3272 -0.4829
  142OSM    C9S15584   6.102   1.424   5.093  0.4197  0.1064  1.0517
  142OSM    H9S15585   6.068   1.476   5.001  0.1085 -1.8600  0.0299
  142OSM    H9T15586   6.061   1.321   5.081  0.2284  0.4882 -1.8163
  142OSM   C10S15587   6.251   1.396   5.122  0.1571 -0.2226 -0.9813
  142OSM   H10S15588   6.268   1.331   5.211  2.8048  2.9276  0.9532
  142OSM   H10T15589   6.314   1.487   5.131  0.6626 -0.6360 -0.1910
  142OSM   C11S15590   6.308   1.301   5.008 -0.5076  0.3972 -0.6124
  142OSM   H11S15591   6.233   1.220   4.994  0.1332 -0.2634 -0.2554
  142OSM   H11T15592   6.401   1.260   5.054 -1.2561 -0.6469  0.0027
  142OSM   C12S15593   6.340   1.366   4.871  0.4811 -0.4755 -0.1286
  142OSM   H12S15594   6.405   1.456   4.873  0.0547 -0.1687 -0.1630
  142OSM   H12T15595   6.244   1.387   4.821  0.3559 -3.0376 -1.0647
  142OSM   C13S15596   6.415   1.262   4.778  0.3275 -0.5944 -0.3873
  142OSM   H13S15597   6.518   1.259   4.817  0.7142  2.4098 -1.0632
  142OSM   H13T15598   6.425   1.305   4.676  0.5461  1.0334  0.3180
  142OSM   C14S15599   6.346   1.126   4.758  0.3789  0.1627 -0.1605
  142OSM   H14S15600   6.239   1.141   4.729 -0.3064 -2.5697  0.7308
  142OSM   H14T15601   6.342   1.070   4.854 -1.1452 -1.4657 -1.1322
  142OSM   C15S15602   6.418   1.038   4.656  0.0537 -0.2380  0.0702
  142OSM   H15S15603   6.527   1.027   4.676 -0.2453 -2.0065  0.8560
  142OSM   H15T15604   6.413   1.080   4.553 -0.4275  0.4060  0.3542
  142OSM   C16S15605   6.342   0.911   4.628 -0.3779 -0.5088 -0.1786
  142OSM   H16S15606   6.243   0.928   4.581 -1.0940  0.5972  1.6623
  142OSM   H16T15607   6.322   0.867   4.728  0.1900 -1.2961 -0.4109
  142OSM   C17S15608   6.413   0.820   4.525  0.4689  0.4329  0.2349
  142OSM   H17S15609   6.345   0.734   4.512 -0.6227  1.1163  1.3016
  142OSM   H17T15610   6.508   0.784   4.570  1.5436  2.2195 -0.5334
  142OSM   C18S15611   6.446   0.894   4.390  0.1608  0.1990 -0.4385
  142OSM   H18S15612   6.532   0.962   4.407  1.0952 -0.9418 -0.5211
  142OSM   H18T15613   6.352   0.938   4.353  0.2499  1.1620  0.4636
  142OSM   H18U15614   6.485   0.824   4.313  0.2415 -0.6697  0.3892
  142OSM    C1F15615   6.224   1.245   5.837  0.6342 -0.0351  0.7648
  142OSM     OF15616   6.189   1.226   5.951 -0.0789  0.7307 -0.1444
  142OSM    C2F15617   6.328   1.159   5.762  0.0385 -0.0094  0.1176
  142OSM    H2F15618   6.276   1.063   5.747  1.0796 -0.5755  0.0528
  142OSM    H2G15619   6.414   1.137   5.829  0.3010 -0.7183 -0.4510
  142OSM    C3F15620   6.375   1.210   5.626 -0.5352 -0.2261 -0.0412
  142OSM    H3F15621   6.296   1.242   5.554 -0.4778 -1.0404 -0.4822
  142OSM    H3G15622   6.425   1.124   5.575 -0.4286 -1.2414  1.7111
  142OSM    C4F15623   6.483   1.327   5.634  0.7190  0.3186  0.6143
  142OSM    H4F15624   6.424   1.407   5.684 -0.1568 -0.4290  0.7957
  142OSM    H4G15625   6.518   1.363   5.535 -2.1351 -2.3048 -1.4658
  142OSM    C5F15626   6.612   1.297   5.721  0.1298  0.0453 -0.5705
  142OSM    H5F15627   6.573   1.299   5.825  0.0772  0.4923 -0.5949
  142OSM    H5G15628   6.685   1.381   5.717  0.2052 -0.0034 -0.2132
  142OSM    C6F15629   6.685   1.157   5.694 -0.1132 -0.5331  0.4700
  142OSM    H6F15630   6.616   1.074   5.720 -0.6631  0.1421  1.1915
  142OSM    H6G15631   6.776   1.147   5.757  1.0843 -0.7826 -1.2613
  142OSM    C7F15632   6.721   1.147   5.549  0.2766  0.0139 -1.2611
  142OSM    H7F15633   6.812   1.209   5.532  0.0879  0.8246  0.5477
  142OSM    H7G15634   6.645   1.188   5.479 -0.9110  1.4803  0.8336
  142OSM    C8F15635   6.736   0.997   5.508  0.3218 -1.1863 -0.0620
  142OSM    H8F15636   6.795   0.953   5.591 -0.4464  0.4131  1.3673
  142OSM    H8G15637   6.792   0.980   5.414 -2.4667  0.0126 -2.0387
  142OSM    C9F15638   6.614   0.910   5.511  0.2006  0.8732 -0.3174
  142OSM    H9F15639   6.598   0.845   5.598 -0.3198  0.2444 -0.8699
  142OSM   C10F15640   6.522   0.901   5.411 -0.8787  0.1556 -0.6481
  142OSM   H10F15641   6.442   0.826   5.418 -0.6836 -0.2169 -2.1285
  142OSM   C11F15642   6.531   0.977   5.279  0.1143  0.3404 -0.0043
  142OSM   H11F15643   6.621   1.037   5.256  0.2210 -0.1714 -0.9731
  142OSM   H11G15644   6.448   1.047   5.260 -0.9671 -1.4482 -2.0902
  142OSM   C12F15645   6.519   0.869   5.158 -0.3968  1.3737  0.1749
  142OSM   H12F15646   6.420   0.823   5.179 -0.3037  1.0644 -0.0757
  142OSM   H12G15647   6.609   0.806   5.175 -1.6539 -0.7802 -1.0200
  142OSM   C13F15648   6.525   0.930   5.024  1.2830  0.1836  0.1222
  142OSM   H13F15649   6.478   1.031   5.030 -0.9918 -0.6825 -2.3479
  142OSM   H13G15650   6.460   0.870   4.958  1.1956  1.4402 -0.9651
  142OSM   C14F15651   6.663   0.962   4.972 -0.6296 -0.2917  0.1933
  142OSM   H14F15652   6.723   0.993   5.060 -1.1137  1.4579 -0.0707
  142OSM   H14G15653   6.658   1.052   4.907  0.6282 -0.6834 -0.4634
  142OSM   C15F15654   6.719   0.848   4.882  0.1192  0.0689  0.4565
  142OSM   H15F15655   6.645   0.817   4.806  2.0183 -2.6428 -0.3321
  142OSM   H15G15656   6.722   0.759   4.949  0.5016 -1.3087 -1.3592
  142OSM   C16F15657   6.846   0.874   4.805  0.1283  0.2905 -0.4836
  142OSM   H16F15658   6.854   0.797   4.726 -0.0998  1.5709 -1.7729
  142OSM   H16G15659   6.936   0.856   4.868  0.5498 -1.7084 -1.5968
  142OSM   C17F15660   6.854   1.015   4.739  0.6976  0.1307 -0.2608
  142OSM   H17F15661   6.837   1.102   4.806 -2.9289  0.2740 -1.2581
  142OSM   H17G15662   6.761   1.026   4.679  1.1259  0.2585 -0.9102
  142OSM   C18F15663   6.968   1.036   4.641 -0.0176  0.1757 -0.5950
  142OSM   H18F15664   6.976   1.130   4.583  1.2225 -0.2884 -1.1958
  142OSM   H18G15665   6.945   0.955   4.568 -1.9943 -0.1710  0.3896
  142OSM   H18H15666   7.071   1.016   4.679  0.3871  1.0062 -1.2445
  143OSM      N15667   7.257   5.173   6.410  0.7572 -0.2098  0.6472
  143OSM    C1515668   7.125   5.184   6.470  0.0497 -0.5308  0.3757
  143OSM   H15A15669   7.105   5.288   6.493  1.0355 -0.2588  0.0312
  143OSM   H15B15670   7.111   5.128   6.561 -2.0998  2.1912  1.8306
  143OSM   H15C15671   7.050   5.157   6.397  1.7845 -0.0758 -1.6031
  143OSM    C1415672   7.347   5.220   6.518 -0.0683 -0.0639 -0.4260
  143OSM   H14A15673   7.325   5.323   6.541  1.9116 -0.1338  1.9822
  143OSM   H14B15674   7.447   5.217   6.478  0.6591 -0.5139  1.3991
  143OSM   H14C15675   7.342   5.158   6.606 -1.2881  0.1045 -0.3608
  143OSM    C1315676   7.288   5.036   6.369  0.3793  0.4299  0.5505
  143OSM   H13A15677   7.261   4.966   6.447  1.2808 -1.9318 -1.1914
  143OSM   H13B15678   7.390   5.023   6.334  0.3304  1.0996  0.1395
  143OSM   H13C15679   7.216   5.003   6.295 -0.3297 -0.2006  1.4997
  143OSM    C1215680   7.277   5.268   6.299  0.0059  0.4390 -0.5179
  143OSM   H12A15681   7.219   5.232   6.216 -0.5650 -2.0383  0.9328
  143OSM   H12B15682   7.379   5.250   6.267  0.1364 -4.7916  2.2728
  143OSM    C1115683   7.263   5.417   6.324  0.5166  0.4797 -0.0719
  143OSM   H11A15684   7.159   5.435   6.360  1.2994 -0.7601  2.9743
  143OSM   H11B15685   7.270   5.461   6.222  3.0486 -0.9418 -0.5632
  143OSM      P15686   7.481   5.562   6.355  0.1918  0.0646  0.2933
  143OSM    O1315687   7.525   5.656   6.461 -0.1844 -0.3990  0.6631
  143OSM    O1415688   7.585   5.474   6.304 -0.1637 -0.2233 -0.4343
  143OSM    O1115689   7.415   5.652   6.248 -1.0171  0.2664  0.2705
  143OSM    O1215690   7.361   5.473   6.408 -0.1079 -0.1239  0.1965
  143OSM    C1S15691   7.488   5.704   6.142  0.0576  0.1335 -0.1986
  143OSM    H1S15692   7.595   5.676   6.150  0.1319  0.6400  0.8220
  143OSM    H1T15693   7.483   5.815   6.150 -1.3709  0.0672 -0.0404
  143OSM     NF15694   7.536   5.666   5.895  0.0582  0.6299  0.1437
  143OSM    HNF15695   7.554   5.757   5.860  0.4804  0.3937 -0.2670
  143OSM    C2S15696   7.433   5.669   5.995  0.8411  0.2184  0.5259
  143OSM    H2S15697   7.392   5.567   6.008  1.3507 -0.0519  0.0028
  143OSM    C3S15698   7.318   5.769   5.962 -0.1520  0.5637  0.3902
  143OSM    H3S15699   7.364   5.869   5.978 -1.3132  1.0628  0.7347
  143OSM     O315700   7.209   5.755   6.055 -0.2691 -0.2895 -0.2531
  143OSM    HO315701   7.250   5.704   6.125 -0.3492  0.4793  0.3597
  143OSM    C4S15702   7.266   5.761   5.823  0.2858  0.0014  0.4789
  143OSM    H4S15703   7.183   5.691   5.804 -0.2134  1.1298 -1.5919
  143OSM    C5S15704   7.290   5.860   5.727 -0.5275 -0.0241 -0.4585
  143OSM    H5S15705   7.359   5.943   5.750  0.6514 -1.0903 -0.0823
  143OSM    C6S15706   7.240   5.863   5.589 -0.3599  0.2788 -0.3576
  143OSM    H6S15707   7.326   5.843   5.520  0.8194 -2.4100  1.7778
  143OSM    H6T15708   7.206   5.966   5.570 -1.2021 -0.1645 -1.2877
  143OSM    C7S15709   7.131   5.766   5.552  0.3395  0.4660  0.6326
  143OSM    H7S15710   7.059   5.752   5.636 -0.6478 -0.4144 -0.3467
  143OSM    H7T15711   7.173   5.666   5.529 -0.8959 -0.1430  0.9621
  143OSM    C8S15712   7.044   5.807   5.426 -0.2058  0.2110 -0.4093
  143OSM    H8S15713   7.057   5.917   5.432 -0.8283  0.2097  1.0816
  143OSM    H8T15714   6.937   5.783   5.439 -0.0344 -0.4044 -0.1121
  143OSM    C9S15715   7.096   5.748   5.297 -0.0420 -0.2173 -0.5333
  143OSM    H9S15716   7.010   5.727   5.230 -1.5388  0.8740  0.9903
  143OSM    H9T15717   7.140   5.648   5.317 -1.5750 -0.6700  0.6596
  143OSM   C10S15718   7.201   5.842   5.244  0.4868  0.0023 -0.3633
  143OSM   H10S15719   7.299   5.852   5.296  0.0421 -1.1064  0.7281
  143OSM   H10T15720   7.162   5.945   5.247  0.9230  0.1582  0.2509
  143OSM   C11S15721   7.238   5.811   5.101 -0.5444 -0.3375  0.6657
  143OSM   H11S15722   7.167   5.848   5.025 -1.2709 -0.9570  1.0378
  143OSM   H11T15723   7.239   5.701   5.082 -0.0080 -0.3383  0.6976
  143OSM   C12S15724   7.375   5.867   5.054 -0.7340 -0.2251 -0.2193
  143OSM   H12S15725   7.460   5.832   5.117 -0.7458  1.0039  0.5000
  143OSM   H12T15726   7.363   5.977   5.046  0.4999 -0.0372  0.4069
  143OSM   C13S15727   7.410   5.824   4.904 -0.4268  0.0136 -0.7075
  143OSM   H13S15728   7.411   5.714   4.889  0.4676 -0.3468  1.7483
  143OSM   H13T15729   7.510   5.865   4.879 -0.8197  2.0642  0.8687
  143OSM   C14S15730   7.326   5.873   4.784 -0.1259  0.5657  0.5252
  143OSM   H14S15731   7.346   5.982   4.781 -1.9932  0.8871 -1.2250
  143OSM   H14T15732   7.217   5.854   4.796 -0.3469  1.9767  0.7916
  143OSM   C15S15733   7.370   5.813   4.650  0.0094 -0.4989 -0.1011
  143OSM   H15S15734   7.398   5.705   4.653 -1.6363 -0.9127  1.0388
  143OSM   H15T15735   7.471   5.860   4.651 -0.6052  0.8460 -0.5668
  143OSM   C16S15736   7.292   5.852   4.524 -0.1996  0.4363  0.2257
  143OSM   H16S15737   7.291   5.957   4.488 -2.1849  0.4054  0.1319
  143OSM   H16T15738   7.186   5.822   4.534 -1.0870  2.4315 -2.6614
  143OSM   C17S15739   7.352   5.789   4.394  0.0518  0.2468 -0.2639
  143OSM   H17S15740   7.355   5.679   4.411  0.9188  0.2785 -0.1861
  143OSM   H17T15741   7.456   5.826   4.384  0.6067 -1.7810 -2.4092
  143OSM   C18S15742   7.277   5.823   4.271 -0.1916  0.5894 -0.4813
  143OSM   H18S15743   7.335   5.796   4.180 -2.0753 -0.0709 -1.5002
  143OSM   H18T15744   7.256   5.932   4.263 -1.2980  0.4550  0.3657
  143OSM   H18U15745   7.179   5.773   4.257  0.3525 -0.7135  0.2853
  143OSM    C1F15746   7.620   5.561   5.895  0.3684  0.0126  0.1082
  143OSM     OF15747   7.607   5.466   5.968  0.2245 -0.0491 -0.1877
  143OSM    C2F15748   7.741   5.570   5.803  0.0297 -0.0704 -0.1803
  143OSM    H2F15749   7.833   5.555   5.864  0.0870 -3.1417 -0.9443
  143OSM    H2G15750   7.744   5.672   5.757  0.9333 -0.1835 -0.3816
  143OSM    C3F15751   7.734   5.453   5.693  0.5897  0.2260 -0.3233
  143OSM    H3F15752   7.715   5.359   5.749 -1.3214  0.9042  0.1901
  143OSM    H3G15753   7.830   5.425   5.645  1.1043  1.0158  0.2331
  143OSM    C4F15754   7.625   5.474   5.580 -0.4344 -0.1230  0.2613
  143OSM    H4F15755   7.525   5.491   5.626 -0.1275 -0.4486  1.0455
  143OSM    H4G15756   7.623   5.381   5.520 -0.7021 -0.8446  1.3787
  143OSM    C5F15757   7.653   5.598   5.484 -0.3749 -0.0429 -0.1706
  143OSM    H5F15758   7.760   5.594   5.455 -0.0342  0.3013  1.0189
  143OSM    H5G15759   7.637   5.692   5.540  0.6999  0.9637 -1.5162
  143OSM    C6F15760   7.543   5.610   5.377 -0.4457  0.2979  0.0584
  143OSM    H6F15761   7.556   5.709   5.327  0.4760  0.7259  1.1116
  143OSM    H6G15762   7.441   5.600   5.418 -0.1863  1.8526  1.1130
  143OSM    C7F15763   7.565   5.505   5.262  0.6766 -0.2117 -0.0496
  143OSM    H7F15764   7.601   5.406   5.297 -1.0041 -0.6922  0.3886
  143OSM    H7G15765   7.641   5.530   5.185 -0.9221 -1.9959 -2.2515
  143OSM    C8F15766   7.436   5.468   5.187 -0.4107  0.2191 -0.5927
  143OSM    H8F15767   7.466   5.413   5.095  2.5787  2.6326 -1.1289
  143OSM    H8G15768   7.389   5.564   5.157 -1.6737 -0.8864 -2.2804
  143OSM    C9F15769   7.342   5.375   5.265 -0.0956 -0.3656  0.0780
  143OSM    H9F15770   7.356   5.379   5.374 -1.1777 -1.7659  0.2780
  143OSM   C10F15771   7.234   5.304   5.230 -0.3858  1.0638 -0.0991
  143OSM   H10F15772   7.190   5.229   5.298  1.2481 -0.5167 -0.7684
  143OSM   C11F15773   7.183   5.295   5.086  0.6946 -0.4232  0.3512
  143OSM   H11F15774   7.190   5.391   5.030 -2.7009  0.4989  1.3975
  143OSM   H11G15775   7.078   5.263   5.070  1.1750 -1.8956  0.0436
  143OSM   C12F15776   7.272   5.191   5.016  0.4502 -0.0156 -0.6203
  143OSM   H12F15777   7.246   5.096   5.067 -1.1222  1.3430  1.2232
  143OSM   H12G15778   7.382   5.201   5.027  0.3224  0.3135  0.4915
  143OSM   C13F15779   7.246   5.179   4.865  0.3500 -0.0991 -0.1866
  143OSM   H13F15780   7.139   5.185   4.838  0.4372 -0.0113 -0.5170
  143OSM   H13G15781   7.278   5.080   4.826 -0.3510  0.0333 -1.1084
  143OSM   C14F15782   7.319   5.296   4.792 -0.1703  0.3352 -0.0607
  143OSM   H14F15783   7.427   5.295   4.816  0.1340  3.9385 -1.0497
  143OSM   H14G15784   7.279   5.390   4.834 -2.4078 -0.5955 -0.0100
  143OSM   C15F15785   7.295   5.299   4.641 -0.0139  0.2222  0.2132
  143OSM   H15F15786   7.333   5.395   4.600 -0.6413 -0.1266 -1.1775
  143OSM   H15G15787   7.188   5.303   4.612 -0.0482 -1.1841  0.1293
  143OSM   C16F15788   7.373   5.182   4.575 -0.6985  0.0462  0.5470
  143OSM   H16F15789   7.322   5.088   4.605 -0.5954 -0.4409 -0.7627
  143OSM   H16G15790   7.475   5.177   4.618 -1.1924 -3.8687  1.4421
  143OSM   C17F15791   7.372   5.199   4.418  0.1578  0.3029  0.4603
  143OSM   H17F15792   7.429   5.286   4.379 -0.9347  1.9395  2.4123
  143OSM   H17G15793   7.270   5.205   4.374  0.6961 -0.2125 -0.8856
  143OSM   C18F15794   7.421   5.073   4.358 -0.4645 -0.5539 -0.3939
  143OSM   H18F15795   7.373   4.985   4.406  2.1575 -2.0216 -0.3688
  143OSM   H18G15796   7.529   5.054   4.373 -0.6135 -2.4591 -1.5123
  143OSM   H18H15797   7.397   5.065   4.249  1.5748 -1.0201 -0.8397
  144OSM      N15798   0.654   4.580   6.288  0.3795 -0.6538  0.5296
  144OSM    C1515799   0.789   4.516   6.311  0.4824  0.2218 -0.4543
  144OSM   H15A15800   0.779   4.413   6.342  2.2559 -0.0977 -0.8785
  144OSM   H15B15801   0.834   4.567   6.394  1.6516 -0.3203 -0.7498
  144OSM   H15C15802   0.855   4.516   6.226 -1.7552 -1.9735 -2.2925
  144OSM    C1415803   0.675   4.721   6.250 -0.2699 -0.6458 -0.1181
  144OSM   H14A15804   0.730   4.768   6.331 -1.9753  1.4065 -0.1154
  144OSM   H14B15805   0.587   4.781   6.234 -0.0741 -0.1579  0.5785
  144OSM   H14C15806   0.739   4.733   6.164 -1.2161  1.2232 -0.5910
  144OSM    C1315807   0.585   4.509   6.179  0.3122 -0.2556 -0.6015
  144OSM   H13A15808   0.636   4.515   6.084  0.0689 -0.1031 -0.7223
  144OSM   H13B15809   0.485   4.549   6.170  0.8795  1.4725  0.5889
  144OSM   H13C15810   0.579   4.405   6.205  1.1842 -0.2499 -0.3681
  144OSM    C1215811   0.570   4.561   6.412  0.4087  0.4398  0.1025
  144OSM   H12A15812   0.635   4.585   6.495  3.0566 -2.0588 -1.1613
  144OSM   H12B15813   0.542   4.457   6.427  1.8300 -0.1953 -1.5340
  144OSM    C1115814   0.432   4.638   6.417  0.3123  0.8010 -0.4819
  144OSM   H11A15815   0.456   4.746   6.413  2.1705  0.3560 -1.6065
  144OSM   H11B15816   0.389   4.615   6.517 -1.2870  1.3765 -1.0237
  144OSM      P15817   0.187   4.624   6.317 -0.1158  0.2980 -0.0749
  144OSM    O1315818   0.120   4.560   6.201 -0.3822 -0.1364 -0.6098
  144OSM    O1415819   0.132   4.594   6.450 -0.2469 -0.3195 -0.6786
  144OSM    O1115820   0.174   4.783   6.291  0.4116  0.2851 -0.6129
  144OSM    O1215821   0.345   4.597   6.317  0.4354 -0.0799  0.1002
  144OSM    C1S15822   0.240   4.852   6.189  0.5268  0.1203 -0.0707
  144OSM    H1S15823   0.347   4.825   6.176  0.9448  1.1750  1.0393
  144OSM    H1T15824   0.247   4.960   6.218 -0.1248  0.3042 -0.6096
  144OSM     NF15825   0.246   4.891   5.949  0.2208 -0.4444 -0.0128
  144OSM    HNF15826   0.236   4.986   5.918  0.8380 -0.1547  0.6530
  144OSM    C2S15827   0.160   4.848   6.056 -0.7658  0.6779  0.1073
  144OSM    H2S15828   0.138   4.743   6.027  0.9386  0.2037  0.4843
  144OSM    C3S15829   0.025   4.927   6.071  0.4859 -0.2539 -0.1698
  144OSM    H3S15830   0.049   5.020   6.126  0.6028  0.1396 -0.8861
  144OSM     O315831  -0.062   4.861   6.159  0.3840 -0.7174  0.6435
  144OSM    HO315832  -0.007   4.798   6.207  1.4802  0.8366  1.4423
  144OSM    C4S15833  -0.053   4.946   5.946  0.3335 -0.0500  0.1510
  144OSM    H4S15834  -0.102   4.865   5.891 -1.5988  0.8732  0.4811
  144OSM    C5S15835  -0.065   5.068   5.892  0.0698 -0.1109  0.6438
  144OSM    H5S15836  -0.005   5.153   5.929  1.8939 -0.9939 -0.2388
  144OSM    C6S15837  -0.147   5.101   5.767  0.6614  0.2742 -0.6108
  144OSM    H6S15838  -0.203   5.196   5.782 -0.7948 -0.5498 -0.7820
  144OSM    H6T15839  -0.230   5.031   5.747  1.0723 -0.1814 -0.7307
  144OSM    C7S15840  -0.071   5.132   5.635 -0.0360 -0.5339  0.3991
  144OSM    H7S15841   0.016   5.199   5.651  1.6566 -2.1233 -1.8156
  144OSM    H7T15842  -0.138   5.186   5.565 -1.7103 -0.3356  2.1139
  144OSM    C8S15843  -0.021   5.001   5.565 -0.1890 -0.5073  0.3522
  144OSM    H8S15844  -0.109   4.941   5.536 -1.3299  0.7543  1.1249
  144OSM    H8T15845   0.050   4.944   5.628  0.4532 -1.0068 -0.8162
  144OSM    C9S15846   0.053   5.045   5.436  1.4202 -0.8219 -0.0024
  144OSM    H9S15847   0.113   5.135   5.458 -0.9978  1.0187 -0.6857
  144OSM    H9T15848  -0.020   5.077   5.358  3.5489  1.3883 -1.1462
  144OSM   C10S15849   0.142   4.928   5.391  0.1924  0.1719  1.0130
  144OSM   H10S15850   0.078   4.861   5.331 -0.5383 -0.6026  2.6178
  144OSM   H10T15851   0.176   4.863   5.475 -0.4921 -0.7085  0.6073
  144OSM   C11S15852   0.266   4.967   5.314  0.0987  0.1998 -0.0390
  144OSM   H11S15853   0.322   4.876   5.284  0.7262  0.8680 -0.8933
  144OSM   H11T15854   0.332   5.037   5.369  3.1004 -0.0793 -3.1423
  144OSM   C12S15855   0.240   5.042   5.180 -0.0680 -0.3020 -0.1976
  144OSM   H12S15856   0.169   5.122   5.211  2.1074  1.8533 -0.6059
  144OSM   H12T15857   0.197   4.967   5.109  0.6642 -1.4232  0.5311
  144OSM   C13S15858   0.365   5.091   5.117  0.2317  0.2239  0.0402
  144OSM   H13S15859   0.439   5.009   5.130  0.4455  0.3940 -0.1007
  144OSM   H13T15860   0.399   5.191   5.152  0.5454  1.1536 -2.7909
  144OSM   C14S15861   0.358   5.113   4.958 -0.1180  0.4342  0.0457
  144OSM   H14S15862   0.251   5.139   4.939 -0.3531 -0.6226 -0.0992
  144OSM   H14T15863   0.361   5.012   4.913  1.6056  0.0297  1.0445
  144OSM   C15S15864   0.457   5.209   4.897 -0.0158  0.0757  0.0177
  144OSM   H15S15865   0.554   5.156   4.894 -0.6904 -1.1056 -1.7182
  144OSM   H15T15866   0.464   5.305   4.953 -1.3382  1.4046 -2.0040
  144OSM   C16S15867   0.426   5.230   4.749  0.5024  0.0108 -0.2181
  144OSM   H16S15868   0.482   5.315   4.707  0.3728 -0.1295 -0.6746
  144OSM   H16T15869   0.315   5.241   4.741  0.6091  0.6610 -0.7585
  144OSM   C17S15870   0.465   5.106   4.667  1.1684  0.2742 -0.7265
  144OSM   H17S15871   0.401   5.016   4.684  0.2994  1.3339  1.8395
  144OSM   H17T15872   0.564   5.076   4.708 -0.1500 -0.6454  1.8899
  144OSM   C18S15873   0.465   5.130   4.517 -0.8789  0.2236 -0.3169
  144OSM   H18S15874   0.516   5.050   4.459  3.9716  1.8682  1.4559
  144OSM   H18T15875   0.508   5.231   4.500 -0.6012 -0.1459 -1.8735
  144OSM   H18U15876   0.359   5.132   4.484 -0.7670 -1.4017 -0.8238
  144OSM    C1F15877   0.349   4.822   5.905 -0.0870  0.0482  0.1278
  144OSM     OF15878   0.394   4.717   5.954 -0.2258 -0.3630 -0.5221
  144OSM    C2F15879   0.429   4.894   5.793 -0.0069 -0.4789 -0.1175
  144OSM    H2F15880   0.480   4.974   5.850  1.4644 -0.5751 -1.2646
  144OSM    H2G15881   0.359   4.937   5.719  0.4589  0.1880 -0.1709
  144OSM    C3F15882   0.520   4.797   5.718 -0.7195 -0.0293  0.1044
  144OSM    H3F15883   0.558   4.715   5.782  2.4505  2.0837  1.0573
  144OSM    H3G15884   0.609   4.856   5.688 -0.6635  0.2767  0.8782
  144OSM    C4F15885   0.453   4.745   5.588 -0.1029  0.4362  0.2420
  144OSM    H4F15886   0.412   4.828   5.525  3.4132  1.2253 -1.1104
  144OSM    H4G15887   0.361   4.687   5.611  1.9494 -2.3870  1.4953
  144OSM    C5F15888   0.543   4.656   5.507  0.5760  0.1261 -0.5893
  144OSM    H5F15889   0.484   4.606   5.427 -1.2535  0.6689  0.4019
  144OSM    H5G15890   0.583   4.576   5.573 -1.3490 -1.6063 -1.4918
  144OSM    C6F15891   0.659   4.734   5.443 -0.3416 -0.2488  0.0976
  144OSM    H6F15892   0.728   4.657   5.401  0.5179  0.6381 -0.1222
  144OSM    H6G15893   0.717   4.784   5.523 -0.1598 -1.7830  0.9501
  144OSM    C7F15894   0.621   4.822   5.320 -0.7182 -0.6860  0.0184
  144OSM    H7F15895   0.568   4.913   5.355 -0.1421 -0.7096  0.9709
  144OSM    H7G15896   0.572   4.752   5.249 -1.6881 -0.0273  0.0350
  144OSM    C8F15897   0.748   4.872   5.246 -0.1090 -0.4402  0.2705
  144OSM    H8F15898   0.810   4.786   5.214  1.0775  0.3586  0.3891
  144OSM    H8G15899   0.798   4.930   5.326 -0.8405  1.9811 -0.9745
  144OSM    C9F15900   0.712   4.952   5.124 -0.4378 -0.1398 -0.5004
  144OSM    H9F15901   0.685   5.055   5.152  1.7563  0.7086 -1.3997
  144OSM   C10F15902   0.728   4.917   4.995  0.2941  0.1556  0.3190
  144OSM   H10F15903   0.700   4.991   4.918  0.4114  0.8146  0.9017
  144OSM   C11F15904   0.777   4.790   4.927  0.3886  0.3910 -0.0983
  144OSM   H11F15905   0.832   4.724   4.997 -1.8436 -0.5267  0.8536
  144OSM   H11G15906   0.855   4.817   4.853  1.6655  0.7317  1.3376
  144OSM   C12F15907   0.659   4.715   4.869 -0.6021 -0.8451 -0.0738
  144OSM   H12F15908   0.584   4.704   4.950 -0.2156 -0.2404  0.3694
  144OSM   H12G15909   0.693   4.610   4.855  3.6241  0.3456  0.4862
  144OSM   C13F15910   0.604   4.761   4.740  0.9312  0.0989  1.0324
  144OSM   H13F15911   0.691   4.768   4.671 -0.1845 -1.6116 -0.6042
  144OSM   H13G15912   0.566   4.864   4.753 -2.9495 -0.9790 -1.1669
  144OSM   C14F15913   0.515   4.663   4.669  0.6329  0.3242 -0.3516
  144OSM   H14F15914   0.415   4.652   4.715  1.0743 -0.8138  0.3633
  144OSM   H14G15915   0.563   4.563   4.668  4.3492  1.9981  0.5353
  144OSM   C15F15916   0.496   4.711   4.518  0.4133  0.1924 -0.8098
  144OSM   H15F15917   0.589   4.725   4.459 -1.2026 -2.6716 -4.2373
  144OSM   H15G15918   0.440   4.807   4.524  2.1596  1.1448  1.2843
  144OSM   C16F15919   0.412   4.611   4.442  0.4912 -0.2507 -0.0692
  144OSM   H16F15920   0.375   4.674   4.358 -0.0937 -1.4435 -0.7295
  144OSM   H16G15921   0.319   4.580   4.495  0.8967 -3.2407 -0.9762
  144OSM   C17F15922   0.489   4.489   4.396  0.6442 -0.5866 -0.0852
  144OSM   H17F15923   0.513   4.426   4.485  1.7396 -0.2990 -0.1739
  144OSM   H17G15924   0.584   4.519   4.348  0.2617 -1.7299 -1.5736
  144OSM   C18F15925   0.401   4.403   4.300  0.0770 -0.0332  0.0466
  144OSM   H18F15926   0.329   4.459   4.236 -0.3768 -0.5274  0.1216
  144OSM   H18G15927   0.336   4.348   4.371 -1.1750  1.7320  0.3109
  144OSM   H18H15928   0.460   4.335   4.235 -0.2165  0.9644 -1.2847
  145OSM      N15929   0.755   6.859   6.198  0.2669  0.7176 -0.1817
  145OSM    C1515930   0.798   6.712   6.178 -0.0119  0.3405  0.2841
  145OSM   H15A15931   0.820   6.661   6.270  2.5598  0.4953 -0.2143
  145OSM   H15B15932   0.895   6.700   6.132  1.0803 -0.4407  2.7414
  145OSM   H15C15933   0.725   6.660   6.117  0.0382  0.7433 -0.1184
  145OSM    C1415934   0.870   6.941   6.252 -0.8123 -0.3915  0.6297
  145OSM   H14A15935   0.835   7.043   6.256 -0.7352 -0.3477  0.1983
  145OSM   H14B15936   0.960   6.929   6.194  0.3621  1.5501  1.9931
  145OSM   H14C15937   0.895   6.903   6.350 -2.2425 -1.0290  0.7638
  145OSM    C1315938   0.723   6.911   6.059  0.1620  0.3157  0.7738
  145OSM   H13A15939   0.652   6.844   6.013 -0.4561  0.2693  1.7914
  145OSM   H13B15940   0.807   6.909   5.992 -0.9484  1.0842 -0.6848
  145OSM   H13C15941   0.693   7.015   6.062 -2.1618 -0.2638 -0.9606
  145OSM    C1215942   0.629   6.869   6.282 -0.2146 -0.6938  0.0317
  145OSM   H12A15943   0.622   6.803   6.367 -0.0903 -0.7817 -0.0263
  145OSM   H12B15944   0.545   6.830   6.227 -1.1570 -0.0188  0.9575
  145OSM    C1115945   0.597   7.010   6.341  0.1712 -0.3227  0.3986
  145OSM   H11A15946   0.680   7.057   6.397  0.8496  0.2061 -1.0417
  145OSM   H11B15947   0.509   6.988   6.406 -2.0433  0.9993 -2.0727
  145OSM      P15948   0.562   7.250   6.245 -0.4604  0.3029  0.1694
  145OSM    O1315949   0.481   7.310   6.350  0.2027  0.6552 -0.1313
  145OSM    O1415950   0.708   7.279   6.239  0.0064 -0.2641 -0.8966
  145OSM    O1115951   0.496   7.296   6.098 -0.0877  1.0963 -0.6980
  145OSM    O1215952   0.544   7.087   6.242 -0.6027 -0.8495 -0.4315
  145OSM    C1S15953   0.529   7.412   6.033  0.9305 -0.2885  0.7505
  145OSM    H1S15954   0.548   7.489   6.111  1.9820  0.5470 -0.3079
  145OSM    H1T15955   0.441   7.430   5.968  2.0947 -0.7889 -1.0073
  145OSM     NF15956   0.669   7.520   5.862  0.8072 -0.1388 -0.3704
  145OSM    HNF15957   0.623   7.538   5.775  0.8461 -2.5151 -0.9255
  145OSM    C2S15958   0.650   7.394   5.933 -0.8278  0.1215  0.2206
  145OSM    H2S15959   0.737   7.367   5.997  0.5211  1.4237 -1.0189
  145OSM    C3S15960   0.627   7.272   5.833 -0.1675  0.4493  0.9305
  145OSM    H3S15961   0.529   7.295   5.785 -0.9082 -2.2248  1.0620
  145OSM     O315962   0.606   7.151   5.899  0.5241 -0.1003  0.3893
  145OSM    HO315963   0.578   7.189   5.983 -2.5592  1.7438 -1.3359
  145OSM    C4S15964   0.740   7.268   5.727 -1.2033 -0.2764 -0.3700
  145OSM    H4S15965   0.726   7.317   5.630 -2.4940  1.7901  0.8284
  145OSM    C5S15966   0.864   7.217   5.749  0.1231 -0.6460  0.4713
  145OSM    H5S15967   0.889   7.184   5.851 -0.4613  0.2677  0.9074
  145OSM    C6S15968   0.976   7.204   5.645  0.4645  0.2548 -0.0046
  145OSM    H6S15969   0.987   7.095   5.624  1.3095  0.4993 -0.8341
  145OSM    H6T15970   1.068   7.259   5.673 -1.0620  2.7145  0.3689
  145OSM    C7S15971   0.939   7.276   5.506  0.6757 -0.5884  0.1543
  145OSM    H7S15972   0.922   7.385   5.521  1.6869 -0.4170  0.0870
  145OSM    H7T15973   0.848   7.224   5.469  0.8349 -0.5765 -0.2571
  145OSM    C8S15974   1.047   7.262   5.391  0.1598  0.0390 -0.3753
  145OSM    H8S15975   1.054   7.152   5.387  0.6352 -0.0631  2.2178
  145OSM    H8T15976   1.144   7.310   5.418 -1.2964  2.7321  0.2422
  145OSM    C9S15977   1.001   7.325   5.260  0.5475  0.7510 -0.3045
  145OSM    H9S15978   1.004   7.435   5.276 -0.0659  0.5250  1.4806
  145OSM    H9T15979   0.896   7.297   5.239  0.5050  0.3279  0.4491
  145OSM   C10S15980   1.083   7.283   5.144 -0.3855  0.2518  0.3288
  145OSM   H10S15981   1.082   7.171   5.141 -0.7396  0.2893 -3.5323
  145OSM   H10T15982   1.187   7.317   5.159 -0.2018 -0.1064 -0.1148
  145OSM   C11S15983   1.042   7.338   5.011 -0.3450  0.1357  1.2901
  145OSM   H11S15984   1.042   7.449   4.999 -0.6005 -0.2313 -3.2322
  145OSM   H11T15985   0.934   7.319   4.991  0.2094 -1.2432 -0.5683
  145OSM   C12S15986   1.129   7.276   4.894  0.4703  0.2920  0.3888
  145OSM   H12S15987   1.125   7.166   4.912  2.9036  0.1342  0.1413
  145OSM   H12T15988   1.236   7.303   4.906  0.3636  1.4569 -1.0884
  145OSM   C13S15989   1.081   7.326   4.761  0.1079 -0.3247 -0.3408
  145OSM   H13S15990   1.093   7.436   4.755  0.3227 -0.4285 -2.2910
  145OSM   H13T15991   0.979   7.290   4.738  0.4120 -0.4906 -1.4827
  145OSM   C14S15992   1.176   7.269   4.655 -0.5263  0.0469  0.2956
  145OSM   H14S15993   1.183   7.158   4.662 -1.6586  0.0131  0.9955
  145OSM   H14T15994   1.278   7.305   4.681 -0.1040 -2.1931  1.8766
  145OSM   C15S15995   1.147   7.314   4.511 -1.3541 -0.2113  0.1928
  145OSM   H15S15996   1.171   7.422   4.509 -2.2307 -0.0241 -1.4465
  145OSM   H15T15997   1.037   7.300   4.505 -1.4107 -2.2790  4.1390
  145OSM   C16S15998   1.215   7.239   4.396 -0.3490  0.5211 -0.4315
  145OSM   H16S15999   1.222   7.132   4.425 -0.6900  0.6449  0.1052
  145OSM   H16T16000   1.317   7.280   4.379 -0.2858  1.7094  2.5720
  145OSM   C17S16001   1.142   7.245   4.269 -0.3187  0.1681  0.1434
  145OSM   H17S16002   1.038   7.213   4.294 -0.6423  0.1932 -1.1573
  145OSM   H17T16003   1.185   7.177   4.193  1.3939  1.7372 -0.3084
  145OSM   C18S16004   1.137   7.382   4.205  0.1076  0.2852 -0.3146
  145OSM   H18S16005   1.239   7.424   4.201 -0.7603  2.5605  0.4856
  145OSM   H18T16006   1.075   7.451   4.266 -1.1155  1.1102 -2.4207
  145OSM   H18U16007   1.084   7.384   4.107  0.5641 -1.4207 -0.6106
  145OSM    C1F16008   0.734   7.622   5.920 -0.2140  0.0329 -0.5616
  145OSM     OF16009   0.803   7.609   6.025  0.2041 -0.4209  0.4381
  145OSM    C2F16010   0.726   7.755   5.857 -0.7399  0.0052 -0.2344
  145OSM    H2F16011   0.697   7.826   5.938 -4.0434 -2.4803  0.8667
  145OSM    H2G16012   0.644   7.755   5.783 -1.6012  1.0990  0.6999
  145OSM    C3F16013   0.859   7.796   5.796 -0.0024 -0.1799 -0.0106
  145OSM    H3F16014   0.934   7.806   5.877  1.6320  0.2074 -1.5354
  145OSM    H3G16015   0.856   7.903   5.765 -1.0620 -0.8396 -2.2831
  145OSM    C4F16016   0.911   7.697   5.688  0.5896  0.3932  0.8810
  145OSM    H4F16017   0.907   7.590   5.719 -1.1272  0.4862  1.0511
  145OSM    H4G16018   1.017   7.724   5.666  0.9830 -1.9647 -0.2827
  145OSM    C5F16019   0.824   7.706   5.557  0.0890 -0.2876  0.0198
  145OSM    H5F16020   0.716   7.690   5.577 -0.4606  0.1101 -2.4734
  145OSM    H5G16021   0.857   7.623   5.490  4.2866  1.9994 -0.9513
  145OSM    C6F16022   0.844   7.831   5.473 -0.0732  0.2962 -0.8402
  145OSM    H6F16023   0.952   7.856   5.476  0.5611 -2.4334  0.9455
  145OSM    H6G16024   0.778   7.910   5.517 -0.3520 -0.6167  0.4247
  145OSM    C7F16025   0.778   7.809   5.339  0.2195  0.0131 -0.1555
  145OSM    H7F16026   0.759   7.902   5.281  1.8769  0.3051 -0.2369
  145OSM    H7G16027   0.678   7.765   5.359  1.2408 -0.3871  4.4254
  145OSM    C8F16028   0.844   7.716   5.232  0.2057 -0.5552  0.1367
  145OSM    H8F16029   0.782   7.733   5.142 -0.1555  0.4541  0.5759
  145OSM    H8G16030   0.843   7.610   5.267  0.5944 -0.4798  0.3794
  145OSM    C9F16031   0.994   7.755   5.208 -0.0212  0.2061 -0.0136
  145OSM    H9F16032   1.058   7.741   5.296 -0.7244  0.1247  0.4836
  145OSM   C10F16033   1.054   7.788   5.092  0.4061 -0.6948 -0.5333
  145OSM   H10F16034   1.163   7.806   5.097  0.3758 -1.0296  2.3686
  145OSM   C11F16035   0.986   7.804   4.953  0.0273 -0.8723  0.2934
  145OSM   H11F16036   0.991   7.909   4.918  0.3589 -1.7505 -2.3650
  145OSM   H11G16037   0.877   7.794   4.972  0.1247 -1.3403  0.6172
  145OSM   C12F16038   1.026   7.709   4.837  0.1548  0.7164  0.6474
  145OSM   H12F16039   0.947   7.725   4.760 -0.1681  0.3069  0.8893
  145OSM   H12G16040   1.026   7.604   4.874 -0.5563 -0.1615 -1.7265
  145OSM   C13F16041   1.156   7.738   4.761  0.8176  0.5551 -0.0293
  145OSM   H13F16042   1.185   7.647   4.705  1.6036 -0.1438  1.5041
  145OSM   H13G16043   1.243   7.754   4.829  0.9222 -1.6002  0.3755
  145OSM   C14F16044   1.142   7.858   4.662  0.8374 -0.3174  0.4415
  145OSM   H14F16045   1.129   7.947   4.727  0.9287 -0.5117  0.7261
  145OSM   H14G16046   1.042   7.846   4.615  0.4221  0.6343  1.0647
  145OSM   C15F16047   1.251   7.887   4.559  0.2596 -0.3516 -0.3026
  145OSM   H15F16048   1.349   7.886   4.610 -0.7594  0.5180  1.7162
  145OSM   H15G16049   1.239   7.990   4.518 -0.9355 -0.6675 -0.7713
  145OSM   C16F16050   1.248   7.775   4.449 -0.0562 -0.5231 -0.6363
  145OSM   H16F16051   1.142   7.767   4.415  0.2160 -0.5892 -1.4874
  145OSM   H16G16052   1.272   7.679   4.499  0.9096  0.2717  0.4533
  145OSM   C17F16053   1.354   7.803   4.341  0.6399  0.0705 -0.4800
  145OSM   H17F16054   1.456   7.815   4.383  1.1248 -2.3313 -0.8724
  145OSM   H17G16055   1.316   7.893   4.289  2.5346  0.6509 -0.8950
  145OSM   C18F16056   1.362   7.673   4.251  0.0197 -0.3503 -0.0192
  145OSM   H18F16057   1.363   7.573   4.299 -0.6003 -0.5843 -0.4888
  145OSM   H18G16058   1.436   7.687   4.169 -1.1006 -1.8346 -1.3119
  145OSM   H18H16059   1.271   7.666   4.188 -0.1811 -1.2612  0.3686
  146OSM      N16060   6.957   0.328   6.503 -0.4968  0.2983  0.1986
  146OSM    C1516061   6.871   0.428   6.581 -0.1150 -0.0523 -0.0093
  146OSM   H15A16062   6.769   0.393   6.587 -0.5558  0.8468 -1.9570
  146OSM   H15B16063   6.881   0.528   6.541 -0.1001 -0.4358 -0.9763
  146OSM   H15C16064   6.922   0.440   6.676 -0.6916  0.2791  0.2612
  146OSM    C1416065   7.103   0.368   6.499 -0.3279  0.0869 -0.2799
  146OSM   H14A16066   7.155   0.303   6.431  1.2671 -0.6545  1.6114
  146OSM   H14B16067   7.153   0.352   6.593 -1.1830 -1.5753 -0.0865
  146OSM   H14C16068   7.105   0.471   6.466  1.2037 -0.0707 -0.6867
  146OSM    C1316069   6.959   0.196   6.579  0.2928  0.1378 -0.2570
  146OSM   H13A16070   7.006   0.118   6.519  1.2529  0.1172  0.5079
  146OSM   H13B16071   6.858   0.162   6.592 -0.1206  1.4629  0.0111
  146OSM   H13C16072   7.007   0.208   6.675  1.8051  0.0309 -0.9848
  146OSM    C1216073   6.894   0.309   6.365 -0.2035 -0.2757 -0.6897
  146OSM   H12A16074   6.888   0.408   6.323 -0.2011  0.5594  1.2370
  146OSM   H12B16075   6.792   0.279   6.384  0.0025  0.9356  2.6767
  146OSM    C1116076   6.971   0.214   6.268  0.2425  0.4701  0.1634
  146OSM   H11A16077   7.066   0.261   6.234  0.3927 -0.8472 -1.3342
  146OSM   H11B16078   6.911   0.207   6.175 -0.7876  0.6889  0.8083
  146OSM      P16079   7.123   0.011   6.317 -0.4464 -0.0979 -0.0284
  146OSM    O1316080   7.198   0.028   6.443 -0.3625  0.0502  0.1536
  146OSM    O1416081   7.100  -0.126   6.271 -0.2679  0.3363 -0.4816
  146OSM    O1116082   7.200   0.091   6.205 -0.3049 -0.2788 -0.5678
  146OSM    O1216083   6.986   0.085   6.323  0.0682  0.1989 -0.0945
  146OSM    C1S16084   7.310   0.026   6.134  1.0966 -0.0376  0.1206
  146OSM    H1S16085   7.272  -0.046   6.058  3.5595 -2.6625  1.3067
  146OSM    H1T16086   7.374  -0.028   6.206  1.0703 -0.8573 -0.4724
  146OSM     NF16087   7.495   0.054   5.975 -0.2447  0.2700  0.0370
  146OSM    HNF16088   7.581   0.015   6.007 -0.4245  0.8905  1.3241
  146OSM    C2S16089   7.409   0.128   6.070  0.0703  0.2892 -0.1961
  146OSM    H2S16090   7.352   0.206   6.014 -1.0686 -0.3233  0.1035
  146OSM    C3S16091   7.477   0.206   6.190 -0.0348  0.4671 -0.0030
  146OSM    H3S16092   7.523   0.135   6.262  1.4976  2.2795  0.8685
  146OSM     O316093   7.383   0.283   6.265  0.0952  0.2367 -0.0801
  146OSM    HO316094   7.300   0.241   6.240 -0.1926  0.2340  0.8809
  146OSM    C4S16095   7.590   0.290   6.134  0.2728  0.2965  0.0547
  146OSM    H4S16096   7.683   0.234   6.114  0.1470  0.3875 -0.8105
  146OSM    C5S16097   7.582   0.415   6.095  0.1514 -0.4769 -0.3396
  146OSM    H5S16098   7.482   0.461   6.105  0.8557  0.7885  1.0579
  146OSM    C6S16099   7.697   0.512   6.047  0.0559  0.0490  0.0317
  146OSM    H6S16100   7.793   0.499   6.101  0.4888 -0.3403 -0.8358
  146OSM    H6T16101   7.675   0.619   6.067 -1.3069 -0.1445 -0.3777
  146OSM    C7S16102   7.727   0.513   5.896  0.1200  1.0569 -1.0795
  146OSM    H7S16103   7.787   0.425   5.864  0.7871  1.4101 -0.8128
  146OSM    H7T16104   7.787   0.603   5.874 -1.6000  2.2225 -1.0648
  146OSM    C8S16105   7.600   0.514   5.812  0.2712 -0.8175 -0.1234
  146OSM    H8S16106   7.533   0.589   5.860  1.2513 -1.6707  2.6948
  146OSM    H8T16107   7.556   0.414   5.833  0.2348 -0.3687  2.0772
  146OSM    C9S16108   7.628   0.542   5.663  0.0051 -0.1347 -0.8483
  146OSM    H9S16109   7.671   0.446   5.626 -0.0270  0.3741 -2.2219
  146OSM    H9T16110   7.703   0.624   5.658 -0.5823  0.4194 -0.6776
  146OSM   C10S16111   7.509   0.586   5.572 -0.1504 -0.8617  0.2141
  146OSM   H10S16112   7.434   0.653   5.618 -0.2699  0.2594 -1.5342
  146OSM   H10T16113   7.445   0.498   5.548 -2.7477  1.9453 -3.8644
  146OSM   C11S16114   7.554   0.639   5.437 -0.9558 -0.2058  1.1447
  146OSM   H11S16115   7.566   0.747   5.459  0.5078 -0.5628  2.2349
  146OSM   H11T16116   7.468   0.632   5.368 -0.9152 -2.2527  1.2496
  146OSM   C12S16117   7.678   0.582   5.364 -0.6016 -0.4761 -0.0788
  146OSM   H12S16118   7.673   0.471   5.358 -0.2710 -0.5073  0.2282
  146OSM   H12T16119   7.765   0.613   5.425 -1.8470  0.5832  1.1913
  146OSM   C13S16120   7.705   0.652   5.229 -0.0293  0.3655  0.1873
  146OSM   H13S16121   7.710   0.761   5.246  0.5793  0.3911 -0.1502
  146OSM   H13T16122   7.610   0.637   5.175  0.1671  2.9278 -0.9074
  146OSM   C14S16123   7.815   0.594   5.143  0.1820 -0.3750  0.0075
  146OSM   H14S16124   7.807   0.483   5.148 -0.6667 -0.4031 -1.8477
  146OSM   H14T16125   7.918   0.626   5.170  0.1763  0.5155 -0.9988
  146OSM   C15S16126   7.816   0.647   4.995  0.4961  0.4134 -0.4652
  146OSM   H15S16127   7.840   0.755   5.001  2.2773  0.0142 -0.0340
  146OSM   H15T16128   7.716   0.633   4.948  0.7732  1.4966 -1.3940
  146OSM   C16S16129   7.919   0.580   4.908  0.1888 -0.5689  0.6727
  146OSM   H16S16130   7.859   0.510   4.847  1.1235  0.1267 -1.0690
  146OSM   H16T16131   7.995   0.525   4.968  1.3004  0.4849  0.2575
  146OSM   C17S16132   7.983   0.680   4.809  0.3207 -0.0901 -0.6659
  146OSM   H17S16133   8.060   0.735   4.866 -1.2981  1.0551  0.4646
  146OSM   H17T16134   7.913   0.759   4.773 -0.2088 -0.6607 -0.9105
  146OSM   C18S16135   8.054   0.614   4.686 -0.6096 -0.0908 -0.2039
  146OSM   H18S16136   8.164   0.602   4.694 -0.8779 -2.3775  0.5771
  146OSM   H18T16137   8.038   0.667   4.590  2.1588  1.2366  0.0288
  146OSM   H18U16138   8.013   0.511   4.677  1.1604 -0.6081 -2.8829
  146OSM    C1F16139   7.443   0.019   5.854  0.0582  0.5536  0.4680
  146OSM     OF16140   7.327   0.027   5.825  0.2239  0.1838 -0.6362
  146OSM    C2F16141   7.545  -0.040   5.756 -0.9697 -0.2482  0.1996
  146OSM    H2F16142   7.546  -0.151   5.758  1.5485 -0.2872 -0.8530
  146OSM    H2G16143   7.645  -0.008   5.794 -1.1558  1.5176 -0.7502
  146OSM    C3F16144   7.516  -0.001   5.608 -0.1614  0.3122  1.1711
  146OSM    H3F16145   7.414  -0.035   5.579  0.5375  0.5357 -1.6890
  146OSM    H3G16146   7.586  -0.057   5.542  1.1161  1.4535  1.5336
  146OSM    C4F16147   7.529   0.148   5.581  0.0833 -0.1844 -0.3304
  146OSM    H4F16148   7.632   0.179   5.611  0.1369  0.0153 -0.7162
  146OSM    H4G16149   7.468   0.207   5.653 -0.2344  1.6875 -2.0917
  146OSM    C5F16150   7.512   0.193   5.438  0.1916 -0.2356  0.3542
  146OSM    H5F16151   7.532   0.302   5.433  1.3738 -0.5073 -1.2037
  146OSM    H5G16152   7.415   0.150   5.405 -1.7993  2.1667  2.8546
  146OSM    C6F16153   7.614   0.134   5.336 -0.3654  0.0817  0.0741
  146OSM    H6F16154   7.591   0.026   5.331 -2.3631  0.4891  0.0668
  146OSM    H6G16155   7.714   0.132   5.384 -0.7671  2.4014  1.0663
  146OSM    C7F16156   7.616   0.177   5.189 -0.0943 -1.1842  0.1119
  146OSM    H7F16157   7.633   0.287   5.194 -0.1284 -1.1863  0.2694
  146OSM    H7G16158   7.512   0.169   5.150  0.1688 -0.3685 -0.7920
  146OSM    C8F16159   7.707   0.111   5.093 -0.0805 -0.8327 -0.4964
  146OSM    H8F16160   7.705   0.152   4.989  0.0785  0.4597  0.0024
  146OSM    H8G16161   7.686   0.002   5.089 -2.5567 -0.4692  1.3797
  146OSM    C9F16162   7.848   0.112   5.145  0.1749  0.3588  0.0925
  146OSM    H9F16163   7.863   0.125   5.253  0.1633 -0.4860  0.1996
  146OSM   C10F16164   7.961   0.107   5.076 -0.4850  0.4995 -0.1473
  146OSM   H10F16165   8.053   0.094   5.134 -0.1569  0.6821 -0.6272
  146OSM   C11F16166   7.973   0.098   4.918 -0.2003  0.3491 -0.5771
  146OSM   H11F16167   8.075   0.134   4.895  0.8975 -2.3008 -0.0839
  146OSM   H11G16168   7.899   0.166   4.870 -0.9729  0.7283  1.0994
  146OSM   C12F16169   7.961  -0.047   4.878  0.2977  0.2276  0.2173
  146OSM   H12F16170   7.858  -0.085   4.891  2.0203 -4.7561  0.2237
  146OSM   H12G16171   8.017  -0.112   4.949  1.3157  0.4379 -0.3709
  146OSM   C13F16172   8.012  -0.090   4.750 -0.0183  0.1733 -0.6911
  146OSM   H13F16173   7.976  -0.194   4.733 -0.4172  0.4531 -1.5823
  146OSM   H13G16174   8.121  -0.110   4.752 -0.0604 -0.0480 -0.6283
  146OSM   C14F16175   7.964  -0.010   4.626  0.4907 -1.3047  0.4223
  146OSM   H14F16176   7.967  -0.081   4.540  0.6316 -1.1291  0.2829
  146OSM   H14G16177   7.858   0.022   4.636  1.1845  1.3842 -0.5474
  146OSM   C15F16178   8.052   0.106   4.584  0.1852 -0.1127 -0.0906
  146OSM   H15F16179   8.160   0.080   4.583 -0.3774 -2.5747 -1.3019
  146OSM   H15G16180   8.059   0.183   4.664 -2.5022 -1.3667  1.4243
  146OSM   C16F16181   8.018   0.172   4.444 -0.0204  0.0863  0.1917
  146OSM   H16F16182   7.907   0.171   4.435 -0.0871  1.0681  0.8438
  146OSM   H16G16183   8.061   0.108   4.364 -0.7564 -2.2162  1.5798
  146OSM   C17F16184   8.069   0.315   4.424 -0.5203 -0.2463  0.0366
  146OSM   H17F16185   8.031   0.376   4.509  1.2662  1.0845 -0.0783
  146OSM   H17G16186   8.024   0.350   4.329  0.5304 -1.4889 -0.9372
  146OSM   C18F16187   8.219   0.335   4.411  0.8593 -0.5902  0.2107
  146OSM   H18F16188   8.231   0.445   4.402  2.7135 -0.8101 -0.1786
  146OSM   H18G16189   8.247   0.266   4.328  0.9749 -0.3252  0.0297
  146OSM   H18H16190   8.267   0.293   4.502  2.1409  0.3270 -0.0408
  147OSM      N16191   4.204   4.181   2.328 -0.1029  0.5415  0.4709
  147OSM    C1516192   4.165   4.074   2.228 -0.7612  0.2385  0.2126
  147OSM   H15A16193   4.251   4.033   2.178 -1.8979 -0.8443 -0.8655
  147OSM   H15B16194   4.096   4.114   2.155  1.4788  1.1054 -1.4988
  147OSM   H15C16195   4.126   3.985   2.274 -2.7346  1.4366  0.9438
  147OSM    C1416196   4.263   4.112   2.448  0.4272 -0.3981  0.6730
  147OSM   H14A16197   4.190   4.049   2.496 -0.4469  1.3022  1.6237
  147OSM   H14B16198   4.303   4.182   2.520 -3.0134  0.6359  1.6481
  147OSM   H14C16199   4.345   4.049   2.417 -1.2073 -1.5826 -1.3367
  147OSM    C1316200   4.306   4.273   2.268 -0.3323 -0.1364  0.5915
  147OSM   H13A16201   4.398   4.224   2.239 -0.5059 -0.9574  1.4217
  147OSM   H13B16202   4.329   4.340   2.350 -1.7009 -2.4369  2.9157
  147OSM   H13C16203   4.262   4.319   2.181 -1.3898 -0.1724  1.1066
  147OSM    C1216204   4.083   4.263   2.373 -0.0323 -0.1919  0.2461
  147OSM   H12A16205   4.035   4.312   2.289  0.3520  1.8891  1.2072
  147OSM   H12B16206   4.124   4.339   2.438  1.7605  1.2813 -2.5410
  147OSM    C1116207   3.970   4.195   2.445  0.1667 -0.4232 -0.1804
  147OSM   H11A16208   3.891   4.268   2.476  2.5963  1.4504  1.8143
  147OSM   H11B16209   3.999   4.141   2.537 -0.9507 -0.5422  0.1160
  147OSM      P16210   3.812   4.131   2.237  0.2867  0.3414 -0.4439
  147OSM    O1316211   3.820   4.273   2.203 -0.3006 -0.0770 -0.1373
  147OSM    O1416212   3.844   4.033   2.131  0.6138  0.1390  0.5474
  147OSM    O1116213   3.666   4.094   2.290  0.4367 -0.3391 -0.2900
  147OSM    O1216214   3.905   4.094   2.368  0.3324 -0.0881  0.5672
  147OSM    C1S16215   3.624   3.978   2.363 -0.3014  0.2975 -0.0938
  147OSM    H1S16216   3.713   3.911   2.368  1.3052  2.4255  0.5329
  147OSM    H1T16217   3.549   3.918   2.309  1.3356 -1.7716 -0.1335
  147OSM     NF16218   3.541   3.878   2.575 -0.1590  0.8274  0.5751
  147OSM    HNF16219   3.444   3.865   2.559 -0.0202  0.5022 -0.0397
  147OSM    C2S16220   3.575   4.004   2.514 -0.1957  0.3398 -0.0508
  147OSM    H2S16221   3.657   4.060   2.564 -0.9981  0.3651  1.2596
  147OSM    C3S16222   3.462   4.109   2.505 -0.0696  0.7568  0.3172
  147OSM    H3S16223   3.373   4.062   2.458  2.3336 -3.7014 -0.0367
  147OSM     O316224   3.501   4.230   2.439 -0.2526 -0.8115 -0.4108
  147OSM    HO316225   3.574   4.198   2.385  0.7502  0.7928 -0.0301
  147OSM    C4S16226   3.407   4.143   2.643 -0.5437  0.6887  0.5889
  147OSM    H4S16227   3.489   4.174   2.709  1.3982 -1.6168 -0.6747
  147OSM    C5S16228   3.283   4.118   2.697  0.0793 -0.7109 -0.0538
  147OSM    H5S16229   3.212   4.078   2.623 -0.4910  0.6578 -0.2679
  147OSM    C6S16230   3.235   4.146   2.842  0.0672 -0.2808  0.3389
  147OSM    H6S16231   3.153   4.076   2.870 -1.4005  2.3661  2.7885
  147OSM    H6T16232   3.178   4.240   2.840  0.1326 -0.1741  2.6376
  147OSM    C7S16233   3.329   4.173   2.964 -0.0288 -0.2186  0.0453
  147OSM    H7S16234   3.415   4.239   2.944 -0.1358  0.1944  0.9439
  147OSM    H7T16235   3.371   4.074   2.990 -1.5022 -0.9140 -0.1343
  147OSM    C8S16236   3.261   4.225   3.092  0.2563 -0.5514  0.3764
  147OSM    H8S16237   3.172   4.164   3.116  0.4068 -0.2610  1.7176
  147OSM    H8T16238   3.228   4.328   3.066  0.0636 -0.9160 -0.8572
  147OSM    C9S16239   3.352   4.230   3.209 -0.7094 -0.1244 -0.3596
  147OSM    H9S16240   3.418   4.319   3.198 -0.5078 -0.4025 -1.4703
  147OSM    H9T16241   3.422   4.145   3.226  1.9178  2.1883  0.8927
  147OSM   C10S16242   3.274   4.250   3.339  0.2826  0.1794  0.2359
  147OSM   H10S16243   3.215   4.158   3.361 -2.5115  1.7765 -0.2581
  147OSM   H10T16244   3.197   4.329   3.323 -0.6459 -0.6778  0.4019
  147OSM   C11S16245   3.362   4.299   3.459  0.4859 -0.4000 -0.1794
  147OSM   H11S16246   3.295   4.335   3.540  3.1526  1.1492  1.4025
  147OSM   H11T16247   3.437   4.377   3.434 -1.5466  1.4556 -0.6639
  147OSM   C12S16248   3.425   4.179   3.525  0.3433 -0.1307  0.0222
  147OSM   H12S16249   3.507   4.130   3.468  1.4108 -0.2406  1.6045
  147OSM   H12T16250   3.359   4.093   3.548 -1.0690  1.3300  1.6123
  147OSM   C13S16251   3.499   4.226   3.655  0.5737 -0.4495  0.7581
  147OSM   H13S16252   3.503   4.337   3.664 -0.0954 -0.4103  0.5940
  147OSM   H13T16253   3.606   4.199   3.666  1.3559  2.0930 -0.2739
  147OSM   C14S16254   3.438   4.191   3.791 -0.5326 -0.0099 -0.2729
  147OSM   H14S16255   3.327   4.186   3.790 -0.5577 -1.3512  2.4839
  147OSM   H14T16256   3.451   4.281   3.856 -3.8422 -0.5584  1.2642
  147OSM   C15S16257   3.513   4.078   3.852 -0.2560 -0.1010 -0.4042
  147OSM   H15S16258   3.620   4.090   3.825 -0.1530  2.4908  0.9948
  147OSM   H15T16259   3.482   3.984   3.801  2.8220 -1.9270  0.9291
  147OSM   C16S16260   3.520   4.062   4.008  0.4578 -0.0462 -0.0192
  147OSM   H16S16261   3.580   4.142   4.056 -1.7709  1.1894  0.7517
  147OSM   H16T16262   3.574   3.965   4.021  1.4865  0.3625 -1.1422
  147OSM   C17S16263   3.389   4.042   4.081 -0.8915  0.2483 -0.3855
  147OSM   H17S16264   3.306   3.997   4.024 -0.6595 -0.5964 -0.0649
  147OSM   H17T16265   3.342   4.140   4.103 -1.5463  0.0678 -0.9719
  147OSM   C18S16266   3.407   3.955   4.208  0.1282 -0.0248 -0.1026
  147OSM   H18S16267   3.310   3.956   4.262  0.3302 -0.5018  0.2684
  147OSM   H18T16268   3.481   3.998   4.279 -0.0561  0.6234 -0.3012
  147OSM   H18U16269   3.433   3.847   4.198  0.2338  0.0465 -0.6291
  147OSM    C1F16270   3.625   3.779   2.598 -0.0681  0.3444  1.1801
  147OSM     OF16271   3.741   3.794   2.578 -0.2915  0.2578 -0.0682
  147OSM    C2F16272   3.572   3.643   2.641 -1.2718 -0.2361  0.5802
  147OSM    H2F16273   3.594   3.560   2.571 -1.3219 -1.3383  1.8433
  147OSM    H2G16274   3.461   3.646   2.641 -1.3161  2.5028 -4.2913
  147OSM    C3F16275   3.616   3.610   2.784  0.2026  0.5125 -0.3247
  147OSM    H3F16276   3.727   3.596   2.788 -0.1493 -3.0300 -1.1464
  147OSM    H3G16277   3.572   3.513   2.816 -0.0911  0.9630  0.6568
  147OSM    C4F16278   3.565   3.708   2.895  0.5997  0.2542 -0.1638
  147OSM    H4F16279   3.459   3.730   2.866  0.6110 -0.3733 -0.6757
  147OSM    H4G16280   3.605   3.811   2.879 -0.4323  0.6438 -0.3355
  147OSM    C5F16281   3.582   3.659   3.038 -0.6197 -0.6120 -0.3213
  147OSM    H5F16282   3.689   3.669   3.067 -0.8566  0.4762  0.2014
  147OSM    H5G16283   3.536   3.559   3.053 -0.0454 -0.7578  0.5120
  147OSM    C6F16284   3.527   3.756   3.137  0.2121  0.3756 -0.1081
  147OSM    H6F16285   3.420   3.778   3.116  0.0371  1.8743  2.0817
  147OSM    H6G16286   3.573   3.857   3.137  2.1425 -0.4675  1.0011
  147OSM    C7F16287   3.530   3.696   3.277  0.1541 -0.0075  0.3785
  147OSM    H7F16288   3.637   3.678   3.301  0.5201 -0.0463 -1.2220
  147OSM    H7G16289   3.482   3.596   3.277 -0.8345  0.4673 -0.1991
  147OSM    C8F16290   3.457   3.786   3.377 -0.3824  0.0049  0.3235
  147OSM    H8F16291   3.352   3.778   3.341  0.9286 -0.5349 -3.6933
  147OSM    H8G16292   3.487   3.889   3.348 -1.3308 -0.2872 -1.8331
  147OSM    C9F16293   3.487   3.749   3.518 -0.3461  0.5674 -0.6000
  147OSM    H9F16294   3.589   3.730   3.554 -0.7183  0.6659  0.5451
  147OSM   C10F16295   3.380   3.736   3.599  0.4583  0.2295  0.9407
  147OSM   H10F16296   3.399   3.710   3.704 -0.1619 -1.1968  0.7115
  147OSM   C11F16297   3.238   3.758   3.568 -0.1294 -0.1741 -1.1971
  147OSM   H11F16298   3.208   3.661   3.522  3.2853 -1.3620 -1.0288
  147OSM   H11G16299   3.230   3.837   3.489  0.7073 -0.6004 -1.7168
  147OSM   C12F16300   3.133   3.766   3.682 -0.4570 -0.7643  0.0647
  147OSM   H12F16301   3.174   3.707   3.767  2.3439  1.7692  0.5426
  147OSM   H12G16302   3.031   3.728   3.660 -0.6224 -0.7186  0.7263
  147OSM   C13F16303   3.116   3.912   3.719  0.6008 -0.2745  0.4131
  147OSM   H13F16304   3.063   3.965   3.638 -1.7600  0.5359  2.4454
  147OSM   H13G16305   3.212   3.964   3.740  1.1806 -0.5004 -1.5241
  147OSM   C14F16306   3.035   3.923   3.844  0.2162 -0.3018  0.4912
  147OSM   H14F16307   3.088   3.877   3.931  4.2502  0.4639 -1.4547
  147OSM   H14G16308   2.939   3.870   3.827 -2.4573  3.5395  2.7880
  147OSM   C15F16309   2.993   4.057   3.887 -0.8775  0.1243 -0.5060
  147OSM   H15F16310   2.956   4.124   3.806  0.1849 -1.6904 -2.5529
  147OSM   H15G16311   3.086   4.099   3.930 -0.6372 -2.9635  2.1149
  147OSM   C16F16312   2.891   4.039   3.998  0.1038  0.8712 -0.0776
  147OSM   H16F16313   2.927   3.958   4.065 -2.1579 -0.1190 -0.0380
  147OSM   H16G16314   2.794   4.004   3.957 -0.0283 -0.8251  1.6070
  147OSM   C17F16315   2.869   4.171   4.068  0.1109 -0.3106  0.0076
  147OSM   H17F16316   2.839   4.245   3.990  1.3492 -0.4994 -0.6702
  147OSM   H17G16317   2.969   4.202   4.103  0.2398 -0.4987 -0.1933
  147OSM   C18F16318   2.752   4.167   4.174 -0.3929  0.2009  0.1189
  147OSM   H18F16319   2.727   4.266   4.218 -1.5312 -0.2576  0.5299
  147OSM   H18G16320   2.781   4.098   4.257  0.2105 -0.2348 -0.4484
  147OSM   H18H16321   2.660   4.131   4.123 -1.2064  1.4795  0.6434
  148OSM      N16322   3.620   2.565   2.159 -0.0579  0.3733 -0.5522
  148OSM    C1516323   3.735   2.487   2.210  0.6113  0.5309  0.4536
  148OSM   H15A16324   3.802   2.469   2.128 -2.0743  0.8526 -1.8978
  148OSM   H15B16325   3.708   2.395   2.261 -1.3612  1.1045  0.4927
  148OSM   H15C16326   3.801   2.535   2.280  1.9696 -0.4005 -0.1752
  148OSM    C1416327   3.657   2.708   2.135 -0.3093 -0.2454 -0.2706
  148OSM   H14A16328   3.698   2.743   2.228 -1.3123 -0.7753  0.3809
  148OSM   H14B16329   3.574   2.771   2.106 -0.1864 -0.3082 -0.7589
  148OSM   H14C16330   3.732   2.717   2.058 -0.7021  2.2558 -0.3974
  148OSM    C1316331   3.573   2.519   2.027 -0.1635  0.5185 -0.1545
  148OSM   H13A16332   3.642   2.508   1.945 -1.0444  1.6088 -1.0572
  148OSM   H13B16333   3.485   2.578   2.006 -2.5245 -2.0086  2.3887
  148OSM   H13C16334   3.522   2.427   2.048 -1.5024  1.4761  0.8742
  148OSM    C1216335   3.510   2.566   2.264 -0.1279  0.2155 -0.4978
  148OSM   H12A16336   3.540   2.598   2.363  0.6961 -7.0902  1.9040
  148OSM   H12B16337   3.481   2.464   2.285  3.1265 -0.5518  0.4452
  148OSM    C1116338   3.380   2.651   2.227 -0.3885  0.5213  0.3485
  148OSM   H11A16339   3.306   2.623   2.305  0.4897 -1.6409  0.4701
  148OSM   H11B16340   3.337   2.621   2.129 -3.3505 -0.5051  1.8937
  148OSM      P16341   3.432   2.869   2.369  0.4086 -0.1651 -0.4021
  148OSM    O1316342   3.532   2.796   2.449  0.1526 -0.1042  0.1464
  148OSM    O1416343   3.458   3.009   2.337  0.0929 -0.5013 -0.0667
  148OSM    O1116344   3.290   2.851   2.434 -0.0102 -0.0761 -0.1297
  148OSM    O1216345   3.410   2.791   2.225  0.0512  0.0069  0.6528
  148OSM    C1S16346   3.186   2.932   2.386 -0.2556  0.3171  0.1593
  148OSM    H1S16347   3.161   2.921   2.279  0.4943  0.7914 -0.0695
  148OSM    H1T16348   3.206   3.039   2.407  0.4655  0.2580 -0.2061
  148OSM     NF16349   3.060   2.946   2.601 -0.3383 -0.1085  0.1601
  148OSM    HNF16350   3.051   2.877   2.672 -2.0866  0.6167  0.6783
  148OSM    C2S16351   3.059   2.899   2.463  0.1937  0.0382 -0.3419
  148OSM    H2S16352   2.984   2.958   2.407 -1.7420  0.1039  2.2240
  148OSM    C3S16353   3.038   2.745   2.443 -0.0535 -0.1893  0.1474
  148OSM    H3S16354   3.135   2.692   2.459  0.8798  1.2656 -0.5893
  148OSM     O316355   2.997   2.698   2.317  0.1492 -0.7632 -0.0804
  148OSM    HO316356   3.024   2.768   2.257  2.1140 -3.0852 -2.0158
  148OSM    C4S16357   2.936   2.696   2.538 -0.2692 -0.4697  0.3444
  148OSM    H4S16358   2.838   2.743   2.523  0.3058  0.7195  0.3157
  148OSM    C5S16359   2.960   2.607   2.633  0.0031 -0.0234  0.6364
  148OSM    H5S16360   3.060   2.560   2.631  0.1613  0.3244 -0.2816
  148OSM    C6S16361   2.859   2.548   2.731 -0.6348  0.0420 -0.3557
  148OSM    H6S16362   2.917   2.474   2.791 -0.9488 -1.3354 -1.7139
  148OSM    H6T16363   2.781   2.498   2.669 -1.7421  3.2406 -1.6447
  148OSM    C7S16364   2.797   2.661   2.814 -0.4544 -0.5514  0.5648
  148OSM    H7S16365   2.717   2.706   2.752  1.8348  0.6673 -1.5972
  148OSM    H7T16366   2.866   2.744   2.842  1.3836 -2.4113  1.7072
  148OSM    C8S16367   2.750   2.604   2.953 -0.0265  0.0069 -0.4376
  148OSM    H8S16368   2.681   2.518   2.938 -1.1735  0.5706  1.4748
  148OSM    H8T16369   2.694   2.686   3.002  1.4559 -0.5795  2.3205
  148OSM    C9S16370   2.859   2.566   3.056  0.2602  0.2301 -0.4911
  148OSM    H9S16371   2.920   2.657   3.071 -0.0119  0.2877  0.2936
  148OSM    H9T16372   2.925   2.483   3.022 -0.3329  0.0165 -1.1285
  148OSM   C10S16373   2.790   2.514   3.183 -0.1975 -0.0869 -0.6394
  148OSM   H10S16374   2.757   2.412   3.154 -0.9854 -0.6664  2.1794
  148OSM   H10T16375   2.708   2.583   3.209 -0.1426  0.3274 -1.5266
  148OSM   C11S16376   2.864   2.505   3.312  0.2288 -0.5104 -0.4107
  148OSM   H11S16377   2.951   2.573   3.314 -0.3187  0.1984 -0.5766
  148OSM   H11T16378   2.915   2.406   3.317 -1.1724 -1.2016  0.4964
  148OSM   C12S16379   2.768   2.510   3.428  0.2457  0.0079 -0.4439
  148OSM   H12S16380   2.679   2.444   3.416 -0.5698  0.7594  1.4537
  148OSM   H12T16381   2.733   2.612   3.453  1.5789  0.3912 -0.0991
  148OSM   C13S16382   2.830   2.446   3.552  0.0715 -0.3219 -0.4711
  148OSM   H13S16383   2.931   2.491   3.564 -0.1641  1.5959 -4.7109
  148OSM   H13T16384   2.835   2.335   3.549  0.5108 -0.2868 -1.2088
  148OSM   C14S16385   2.742   2.475   3.671 -0.2233  0.1008  0.0583
  148OSM   H14S16386   2.639   2.435   3.658 -0.7681  0.6601  2.3972
  148OSM   H14T16387   2.715   2.582   3.665  0.0354  0.1678  0.1096
  148OSM   C15S16388   2.808   2.447   3.812  0.9648  0.1652 -0.1134
  148OSM   H15S16389   2.905   2.500   3.819  0.5950  0.7882  0.2842
  148OSM   H15T16390   2.843   2.341   3.818  1.1841  0.2010 -0.6822
  148OSM   C16S16391   2.727   2.484   3.933  0.2422 -0.2410 -0.3586
  148OSM   H16S16392   2.628   2.441   3.905 -1.0791  1.5474  1.4657
  148OSM   H16T16393   2.729   2.594   3.949  2.6477 -0.2264 -0.5940
  148OSM   C17S16394   2.784   2.430   4.062  0.1707 -0.0966 -0.0568
  148OSM   H17S16395   2.787   2.319   4.057 -2.0258 -0.2573  1.5408
  148OSM   H17T16396   2.713   2.449   4.146  1.4439  1.8478  0.6334
  148OSM   C18S16397   2.927   2.479   4.097 -0.4747 -0.1352 -0.1267
  148OSM   H18S16398   2.965   2.432   4.190  1.8581  2.4000  0.2368
  148OSM   H18T16399   2.924   2.588   4.117  0.0252 -0.2395  0.5302
  148OSM   H18U16400   3.006   2.443   4.027  4.3939  2.0338  3.8936
  148OSM    C1F16401   3.043   3.073   2.627  0.5948 -0.7061 -0.4799
  148OSM     OF16402   3.034   3.159   2.540 -0.2049  0.7314 -0.0715
  148OSM    C2F16403   3.024   3.105   2.776 -0.8802 -0.0330 -0.5857
  148OSM    H2F16404   3.110   3.062   2.832 -0.2519  4.1881  1.8574
  148OSM    H2G16405   2.930   3.058   2.811  0.6211 -1.8803  1.0858
  148OSM    C3F16406   3.013   3.259   2.805 -0.3928  0.4210  0.6471
  148OSM    H3F16407   2.923   3.294   2.749  0.2782  0.6970 -0.2687
  148OSM    H3G16408   3.102   3.313   2.766 -0.0046 -1.8757 -1.7958
  148OSM    C4F16409   2.969   3.294   2.949  0.6245  0.3905  0.7329
  148OSM    H4F16410   2.875   3.245   2.984  1.7965 -1.5565  1.2235
  148OSM    H4G16411   2.937   3.400   2.951 -3.4800 -0.5847 -3.6159
  148OSM    C5F16412   3.081   3.268   3.058 -0.0689  1.2041 -0.0435
  148OSM    H5F16413   3.156   3.349   3.050 -0.5240  1.5894 -0.5115
  148OSM    H5G16414   3.130   3.169   3.048 -0.5604  1.0746 -1.2692
  148OSM    C6F16415   3.033   3.275   3.199  0.5490 -0.2704  0.0437
  148OSM    H6F16416   2.968   3.185   3.205  2.1883 -1.5228 -0.4970
  148OSM    H6G16417   2.977   3.368   3.221  0.1436 -1.0398  2.3699
  148OSM    C7F16418   3.142   3.260   3.308  0.6299  0.8871  0.4977
  148OSM    H7F16419   3.215   3.343   3.302  3.5936 -1.5999  0.9496
  148OSM    H7G16420   3.194   3.169   3.272  0.7101  0.6437  1.2176
  148OSM    C8F16421   3.086   3.244   3.447 -0.3115 -0.0261  0.0537
  148OSM    H8F16422   3.171   3.208   3.509  1.1089  2.4346 -0.3936
  148OSM    H8G16423   3.018   3.156   3.451 -1.2280  0.7125  0.9442
  148OSM    C9F16424   3.024   3.362   3.502  0.5092 -0.1230  0.0475
  148OSM    H9F16425   2.941   3.398   3.440 -1.3806 -3.3155  0.6164
  148OSM   C10F16426   3.066   3.432   3.609 -0.4625 -0.5140  0.8067
  148OSM   H10F16427   3.011   3.519   3.647  1.5920  0.6929  1.0907
  148OSM   C11F16428   3.179   3.393   3.703  0.0500 -0.4863  0.7288
  148OSM   H11F16429   3.269   3.454   3.677 -2.1959  1.9442 -1.6165
  148OSM   H11G16430   3.215   3.288   3.690 -0.6063 -0.4119 -1.9775
  148OSM   C12F16431   3.142   3.417   3.851 -0.3310  0.0932  0.3906
  148OSM   H12F16432   3.050   3.358   3.866 -0.4249  0.3485  0.8518
  148OSM   H12G16433   3.116   3.524   3.871  0.1892  0.3570 -0.3424
  148OSM   C13F16434   3.264   3.363   3.941 -0.9155  0.0441 -0.3440
  148OSM   H13F16435   3.315   3.452   3.986 -1.3940 -0.7852  1.9213
  148OSM   H13G16436   3.331   3.297   3.883 -1.3582 -0.7833  0.0788
  148OSM   C14F16437   3.228   3.294   4.076 -0.6171 -0.1236  0.5487
  148OSM   H14F16438   3.123   3.321   4.099 -0.0936  0.8264  1.8813
  148OSM   H14G16439   3.295   3.335   4.154 -0.8588  0.8762  0.2404
  148OSM   C15F16440   3.252   3.140   4.074 -0.4834 -0.3933 -0.8140
  148OSM   H15F16441   3.229   3.087   4.169  0.2025 -2.6659 -1.8635
  148OSM   H15G16442   3.363   3.131   4.065 -0.3545  0.9060 -0.6025
  148OSM   C16F16443   3.178   3.059   3.966  0.4768 -0.1644 -0.1892
  148OSM   H16F16444   3.209   3.078   3.861  0.5507  1.4375  0.1107
  148OSM   H16G16445   3.072   3.092   3.964  0.9025  1.2363 -0.1706
  148OSM   C17F16446   3.185   2.902   3.976 -0.9489  0.4516  0.1476
  148OSM   H17F16447   3.294   2.886   3.961 -0.9612 -0.7612  1.2228
  148OSM   H17G16448   3.138   2.853   3.888  0.3384 -0.4530 -0.0447
  148OSM   C18F16449   3.136   2.826   4.101 -0.1191  0.1342  0.5118
  148OSM   H18F16450   3.025   2.823   4.090 -0.0967  1.8097 -0.3856
  148OSM   H18G16451   3.159   2.881   4.194  0.7510  1.4681 -0.4748
  148OSM   H18H16452   3.182   2.725   4.094 -2.3418 -0.9263  0.8740
  149OSM      N16453   4.800   2.841   1.996  0.1135 -0.4083  0.8055
  149OSM    C1516454   4.951   2.837   2.004  0.0037 -0.2994  0.2106
  149OSM   H15A16455   4.987   2.743   1.964 -0.3254  0.0127 -0.8291
  149OSM   H15B16456   4.987   2.841   2.106 -1.1727 -0.1720  0.6282
  149OSM   H15C16457   5.005   2.918   1.957 -0.5933 -0.2030 -0.3070
  149OSM    C1416458   4.757   2.942   2.092  0.3954  0.6329  0.3294
  149OSM   H14A16459   4.806   3.035   2.068  1.5767 -0.2496 -0.6593
  149OSM   H14B16460   4.783   2.908   2.192 -2.3616 -3.0943 -0.1184
  149OSM   H14C16461   4.649   2.955   2.092  0.4052  0.8598  2.2749
  149OSM    C1316462   4.753   2.887   1.864 -0.4186  0.7359  0.0379
  149OSM   H13A16463   4.654   2.929   1.858  0.5084  2.8325 -1.0382
  149OSM   H13B16464   4.763   2.804   1.795  2.9804  1.6534 -0.6659
  149OSM   H13C16465   4.824   2.959   1.826 -0.7643  1.0071 -0.0997
  149OSM    C1216466   4.743   2.701   2.036 -0.1519 -0.0012  0.2923
  149OSM   H12A16467   4.776   2.625   1.967  0.8878 -0.8761  1.7207
  149OSM   H12B16468   4.635   2.697   2.028  0.0084 -0.5896 -1.9453
  149OSM    C1116469   4.772   2.659   2.185  0.1655  0.2792 -0.0064
  149OSM   H11A16470   4.883   2.653   2.195  0.2826 -1.1168 -1.9034
  149OSM   H11B16471   4.729   2.557   2.184 -0.1075  0.3922  0.0966
  149OSM      P16472   4.557   2.717   2.317  0.1970 -0.3752  0.0232
  149OSM    O1316473   4.502   2.836   2.388 -0.9555 -0.1588 -0.4455
  149OSM    O1416474   4.485   2.675   2.192  0.0819 -0.3330  0.4211
  149OSM    O1116475   4.550   2.597   2.422  0.1348 -0.5908  0.0637
  149OSM    O1216476   4.706   2.744   2.286  0.3962 -0.0984 -0.2558
  149OSM    C1S16477   4.672   2.575   2.506  0.2614  0.4583 -0.8459
  149OSM    H1S16478   4.709   2.662   2.564  1.7082  0.3968 -1.6661
  149OSM    H1T16479   4.756   2.532   2.447  0.2814  0.6988 -0.9938
  149OSM     NF16480   4.740   2.486   2.733  0.1959 -0.3944  0.3958
  149OSM    HNF16481   4.803   2.411   2.749  2.6442  1.5643  0.3896
  149OSM    C2S16482   4.641   2.467   2.631  0.6980  0.7364  0.3096
  149OSM    H2S16483   4.541   2.490   2.673 -0.4477 -1.6044 -1.0721
  149OSM    C3S16484   4.625   2.320   2.587  0.2553  0.9944  0.3893
  149OSM    H3S16485   4.718   2.280   2.540 -1.0201 -0.3543 -1.0732
  149OSM     O316486   4.531   2.321   2.478 -0.2877  0.1893  0.0030
  149OSM    HO316487   4.532   2.413   2.450  2.5013  0.4361  0.7988
  149OSM    C4S16488   4.602   2.228   2.704 -0.3555  0.1501 -0.4652
  149OSM    H4S16489   4.688   2.217   2.772  0.4011  1.3068 -1.1997
  149OSM    C5S16490   4.489   2.168   2.755 -0.2394 -0.1137 -0.8503
  149OSM    H5S16491   4.393   2.182   2.703 -0.7951 -2.4836 -0.5228
  149OSM    C6S16492   4.484   2.073   2.870  0.6372 -0.1001  0.7651
  149OSM    H6S16493   4.460   1.967   2.845 -1.8028  0.3757  0.9247
  149OSM    H6T16494   4.416   2.113   2.949 -0.5966  1.2108 -0.9400
  149OSM    C7S16495   4.619   2.059   2.946  0.1008 -0.1225 -0.3648
  149OSM    H7S16496   4.661   2.156   2.979  0.2457 -0.7664  1.4005
  149OSM    H7T16497   4.695   2.015   2.878 -0.9119 -1.4155 -0.6809
  149OSM    C8S16498   4.607   1.969   3.068 -0.2887 -0.8157 -0.3791
  149OSM    H8S16499   4.561   1.874   3.036 -0.0058 -0.7639 -0.9452
  149OSM    H8T16500   4.538   2.003   3.148 -0.0534 -0.8738 -0.1502
  149OSM    C9S16501   4.742   1.960   3.143 -0.0156  0.6433  0.8897
  149OSM    H9S16502   4.775   2.065   3.157  0.8100  0.5307 -0.1620
  149OSM    H9T16503   4.825   1.911   3.088  1.4969  2.7900  1.1884
  149OSM   C10S16504   4.744   1.903   3.285  0.2265  0.1200  0.0887
  149OSM   H10S16505   4.723   1.982   3.361 -2.6973 -2.0632  1.6610
  149OSM   H10T16506   4.851   1.875   3.296 -0.3634 -2.1971  0.0337
  149OSM   C11S16507   4.646   1.780   3.308  0.6701  0.0630 -0.5659
  149OSM   H11S16508   4.657   1.713   3.220  0.3428 -1.4358  0.5167
  149OSM   H11T16509   4.539   1.808   3.308  0.7009  0.3815 -3.4108
  149OSM   C12S16510   4.684   1.700   3.436 -0.2799  0.5753  0.7025
  149OSM   H12S16511   4.742   1.755   3.512 -0.1883  0.1027  0.9753
  149OSM   H12T16512   4.758   1.625   3.401 -0.1983 -0.3980  2.8812
  149OSM   C13S16513   4.557   1.647   3.511  0.0925 -0.8428 -0.4305
  149OSM   H13S16514   4.505   1.582   3.438 -2.1614 -1.5460  1.7145
  149OSM   H13T16515   4.495   1.735   3.538  0.1031 -1.1945  0.7662
  149OSM   C14S16516   4.578   1.568   3.640  0.3077 -0.2001  0.0069
  149OSM   H14S16517   4.630   1.638   3.709  0.8702 -0.7847  0.1727
  149OSM   H14T16518   4.649   1.486   3.615  1.6039  1.4399 -1.8902
  149OSM   C15S16519   4.441   1.526   3.693  0.5220  0.4396  0.1460
  149OSM   H15S16520   4.410   1.424   3.662 -1.7231  0.4673  2.1531
  149OSM   H15T16521   4.368   1.605   3.666 -0.6180 -0.5982  0.1616
  149OSM   C16S16522   4.439   1.516   3.851 -0.1585  0.3106 -0.0569
  149OSM   H16S16523   4.471   1.612   3.897 -0.4584 -1.4029  3.8926
  149OSM   H16T16524   4.508   1.436   3.886 -1.0633 -0.9412 -1.0954
  149OSM   C17S16525   4.295   1.499   3.908 -0.0519 -0.0698  0.9504
  149OSM   H17S16526   4.243   1.591   3.872  0.8649  0.0527 -0.0864
  149OSM   H17T16527   4.308   1.500   4.018 -1.1900  2.2544  1.1055
  149OSM   C18S16528   4.230   1.366   3.873 -0.0446 -0.5996  0.4670
  149OSM   H18S16529   4.307   1.288   3.895 -0.0177 -1.6534 -2.9652
  149OSM   H18T16530   4.201   1.351   3.767  0.7209 -2.0029  0.4422
  149OSM   H18U16531   4.134   1.348   3.926 -0.9799  0.3449 -0.8754
  149OSM    C1F16532   4.747   2.594   2.817  0.1997  0.1708 -0.6389
  149OSM     OF16533   4.660   2.680   2.814  0.1290 -0.1380  0.2780
  149OSM    C2F16534   4.867   2.601   2.902  0.0249 -0.1360 -0.2976
  149OSM    H2F16535   4.958   2.579   2.843 -0.1024  1.1535 -1.0089
  149OSM    H2G16536   4.859   2.517   2.974  2.5399 -0.8939 -0.8707
  149OSM    C3F16537   4.898   2.731   2.982  0.3133 -0.5645  0.3797
  149OSM    H3F16538   4.892   2.821   2.917  1.4213  0.8811  2.2323
  149OSM    H3G16539   5.002   2.714   3.019  0.7663  1.2901  0.0298
  149OSM    C4F16540   4.804   2.752   3.099  0.1818 -0.0335 -0.4008
  149OSM    H4F16541   4.703   2.773   3.060 -1.8216 -3.3047  2.7085
  149OSM    H4G16542   4.836   2.846   3.150  0.3660 -0.5122  0.3711
  149OSM    C5F16543   4.794   2.640   3.202  0.3990 -0.1528 -0.2821
  149OSM    H5F16544   4.896   2.602   3.225 -0.8752 -2.3590  2.0678
  149OSM    H5G16545   4.738   2.554   3.160  0.4957 -0.7899  0.8525
  149OSM    C6F16546   4.724   2.689   3.336  0.3014 -0.0491  0.5426
  149OSM    H6F16547   4.613   2.689   3.326 -0.2329  0.5134  5.1170
  149OSM    H6G16548   4.750   2.797   3.344 -0.2503  0.4183 -3.1746
  149OSM    C7F16549   4.744   2.603   3.459 -0.4207  0.1429 -0.8193
  149OSM    H7F16550   4.713   2.650   3.555 -0.9122  1.7862 -1.7539
  149OSM    H7G16551   4.854   2.592   3.469 -0.2762  0.8615 -1.5638
  149OSM    C8F16552   4.699   2.455   3.442  0.1737  0.3400 -0.0692
  149OSM    H8F16553   4.717   2.405   3.540  2.4035  0.4913 -0.3774
  149OSM    H8G16554   4.766   2.405   3.370  0.4182  0.2442  0.2208
  149OSM    C9F16555   4.554   2.434   3.411 -0.0220 -0.1462  0.9506
  149OSM    H9F16556   4.495   2.516   3.369  0.4578 -0.9333 -1.2869
  149OSM   C10F16557   4.482   2.322   3.418 -0.3247  0.9748 -0.3571
  149OSM   H10F16558   4.381   2.323   3.373 -1.2424  2.9427  1.6291
  149OSM   C11F16559   4.526   2.181   3.459 -0.4911  0.3114 -0.5477
  149OSM   H11F16560   4.625   2.154   3.415 -0.6411 -1.3524  0.1044
  149OSM   H11G16561   4.466   2.096   3.421  0.8524 -0.6947 -0.4700
  149OSM   C12F16562   4.549   2.169   3.611  0.8936 -0.1123  0.0854
  149OSM   H12F16563   4.458   2.191   3.671 -0.3253  2.0678 -2.4247
  149OSM   H12G16564   4.629   2.240   3.640  1.3238 -0.4473 -0.2709
  149OSM   C13F16565   4.606   2.030   3.659  0.2804 -0.1251 -0.2282
  149OSM   H13F16566   4.701   2.014   3.603 -1.0350 -0.9608 -2.2793
  149OSM   H13G16567   4.537   1.947   3.637 -0.4315  0.2704  0.4926
  149OSM   C14F16568   4.636   2.037   3.806 -0.3144 -0.4000 -0.2570
  149OSM   H14F16569   4.557   2.058   3.881  0.8074  1.9850  0.2827
  149OSM   H14G16570   4.707   2.118   3.831 -1.4896  0.2932  0.9084
  149OSM   C15F16571   4.712   1.907   3.849 -0.2950  0.5042  0.4372
  149OSM   H15F16572   4.803   1.890   3.787 -1.3051 -2.4698 -0.3172
  149OSM   H15G16573   4.642   1.823   3.831  0.6620 -0.2036 -0.0287
  149OSM   C16F16574   4.743   1.915   4.006 -0.4136 -0.8954  0.5388
  149OSM   H16F16575   4.641   1.919   4.050 -0.8820 -0.6879 -0.5608
  149OSM   H16G16576   4.798   2.011   4.016 -1.1881 -0.0962 -2.5005
  149OSM   C17F16577   4.825   1.809   4.067  0.2425 -0.3789 -0.2285
  149OSM   H17F16578   4.834   1.835   4.175  1.0094 -1.6928  0.0332
  149OSM   H17G16579   4.929   1.815   4.028  0.1072 -0.9471 -0.6858
  149OSM   C18F16580   4.780   1.665   4.054  0.5464 -0.1613  0.2110
  149OSM   H18F16581   4.785   1.632   3.948 -0.8692  1.9619 -0.5561
  149OSM   H18G16582   4.681   1.648   4.102  0.4637  0.3135  0.2189
  149OSM   H18H16583   4.850   1.611   4.122 -1.2070 -0.6506  1.6622
  150OSM      N16584   2.491   4.740   2.044  0.3281 -0.5289 -0.5376
  150OSM    C1516585   2.402   4.846   1.987 -0.1345  0.9385  0.4141
  150OSM   H15A16586   2.393   4.820   1.882 -1.3753  1.4375  0.3843
  150OSM   H15B16587   2.430   4.949   1.999  1.3631  0.6005 -0.1115
  150OSM   H15C16588   2.304   4.828   2.029 -0.6166 -3.0686 -2.0947
  150OSM    C1416589   2.457   4.610   1.982 -0.2978 -0.3325 -0.0291
  150OSM   H14A16590   2.356   4.576   1.998 -0.2587  0.0076  0.9543
  150OSM   H14B16591   2.527   4.538   2.024  0.8600  0.1160 -1.1668
  150OSM   H14C16592   2.474   4.611   1.876  0.7336 -1.1809  0.1188
  150OSM    C1316593   2.632   4.774   2.007  0.0114 -0.0200 -0.2077
  150OSM   H13A16594   2.692   4.692   2.045  2.0440  1.5449  0.0219
  150OSM   H13B16595   2.676   4.865   2.043 -0.3614  0.1269 -0.1192
  150OSM   H13C16596   2.631   4.764   1.900 -0.6757 -1.5642 -0.0759
  150OSM    C1216597   2.469   4.740   2.194 -0.1148 -0.4089 -0.3026
  150OSM   H12A16598   2.489   4.839   2.234 -0.1233 -0.3944 -0.3365
  150OSM   H12B16599   2.532   4.667   2.242  0.4426  1.1513  1.4252
  150OSM    C1116600   2.329   4.707   2.239 -0.4970  0.2309  0.3406
  150OSM   H11A16601   2.279   4.798   2.278 -1.5933 -0.5179  0.7262
  150OSM   H11B16602   2.332   4.649   2.334  0.4641  0.9756  0.7660
  150OSM      P16603   2.098   4.652   2.134  0.5387  0.3458 -0.0798
  150OSM    O1316604   2.084   4.781   2.063  0.2724  0.2094  0.5503
  150OSM    O1416605   2.021   4.535   2.081  0.2616 -0.0801 -0.0904
  150OSM    O1116606   2.040   4.673   2.283  0.2388 -0.0663 -0.5880
  150OSM    O1216607   2.255   4.625   2.154  0.2613  0.2198 -0.0367
  150OSM    C1S16608   2.058   4.564   2.383 -0.9231  0.6474 -1.0462
  150OSM    H1S16609   2.163   4.558   2.418 -1.3664  0.0015  0.2096
  150OSM    H1T16610   2.039   4.463   2.339  0.9272 -0.0217 -0.3276
  150OSM     NF16611   2.010   4.492   2.612 -0.2261  0.1512 -0.0394
  150OSM    HNF16612   1.955   4.408   2.614  3.2887 -2.4240 -3.6271
  150OSM    C2S16613   1.967   4.591   2.513 -0.7720 -0.2181  0.5059
  150OSM    H2S16614   1.984   4.700   2.524 -2.4503 -0.0449  1.5503
  150OSM    C3S16615   1.814   4.575   2.479 -0.0793 -0.0399 -0.2514
  150OSM    H3S16616   1.781   4.470   2.491 -0.5967  0.4434  3.0300
  150OSM     O316617   1.792   4.616   2.347  0.1510 -0.0369 -0.2764
  150OSM    HO316618   1.880   4.639   2.316  0.0705 -0.0353 -0.5063
  150OSM    C4S16619   1.742   4.647   2.589  0.0263  0.4840  0.0429
  150OSM    H4S16620   1.784   4.628   2.688 -1.0205 -1.4977  0.1228
  150OSM    C5S16621   1.650   4.735   2.565  0.4552 -0.2527 -0.1891
  150OSM    H5S16622   1.607   4.737   2.464 -0.4382 -0.0314  0.1912
  150OSM    C6S16623   1.576   4.814   2.666  0.1969  0.5081  0.1147
  150OSM    H6S16624   1.468   4.788   2.671  0.0537  1.0592 -0.0468
  150OSM    H6T16625   1.585   4.920   2.634 -1.1023  0.3960 -0.6490
  150OSM    C7S16626   1.619   4.787   2.809  0.1929 -0.4149 -0.3032
  150OSM    H7S16627   1.726   4.809   2.830 -0.0496 -0.5471  1.0779
  150OSM    H7T16628   1.597   4.681   2.835  1.5041 -0.7778 -0.6444
  150OSM    C8S16629   1.546   4.875   2.911 -0.4563 -0.0743 -0.6457
  150OSM    H8S16630   1.438   4.850   2.902 -0.8968  0.5668  2.1738
  150OSM    H8T16631   1.552   4.985   2.894  1.3661  0.1743  1.3738
  150OSM    C9S16632   1.588   4.852   3.059  0.5473 -0.3774  0.5250
  150OSM    H9S16633   1.698   4.842   3.062  0.9354  2.9126 -0.7064
  150OSM    H9T16634   1.537   4.756   3.084  3.0939 -1.3405  2.2815
  150OSM   C10S16635   1.541   4.964   3.136  0.3012  0.4592  0.2985
  150OSM   H10S16636   1.433   4.987   3.130  0.7844  2.0924 -3.1046
  150OSM   H10T16637   1.601   5.055   3.115 -0.6512  1.0233 -0.0239
  150OSM   C11S16638   1.560   4.942   3.285 -0.9787  0.7793  0.2435
  150OSM   H11S16639   1.639   4.866   3.300 -0.8782  1.0556  1.1520
  150OSM   H11T16640   1.465   4.904   3.327 -1.6217  0.6566 -1.2796
  150OSM   C12S16641   1.599   5.078   3.348  0.0888 -0.8147 -0.1343
  150OSM   H12S16642   1.509   5.139   3.328 -0.5209 -1.8791 -0.7159
  150OSM   H12T16643   1.686   5.128   3.299 -0.8750  1.4315  0.4012
  150OSM   C13S16644   1.632   5.065   3.496  0.4004  0.1372  0.3113
  150OSM   H13S16645   1.544   5.021   3.548 -1.2847  2.6340 -0.3649
  150OSM   H13T16646   1.648   5.165   3.541  1.4799  0.5811 -1.0268
  150OSM   C14S16647   1.750   4.983   3.539 -0.2526  0.0167 -0.4409
  150OSM   H14S16648   1.833   5.018   3.474  0.6931  2.5955  2.0928
  150OSM   H14T16649   1.738   4.872   3.533  1.1505 -0.1165 -1.2349
  150OSM   C15S16650   1.780   5.020   3.685 -0.1557 -0.8199  0.4016
  150OSM   H15S16651   1.689   4.992   3.743 -2.5303  3.7181 -0.8237
  150OSM   H15T16652   1.784   5.131   3.698 -1.2700 -0.8383  0.9818
  150OSM   C16S16653   1.903   4.945   3.740  0.6710  0.4972 -0.3909
  150OSM   H16S16654   1.911   4.980   3.845  1.1049  2.0809 -0.9432
  150OSM   H16T16655   1.988   4.976   3.677  0.4955 -0.5089 -1.1492
  150OSM   C17S16656   1.887   4.797   3.743 -0.0340  0.5748  0.0206
  150OSM   H17S16657   1.883   4.749   3.643 -0.6631  0.5031  0.0767
  150OSM   H17T16658   1.781   4.794   3.776 -0.6041  0.5641 -1.7468
  150OSM   C18S16659   1.975   4.710   3.841  0.3300 -0.2574  0.2493
  150OSM   H18S16660   1.983   4.771   3.934 -0.9608 -1.7678  1.3669
  150OSM   H18T16661   2.077   4.699   3.797  2.2323  2.1677  3.7724
  150OSM   H18U16662   1.925   4.615   3.866  1.9387 -1.0360  0.6020
  150OSM    C1F16663   2.128   4.498   2.673 -0.5662 -0.1725  0.1044
  150OSM     OF16664   2.207   4.589   2.649 -0.1113  0.1728 -0.4119
  150OSM    C2F16665   2.166   4.392   2.767  0.2883 -0.1669  0.2280
  150OSM    H2F16666   2.243   4.318   2.737 -0.8246 -2.2172  2.2059
  150OSM    H2G16667   2.073   4.332   2.781  1.2915 -1.8855 -0.3190
  150OSM    C3F16668   2.205   4.470   2.899  1.0592 -0.1117 -0.9450
  150OSM    H3F16669   2.296   4.527   2.870  1.1326 -0.1792 -0.8445
  150OSM    H3G16670   2.230   4.402   2.983  0.7861  0.6730 -0.2246
  150OSM    C4F16671   2.094   4.570   2.949 -0.2043  0.2267 -0.7635
  150OSM    H4F16672   2.095   4.650   2.872  0.0798  2.3777  1.4214
  150OSM    H4G16673   2.131   4.610   3.046 -1.4380 -0.6757  0.0900
  150OSM    C5F16674   1.954   4.508   2.974  0.7026  0.4992 -0.6541
  150OSM    H5F16675   1.956   4.417   3.037 -1.4936 -0.1129 -1.4021
  150OSM    H5G16676   1.904   4.476   2.880  0.6945  0.7662 -0.7412
  150OSM    C6F16677   1.850   4.616   3.028  0.0800 -0.1293 -0.1596
  150OSM    H6F16678   1.755   4.562   3.009 -1.0012  1.9316 -0.7497
  150OSM    H6G16679   1.857   4.708   2.966  0.7174 -0.9052 -1.2513
  150OSM    C7F16680   1.853   4.641   3.183  0.2430  0.1468 -0.3563
  150OSM    H7F16681   1.785   4.725   3.211 -2.3490 -1.8071 -0.5840
  150OSM    H7G16682   1.957   4.674   3.201 -0.0630  1.8300 -1.5184
  150OSM    C8F16683   1.826   4.520   3.269 -0.2423 -0.4562  0.3239
  150OSM    H8F16684   1.905   4.446   3.246 -0.3406 -0.8282  1.1807
  150OSM    H8G16685   1.732   4.476   3.227  0.9488 -0.1642 -2.8210
  150OSM    C9F16686   1.829   4.564   3.415  0.2898  0.0331  0.6889
  150OSM    H9F16687   1.923   4.599   3.461  0.6009 -0.7492  0.6590
  150OSM   C10F16688   1.723   4.547   3.494  0.6442 -0.0519 -0.5935
  150OSM   H10F16689   1.723   4.583   3.598 -0.5962 -4.4021  1.0073
  150OSM   C11F16690   1.585   4.490   3.449  0.0987  0.3348  0.1683
  150OSM   H11F16691   1.588   4.388   3.404  2.5321  0.7713 -0.7571
  150OSM   H11G16692   1.549   4.570   3.381 -0.5294  0.5938  0.8050
  150OSM   C12F16693   1.475   4.481   3.567  0.7325 -0.7895 -0.6702
  150OSM   H12F16694   1.378   4.475   3.514 -0.4336  2.8320  0.9133
  150OSM   H12G16695   1.467   4.580   3.616 -2.9359 -0.8014 -1.1132
  150OSM   C13F16696   1.501   4.368   3.661 -0.8769  0.8902 -0.2920
  150OSM   H13F16697   1.602   4.371   3.708  0.4383  0.2042 -2.9510
  150OSM   H13G16698   1.499   4.275   3.600  0.5295 -0.4095  1.5857
  150OSM   C14F16699   1.393   4.357   3.767  1.2437 -0.7595 -0.8266
  150OSM   H14F16700   1.293   4.359   3.719 -0.0871 -1.4727  1.8009
  150OSM   H14G16701   1.402   4.446   3.833  1.1022 -2.1097  1.0643
  150OSM   C15F16702   1.395   4.230   3.858  0.2367  0.0664  0.1121
  150OSM   H15F16703   1.308   4.229   3.927  0.6258  1.0470  0.6248
  150OSM   H15G16704   1.485   4.242   3.922  0.3039 -1.9986  0.4233
  150OSM   C16F16705   1.416   4.104   3.782  0.4076  0.1458  0.3541
  150OSM   H16F16706   1.416   4.019   3.853  2.3723  1.4304  1.9698
  150OSM   H16G16707   1.508   4.104   3.718  0.9617 -1.1380  1.1478
  150OSM   C17F16708   1.303   4.077   3.689 -0.3122 -0.6954  0.2492
  150OSM   H17F16709   1.306   4.143   3.599 -2.0357 -1.9114 -0.7351
  150OSM   H17G16710   1.212   4.094   3.749 -0.9923 -3.0966 -0.0721
  150OSM   C18F16711   1.303   3.939   3.624  0.2379 -0.4792 -0.3909
  150OSM   H18F16712   1.209   3.911   3.571  0.5049  0.6315 -1.4764
  150OSM   H18G16713   1.317   3.859   3.700 -2.6326 -0.4832  0.1867
  150OSM   H18H16714   1.395   3.936   3.562  0.6053  0.9640  0.0677
  151OSM      N16715   1.646   4.141   2.142 -0.5379  0.8562  0.0805
  151OSM    C1516716   1.684   4.033   2.049  0.2762  0.9540 -0.1217
  151OSM   H15A16717   1.709   4.072   1.951 -0.6387 -0.3587 -0.8861
  151OSM   H15B16718   1.601   3.966   2.033  0.5393  0.8977 -1.3254
  151OSM   H15C16719   1.775   3.983   2.079 -1.3584 -2.1199 -0.0670
  151OSM    C1416720   1.753   4.247   2.147  0.2331  0.5268 -0.1996
  151OSM   H14A16721   1.774   4.283   2.048  1.1084  1.4839  0.3188
  151OSM   H14B16722   1.842   4.209   2.196 -0.0566 -1.1447 -0.9454
  151OSM   H14C16723   1.719   4.335   2.199  0.4628  0.6400 -0.2408
  151OSM    C1316724   1.522   4.208   2.084 -0.0886  0.0868  0.0742
  151OSM   H13A16725   1.544   4.253   1.989 -0.9539 -0.2830 -0.3054
  151OSM   H13B16726   1.491   4.284   2.154  2.3362 -0.6019  1.9845
  151OSM   H13C16727   1.451   4.128   2.074 -1.6695  1.3513  0.9897
  151OSM    C1216728   1.609   4.083   2.279  0.0402 -0.3971  0.0962
  151OSM   H12A16729   1.591   4.156   2.357 -0.5493 -0.0926 -0.3211
  151OSM   H12B16730   1.689   4.015   2.305 -0.0268 -1.1230 -1.5526
  151OSM    C1116731   1.477   3.992   2.280  0.5763 -0.2710 -0.0780
  151OSM   H11A16732   1.396   4.054   2.238  1.7830  0.3652 -1.5129
  151OSM   H11B16733   1.452   3.978   2.387  0.8744  0.3769  0.0781
  151OSM      P16734   1.573   3.760   2.273  0.2842  0.0303 -0.0438
  151OSM    O1316735   1.587   3.645   2.178 -1.0627  0.2832 -0.1665
  151OSM    O1416736   1.702   3.805   2.334 -0.2191 -0.2898  0.0586
  151OSM    O1116737   1.477   3.726   2.395 -0.4488  0.4513  0.5762
  151OSM    O1216738   1.496   3.877   2.196  0.4630 -0.1855  0.1777
  151OSM    C1S16739   1.503   3.614   2.484 -0.1647  0.0249  0.1348
  151OSM    H1S16740   1.522   3.522   2.426  1.3682  0.9413 -0.8432
  151OSM    H1T16741   1.412   3.606   2.548 -0.3611 -0.1789 -0.1676
  151OSM     NF16742   1.646   3.518   2.664  0.7405  0.0866  0.2533
  151OSM    HNF16743   1.602   3.512   2.753  1.2519  2.5959  0.7115
  151OSM    C2S16744   1.623   3.637   2.581  0.3600  0.1246 -0.0580
  151OSM    H2S16745   1.720   3.646   2.527 -0.1460 -0.0434 -1.0008
  151OSM    C3S16746   1.603   3.763   2.667 -0.2115  0.2171  0.1599
  151OSM    H3S16747   1.519   3.745   2.738  0.4257  0.9009  1.1017
  151OSM     O316748   1.557   3.885   2.602 -0.5026 -0.3839 -0.6862
  151OSM    HO316749   1.496   3.863   2.531 -0.4097  4.7610 -2.5425
  151OSM    C4S16750   1.726   3.794   2.744  0.2997 -0.4680  0.0743
  151OSM    H4S16751   1.819   3.790   2.685 -0.1184  0.1801 -0.6387
  151OSM    C5S16752   1.726   3.811   2.878 -0.0991  0.7171  0.3925
  151OSM    H5S16753   1.626   3.805   2.922  0.5001 -1.2890  1.5440
  151OSM    C6S16754   1.844   3.846   2.972 -0.6687 -0.5294  0.5244
  151OSM    H6S16755   1.848   3.955   2.994  2.3658 -0.4116 -0.3441
  151OSM    H6T16756   1.937   3.822   2.917 -0.6930 -1.3378  0.8320
  151OSM    C7S16757   1.846   3.753   3.095  0.6202 -0.4900 -0.0171
  151OSM    H7S16758   1.842   3.650   3.052  0.2752  0.2124 -1.7117
  151OSM    H7T16759   1.750   3.769   3.148  0.5958 -1.0780  0.1260
  151OSM    C8S16760   1.965   3.772   3.183  0.0501 -0.6235  0.3793
  151OSM    H8S16761   1.954   3.873   3.230 -0.1411  0.4716 -1.9508
  151OSM    H8T16762   2.055   3.777   3.119 -0.5163 -0.5814 -0.4243
  151OSM    C9S16763   1.979   3.673   3.297 -0.9061  0.1548 -0.3948
  151OSM    H9S16764   2.028   3.579   3.265 -1.7041 -0.4205  0.0433
  151OSM    H9T16765   1.881   3.647   3.344 -0.6328  1.6974  1.1015
  151OSM   C10S16766   2.065   3.733   3.407 -0.2018  0.0230 -0.0251
  151OSM   H10S16767   2.026   3.835   3.427  0.3935 -0.0364  1.5291
  151OSM   H10T16768   2.172   3.746   3.378 -0.0269  0.3560  0.7696
  151OSM   C11S16769   2.067   3.643   3.533 -0.0978  0.0542  0.2493
  151OSM   H11S16770   2.105   3.545   3.498 -2.5881 -0.5046 -1.0397
  151OSM   H11T16771   1.963   3.632   3.571 -0.5451  0.1248 -0.9300
  151OSM   C12S16772   2.140   3.680   3.655  0.1054 -0.0620  0.1344
  151OSM   H12S16773   2.109   3.784   3.679  0.5963  0.6200 -2.0363
  151OSM   H12T16774   2.250   3.666   3.652  0.0194 -0.6282 -0.5222
  151OSM   C13S16775   2.086   3.597   3.777  0.0608  0.3792 -0.3313
  151OSM   H13S16776   1.977   3.577   3.768 -0.3152  2.0877  0.1921
  151OSM   H13T16777   2.105   3.667   3.861  0.5711  0.5744 -0.6076
  151OSM   C14S16778   2.148   3.467   3.814 -0.0389  0.2881  0.5446
  151OSM   H14S16779   2.258   3.480   3.829 -0.1956  1.1954  0.9380
  151OSM   H14T16780   2.137   3.389   3.736  3.2775  0.3130 -0.0417
  151OSM   C15S16781   2.104   3.409   3.954  1.1328  0.1728 -0.3200
  151OSM   H15S16782   2.129   3.301   3.956 -0.7678 -0.3289 -1.9813
  151OSM   H15T16783   1.994   3.423   3.959  0.9295 -1.0197 -1.4660
  151OSM   C16S16784   2.173   3.466   4.084  0.1685  0.2733  0.3314
  151OSM   H16S16785   2.162   3.576   4.086  1.3820  0.4033  0.0973
  151OSM   H16T16786   2.282   3.450   4.074  0.3844  0.4516  2.2441
  151OSM   C17S16787   2.103   3.413   4.204  0.6785 -0.0819  0.0627
  151OSM   H17S16788   2.098   3.304   4.189 -2.3042  0.0670 -0.2093
  151OSM   H17T16789   1.998   3.442   4.224  0.6495 -0.7148  0.8496
  151OSM   C18S16790   2.178   3.434   4.328 -0.5978  0.2174 -0.2896
  151OSM   H18S16791   2.142   3.400   4.427  2.7277 -0.0547  0.8999
  151OSM   H18T16792   2.204   3.540   4.347 -0.6943  0.2887 -0.5498
  151OSM   H18U16793   2.281   3.392   4.321 -0.8512 -0.9257  2.2215
  151OSM    C1F16794   1.706   3.413   2.606  0.9406  0.2726  0.7742
  151OSM     OF16795   1.737   3.412   2.484  0.5749 -0.0628 -0.5362
  151OSM    C2F16796   1.702   3.287   2.683  0.6927  0.6718  1.0548
  151OSM    H2F16797   1.806   3.259   2.711  0.9695  2.1726  1.5555
  151OSM    H2G16798   1.653   3.209   2.620  1.1638  2.1301 -1.1882
  151OSM    C3F16799   1.623   3.293   2.819  0.8688 -0.4185  0.2084
  151OSM    H3F16800   1.524   3.338   2.795  0.9468  0.8607  2.2669
  151OSM    H3G16801   1.687   3.340   2.896  3.1387 -2.4576 -0.3518
  151OSM    C4F16802   1.594   3.150   2.874  0.2088  0.1565  0.4548
  151OSM    H4F16803   1.690   3.097   2.891  1.3663  2.1009  0.2359
  151OSM    H4G16804   1.555   3.093   2.788 -0.7317  0.9514  0.3479
  151OSM    C5F16805   1.491   3.140   2.984 -0.5989 -0.0819 -0.3186
  151OSM    H5F16806   1.431   3.047   2.970 -2.5284  1.2659 -1.2447
  151OSM    H5G16807   1.418   3.224   2.976 -0.7092 -0.0708  0.7295
  151OSM    C6F16808   1.541   3.134   3.130  0.8266  0.3823 -0.4941
  151OSM    H6F16809   1.645   3.172   3.128 -0.0644  2.9633 -0.4342
  151OSM    H6G16810   1.550   3.034   3.177  0.0990  0.9069  0.8113
  151OSM    C7F16811   1.468   3.235   3.230  0.2656  0.2390  0.3919
  151OSM    H7F16812   1.469   3.335   3.181 -0.7524 -0.9124 -2.0618
  151OSM    H7G16813   1.534   3.250   3.319  2.1607 -0.6192 -0.8501
  151OSM    C8F16814   1.331   3.194   3.266 -0.1486 -0.0073  0.7370
  151OSM    H8F16815   1.323   3.240   3.367  1.4709 -1.6099  1.6190
  151OSM    H8G16816   1.331   3.084   3.282 -0.0859 -0.4729 -2.1549
  151OSM    C9F16817   1.212   3.232   3.183 -0.6253 -0.2144  0.0517
  151OSM    H9F16818   1.209   3.182   3.085  2.6394 -0.8485  0.2115
  151OSM   C10F16819   1.123   3.333   3.203 -0.7013  0.4840  0.6237
  151OSM   H10F16820   1.044   3.347   3.128 -0.5906 -1.1257  0.1749
  151OSM   C11F16821   1.121   3.434   3.314 -0.3108  0.4865 -0.2644
  151OSM   H11F16822   1.103   3.540   3.286  1.0192  0.4435 -1.3802
  151OSM   H11G16823   1.207   3.436   3.384 -1.7557  0.1090  1.5496
  151OSM   C12F16824   1.004   3.400   3.419 -0.2605 -0.2690  0.2799
  151OSM   H12F16825   1.014   3.301   3.469 -1.4004 -0.6335 -0.2012
  151OSM   H12G16826   0.903   3.399   3.373 -0.5152 -2.9551  0.7982
  151OSM   C13F16827   0.995   3.504   3.535  0.6986 -0.3390  0.5713
  151OSM   H13F16828   1.005   3.604   3.489  1.9767  0.0934  1.7646
  151OSM   H13G16829   1.083   3.502   3.603  1.2431  4.6299  0.1410
  151OSM   C14F16830   0.852   3.516   3.606  0.1680  0.1576 -0.8400
  151OSM   H14F16831   0.769   3.500   3.534  0.1541  1.2376 -1.0733
  151OSM   H14G16832   0.845   3.609   3.667  2.7064  0.6842 -1.3248
  151OSM   C15F16833   0.820   3.395   3.695 -0.0921  0.5408 -0.3468
  151OSM   H15F16834   0.893   3.402   3.778 -0.8888 -1.9054  0.6213
  151OSM   H15G16835   0.847   3.304   3.636 -0.3459  0.6570 -0.6413
  151OSM   C16F16836   0.673   3.386   3.722 -0.3571 -0.7157 -0.0487
  151OSM   H16F16837   0.641   3.286   3.759  0.7165 -1.4028 -0.9413
  151OSM   H16G16838   0.620   3.392   3.624  0.0197  1.5793 -0.1495
  151OSM   C17F16839   0.622   3.505   3.813 -0.6074 -0.0056 -1.3317
  151OSM   H17F16840   0.512   3.525   3.811 -0.9207 -0.8328  2.5501
  151OSM   H17G16841   0.655   3.599   3.764 -0.8241 -0.2692 -1.9843
  151OSM   C18F16842   0.685   3.505   3.955  0.3446  0.6402 -0.2793
  151OSM   H18F16843   0.633   3.587   4.009 -0.0384  1.5700 -2.0167
  151OSM   H18G16844   0.791   3.535   3.942  1.8051 -4.1584 -0.3759
  151OSM   H18H16845   0.680   3.404   4.001  1.2947  0.1438 -1.2282
  152OSM      N16846   3.570   5.577   2.335  0.7790  0.2494  0.2699
  152OSM    C1516847   3.679   5.520   2.249  0.6549  0.0267 -0.5854
  152OSM   H15A16848   3.747   5.448   2.292 -0.6481 -2.5517 -2.6769
  152OSM   H15B16849   3.733   5.604   2.210 -0.5192  2.0502  2.0143
  152OSM   H15C16850   3.634   5.473   2.163  1.1529 -0.9791 -0.3102
  152OSM    C1416851   3.437   5.586   2.249  0.3927 -0.1930  0.7887
  152OSM   H14A16852   3.350   5.597   2.312  0.8455  0.3779  1.3294
  152OSM   H14B16853   3.422   5.493   2.197 -0.9787  2.0637 -3.0173
  152OSM   H14C16854   3.446   5.671   2.183  0.2811 -0.0016  1.0194
  152OSM    C1316855   3.531   5.485   2.445 -0.2248  0.3524  0.9990
  152OSM   H13A16856   3.495   5.390   2.412 -0.9549  0.7098  0.7668
  152OSM   H13B16857   3.452   5.517   2.511 -0.5923  0.6981  0.3915
  152OSM   H13C16858   3.618   5.462   2.506  1.4750 -0.9088 -1.8182
  152OSM    C1216859   3.605   5.712   2.395 -0.4222  0.4043  0.4153
  152OSM   H12A16860   3.671   5.705   2.481  0.7445  0.2969 -0.4858
  152OSM   H12B16861   3.515   5.764   2.423 -0.3935 -0.2491  1.7878
  152OSM    C1116862   3.681   5.807   2.301  0.5709  0.3132 -0.5484
  152OSM   H11A16863   3.632   5.804   2.201 -0.5416  2.3576 -0.0955
  152OSM   H11B16864   3.784   5.771   2.282  0.4313 -0.4997  0.1877
  152OSM      P16865   3.780   6.044   2.313 -0.4909 -0.4015 -0.0060
  152OSM    O1316866   3.909   5.978   2.281 -0.2784  0.1994 -0.3298
  152OSM    O1416867   3.733   6.143   2.211  0.0845  0.5324 -0.9086
  152OSM    O1116868   3.798   6.118   2.455 -0.1358 -0.0559 -0.3011
  152OSM    O1216869   3.678   5.937   2.350  0.3661 -0.7963 -0.6737
  152OSM    C1S16870   3.696   6.139   2.553 -0.2756  0.4621  0.5974
  152OSM    H1S16871   3.599   6.112   2.505  1.6436  3.1870 -5.2894
  152OSM    H1T16872   3.693   6.246   2.583  0.6999  0.6271  0.1234
  152OSM     NF16873   3.604   6.042   2.770  0.1062 -0.5988 -1.0045
  152OSM    HNF16874   3.621   6.050   2.868 -1.6758  2.1668 -0.8524
  152OSM    C2S16875   3.715   6.039   2.674  0.6439 -0.2355 -0.5082
  152OSM    H2S16876   3.722   5.935   2.635 -0.9160 -0.2315 -0.8085
  152OSM    C3S16877   3.852   6.057   2.754  0.6454 -0.3018 -0.3764
  152OSM    H3S16878   3.857   6.160   2.796  0.6973 -0.8016  0.8511
  152OSM     O316879   3.957   6.029   2.663  0.0824 -0.1695  0.2127
  152OSM    HO316880   3.920   6.048   2.577  0.5575  0.3860  0.1224
  152OSM    C4S16881   3.866   5.963   2.867 -0.5825  0.0639  0.0212
  152OSM    H4S16882   3.849   5.862   2.826 -1.6688  1.0042 -1.9512
  152OSM    C5S16883   3.887   5.984   3.000  0.3553 -0.3433  0.5794
  152OSM    H5S16884   3.867   6.088   3.029 -2.9936 -0.5084 -0.9544
  152OSM    C6S16885   3.903   5.877   3.100 -0.0465  0.0465 -0.0862
  152OSM    H6S16886   3.976   5.904   3.179  0.2966 -1.5660  0.1664
  152OSM    H6T16887   3.940   5.784   3.052 -1.3218 -0.5808  0.1430
  152OSM    C7S16888   3.776   5.858   3.186  0.0984 -0.1312  0.6288
  152OSM    H7S16889   3.699   5.819   3.116 -0.8339 -0.1967  1.6680
  152OSM    H7T16890   3.745   5.951   3.239 -2.5843 -0.8616  0.4174
  152OSM    C8S16891   3.794   5.757   3.302  0.6833  0.3213 -0.5336
  152OSM    H8S16892   3.872   5.805   3.365 -0.8291  0.3013  1.3904
  152OSM    H8T16893   3.829   5.665   3.251  1.4716  0.5653 -0.4414
  152OSM    C9S16894   3.664   5.735   3.377 -0.6858 -0.0217  0.1187
  152OSM    H9S16895   3.595   5.678   3.312 -1.9163  1.0443  0.4669
  152OSM    H9T16896   3.605   5.828   3.389 -2.8213 -1.3691  0.1753
  152OSM   C10S16897   3.677   5.652   3.500 -0.4372 -0.5588 -0.0549
  152OSM   H10S16898   3.732   5.715   3.573 -1.8250 -0.3433  0.8145
  152OSM   H10T16899   3.729   5.558   3.471 -0.1511 -0.0248 -1.3021
  152OSM   C11S16900   3.540   5.601   3.549 -0.1045  0.4092  0.3310
  152OSM   H11S16901   3.507   5.554   3.454  2.2549 -3.5211  1.3601
  152OSM   H11T16902   3.466   5.680   3.575 -1.0501  0.3697 -2.0764
  152OSM   C12S16903   3.541   5.515   3.675 -0.6160  0.4446 -0.3069
  152OSM   H12S16904   3.624   5.441   3.677  1.1939  2.4289  1.6457
  152OSM   H12T16905   3.448   5.454   3.677  1.0428 -2.2312 -1.5216
  152OSM   C13S16906   3.548   5.600   3.810 -0.1466  0.2710 -0.4575
  152OSM   H13S16907   3.461   5.668   3.821 -1.1030 -1.1564  1.0519
  152OSM   H13T16908   3.636   5.666   3.792  1.1534 -0.8337  1.7157
  152OSM   C14S16909   3.573   5.516   3.942 -0.1253 -0.1034  0.0602
  152OSM   H14S16910   3.489   5.449   3.968  0.4409  0.7090  4.2761
  152OSM   H14T16911   3.586   5.583   4.030 -1.4685 -0.7142  0.7348
  152OSM   C15S16912   3.698   5.420   3.934 -0.3353  0.4073  0.9687
  152OSM   H15S16913   3.781   5.469   3.880 -0.1923  2.2793  2.8430
  152OSM   H15T16914   3.661   5.339   3.867  1.3297 -0.7631  1.4416
  152OSM   C16S16915   3.753   5.362   4.060 -0.7660 -0.4396 -0.3009
  152OSM   H16S16916   3.677   5.341   4.138  0.7229 -0.4666  1.1687
  152OSM   H16T16917   3.836   5.423   4.101 -0.5286 -1.6833  1.0963
  152OSM   C17S16918   3.820   5.225   4.036  0.1236  0.2512 -0.3770
  152OSM   H17S16919   3.886   5.226   3.946  1.0575  0.5300  0.3080
  152OSM   H17T16920   3.737   5.155   4.010 -1.4874  2.5881 -1.8093
  152OSM   C18S16921   3.888   5.183   4.162 -0.2618  0.5789 -0.4243
  152OSM   H18S16922   3.822   5.178   4.251  0.4452  0.2849  0.0879
  152OSM   H18T16923   3.973   5.250   4.186  0.8633 -0.7965 -0.4766
  152OSM   H18U16924   3.943   5.090   4.136  1.0682  1.5869 -1.2760
  152OSM    C1F16925   3.471   6.017   2.742  0.5917 -0.2705  0.0292
  152OSM     OF16926   3.435   5.962   2.640 -0.9741  0.2015  0.2374
  152OSM    C2F16927   3.369   6.056   2.839  0.1882 -0.4064 -0.2988
  152OSM    H2F16928   3.268   6.022   2.808  1.0150 -0.6588 -2.7615
  152OSM    H2G16929   3.363   6.166   2.825 -1.0648 -0.6067 -1.3632
  152OSM    C3F16930   3.398   5.989   2.972 -1.3094 -0.5216  0.4831
  152OSM    H3F16931   3.504   6.003   3.001 -0.6017 -1.3762 -1.5850
  152OSM    H3G16932   3.388   5.879   2.976 -0.7093 -0.5551  1.2239
  152OSM    C4F16933   3.305   6.031   3.088 -0.1097  0.3555 -0.0310
  152OSM    H4F16934   3.199   6.004   3.069  0.4044 -0.1316 -2.3393
  152OSM    H4G16935   3.309   6.138   3.118 -0.0232 -0.3726  2.6093
  152OSM    C5F16936   3.338   5.949   3.211  0.1360  0.2901 -0.2452
  152OSM    H5F16937   3.449   5.951   3.218  0.0913  0.1543  0.4576
  152OSM    H5G16938   3.307   5.843   3.197 -1.9583  0.6975  1.2038
  152OSM    C6F16939   3.268   5.992   3.342 -0.2153 -0.3765  0.3844
  152OSM    H6F16940   3.267   5.902   3.407  0.2889 -1.1354 -0.6334
  152OSM    H6G16941   3.164   6.023   3.320 -0.5299 -0.8310  1.2481
  152OSM    C7F16942   3.345   6.111   3.394 -0.4015  0.1228  0.2313
  152OSM    H7F16943   3.276   6.191   3.428 -0.4283 -0.3940  1.4207
  152OSM    H7G16944   3.399   6.159   3.310 -1.5121 -0.1172 -0.6211
  152OSM    C8F16945   3.440   6.076   3.514  0.3055 -0.0968 -0.0488
  152OSM    H8F16946   3.469   6.176   3.554 -1.3678  0.4078 -0.0860
  152OSM    H8G16947   3.529   6.015   3.485  2.1510  2.0616  0.8703
  152OSM    C9F16948   3.381   5.983   3.612 -1.1073 -0.0127  0.4467
  152OSM    H9F16949   3.403   5.876   3.593  2.0927  0.7605 -0.4679
  152OSM   C10F16950   3.320   6.011   3.721  0.3339  0.2833  0.1709
  152OSM   H10F16951   3.279   5.930   3.782 -0.2545 -0.9755 -1.8531
  152OSM   C11F16952   3.290   6.153   3.774  0.5857  0.2359  0.3197
  152OSM   H11F16953   3.257   6.213   3.687  2.9636 -1.2094 -1.6563
  152OSM   H11G16954   3.384   6.195   3.817  0.3645  0.5886  0.4605
  152OSM   C12F16955   3.180   6.144   3.880  0.8356  0.4217 -0.5211
  152OSM   H12F16956   3.211   6.062   3.948  0.5375  0.7446  0.0091
  152OSM   H12G16957   3.086   6.101   3.839  0.7322  0.0853  0.0542
  152OSM   C13F16958   3.153   6.282   3.951  0.3655  0.5475 -0.4748
  152OSM   H13F16959   3.059   6.257   4.004 -0.2303  1.8494 -0.8952
  152OSM   H13G16960   3.114   6.352   3.874 -2.7028  1.4045  1.7618
  152OSM   C14F16961   3.272   6.329   4.039  0.4079  0.0742 -0.1322
  152OSM   H14F16962   3.357   6.345   3.971 -0.0419  1.0147 -0.4708
  152OSM   H14G16963   3.300   6.253   4.116  1.0895  0.1542 -0.3080
  152OSM   C15F16964   3.245   6.457   4.111  0.0878  0.0436 -0.4304
  152OSM   H15F16965   3.156   6.443   4.176  0.1894 -1.4529 -0.5891
  152OSM   H15G16966   3.237   6.548   4.048 -0.5161 -0.1325 -0.6139
  152OSM   C16F16967   3.357   6.489   4.215 -0.4202  0.1197  0.2429
  152OSM   H16F16968   3.454   6.498   4.161  1.0580 -1.9426  2.4995
  152OSM   H16G16969   3.352   6.419   4.301 -0.7964 -0.3901 -0.1920
  152OSM   C17F16970   3.320   6.630   4.259  0.1141 -0.1450 -0.1481
  152OSM   H17F16971   3.221   6.630   4.308  0.1844 -1.7388  0.0328
  152OSM   H17G16972   3.327   6.695   4.170 -1.4050 -0.2292 -0.3367
  152OSM   C18F16973   3.424   6.691   4.350  0.0845  0.6956 -0.5237
  152OSM   H18F16974   3.422   6.614   4.430 -3.5859  0.7122 -0.5091
  152OSM   H18G16975   3.409   6.787   4.402 -2.1722  0.8511 -1.3640
  152OSM   H18H16976   3.524   6.687   4.301  0.9494  0.3746  1.2617
  153OSM      N16977   1.666   5.640   1.956  0.7482  0.2970  0.7701
  153OSM    C1516978   1.658   5.496   1.919  0.1602 -0.5273  0.0372
  153OSM   H15A16979   1.613   5.487   1.822  1.4022 -1.4592 -0.4750
  153OSM   H15B16980   1.586   5.453   1.986 -1.2342  0.2503 -0.9451
  153OSM   H15C16981   1.752   5.443   1.933  0.5692  0.6421  1.9371
  153OSM    C1416982   1.765   5.700   1.868 -0.3094  0.0239  0.6919
  153OSM   H14A16983   1.861   5.650   1.871  0.4977  1.5130 -0.0627
  153OSM   H14B16984   1.770   5.806   1.889 -2.0116 -0.0917  1.9038
  153OSM   H14C16985   1.749   5.685   1.763 -0.2335 -1.4599  0.8767
  153OSM    C1316986   1.533   5.712   1.950  0.4000  0.0599 -0.2096
  153OSM   H13A16987   1.536   5.811   1.994  0.6232 -0.2686  0.5295
  153OSM   H13B16988   1.457   5.656   2.003  1.9416 -1.4368  0.4956
  153OSM   H13C16989   1.491   5.724   1.851 -2.0930 -1.5143  0.5990
  153OSM    C1216990   1.721   5.645   2.094 -0.7411  0.5597  0.2122
  153OSM   H12A16991   1.650   5.619   2.171  0.2372 -1.1377  0.5720
  153OSM   H12B16992   1.758   5.742   2.122 -1.8686  0.5009  1.9920
  153OSM    C1116993   1.844   5.555   2.124 -0.1137  0.4541 -0.0428
  153OSM   H11A16994   1.815   5.447   2.124 -0.7235  0.6146  0.4799
  153OSM   H11B16995   1.872   5.575   2.230 -2.8302  0.5167  0.6986
  153OSM      P16996   2.076   5.665   2.067 -0.4545 -0.2237  0.3051
  153OSM    O1316997   2.193   5.633   1.980  0.0984 -0.1953  0.0214
  153OSM    O1416998   2.026   5.803   2.048  0.8650 -0.2267  0.2354
  153OSM    O1116999   2.116   5.627   2.215 -0.0457  0.3166 -0.0397
  153OSM    O1217000   1.959   5.569   2.037 -0.3324  0.2489 -0.2293
  153OSM    C1S17001   2.182   5.506   2.254 -0.3168 -0.5818  0.0145
  153OSM    H1S17002   2.177   5.423   2.181 -2.4347 -0.2338 -0.2697
  153OSM    H1T17003   2.131   5.463   2.343 -1.9508  0.8431 -0.2214
  153OSM     NF17004   2.387   5.410   2.354  0.2603  0.5479 -0.2485
  153OSM    HNF17005   2.396   5.407   2.454 -2.1979  0.0092 -0.0196
  153OSM    C2S17006   2.340   5.524   2.275 -0.1814  0.1037  0.4060
  153OSM    H2S17007   2.384   5.531   2.174  0.8438  0.8393  0.9031
  153OSM    C3S17008   2.369   5.663   2.351 -0.2366  0.3972  0.8200
  153OSM    H3S17009   2.329   5.743   2.286 -1.8204  0.4337  1.8026
  153OSM     O317010   2.507   5.681   2.379 -0.4095  0.1875 -0.6757
  153OSM    HO317011   2.556   5.603   2.352 -0.1266 -0.6233  2.0774
  153OSM    C4S17012   2.293   5.677   2.484 -1.0139 -0.3919  0.7009
  153OSM    H4S17013   2.200   5.736   2.480  1.1530  3.0950 -0.1930
  153OSM    C5S17014   2.325   5.623   2.603 -0.5690  0.3392 -0.2522
  153OSM    H5S17015   2.417   5.563   2.600  0.4837  1.9889 -1.5999
  153OSM    C6S17016   2.257   5.629   2.740  0.1154  0.3944  0.0788
  153OSM    H6S17017   2.333   5.678   2.804 -1.4539  1.8150  0.8865
  153OSM    H6T17018   2.225   5.531   2.781 -0.9102  1.1333  1.0700
  153OSM    C7S17019   2.124   5.702   2.743  0.2967 -0.0369  0.1113
  153OSM    H7S17020   2.054   5.676   2.661  0.8109  1.7829 -0.9077
  153OSM    H7T17021   2.160   5.805   2.724  2.4430 -0.6982  0.4163
  153OSM    C8S17022   2.050   5.691   2.877 -0.2398 -0.2394  0.1872
  153OSM    H8S17023   2.024   5.589   2.912  0.1452 -0.1000  0.8799
  153OSM    H8T17024   1.948   5.735   2.869  0.1687  1.1368  2.0507
  153OSM    C9S17025   2.124   5.764   2.996 -0.0859 -0.9493 -0.1998
  153OSM    H9S17026   2.140   5.872   2.978 -0.1434 -0.9434 -0.2138
  153OSM    H9T17027   2.219   5.706   2.998  0.9052  0.4395 -3.5512
  153OSM   C10S17028   2.049   5.746   3.128  0.1143 -0.5047  0.3807
  153OSM   H10S17029   2.025   5.639   3.143  0.7830 -0.7240 -0.0825
  153OSM   H10T17030   1.953   5.799   3.108  0.2145 -1.2754 -2.3169
  153OSM   C11S17031   2.128   5.814   3.245  0.4073  0.2377 -0.1492
  153OSM   H11S17032   2.170   5.912   3.214 -1.6246  0.7117 -1.4673
  153OSM   H11T17033   2.217   5.753   3.275 -2.0090 -2.2204  2.3384
  153OSM   C12S17034   2.037   5.834   3.362  0.3614  0.9422 -0.3348
  153OSM   H12S17035   1.977   5.742   3.378  1.1779  0.1546 -1.6581
  153OSM   H12T17036   1.956   5.907   3.343 -0.2645  0.5517  0.7571
  153OSM   C13S17037   2.114   5.862   3.496  0.0937 -0.7452  0.1901
  153OSM   H13S17038   2.165   5.959   3.486 -1.9338  0.1758 -1.6059
  153OSM   H13T17039   2.197   5.788   3.503  2.0546  1.4196  0.1404
  153OSM   C14S17040   2.031   5.859   3.628 -0.7479 -0.0649  0.0124
  153OSM   H14S17041   1.969   5.767   3.631 -0.0405 -0.4907  2.4299
  153OSM   H14T17042   1.951   5.937   3.627  1.3506  2.1271 -0.4138
  153OSM   C15S17043   2.104   5.880   3.767 -0.8240  0.0031  0.8875
  153OSM   H15S17044   2.048   5.840   3.854 -0.0828 -1.6607  0.6207
  153OSM   H15T17045   2.112   5.990   3.781 -0.6311  0.0725  0.2433
  153OSM   C16S17046   2.238   5.811   3.783 -0.1121 -0.7375 -0.1189
  153OSM   H16S17047   2.282   5.839   3.881  1.3218  0.7096 -1.1483
  153OSM   H16T17048   2.313   5.846   3.709  0.4868 -0.3507  0.6629
  153OSM   C17S17049   2.244   5.658   3.767  0.4950 -0.0228 -0.4044
  153OSM   H17S17050   2.194   5.639   3.669 -2.3099  0.4984  0.8737
  153OSM   H17T17051   2.179   5.606   3.841  0.5582 -0.5058 -0.6816
  153OSM   C18S17052   2.380   5.599   3.751 -0.2472 -0.5154  0.4691
  153OSM   H18S17053   2.437   5.641   3.837  0.3935  2.0105 -1.1471
  153OSM   H18T17054   2.431   5.629   3.657 -2.2784  0.2962 -0.3893
  153OSM   H18U17055   2.389   5.488   3.762  0.1747 -0.6107 -0.7954
  153OSM    C1F17056   2.421   5.298   2.295  0.8346  0.0144  0.1913
  153OSM     OF17057   2.436   5.298   2.176 -0.3519  0.5818 -0.5963
  153OSM    C2F17058   2.459   5.174   2.371  0.5452  0.1312  0.0208
  153OSM    H2F17059   2.569   5.170   2.381  0.4270 -1.3177  0.8944
  153OSM    H2G17060   2.436   5.079   2.317 -0.8433 -1.4445  3.2553
  153OSM    C3F17061   2.408   5.165   2.518  0.1459  0.2589 -0.3748
  153OSM    H3F17062   2.411   5.056   2.540  1.4329 -0.0046 -1.7270
  153OSM    H3G17063   2.300   5.189   2.521 -0.5675 -2.4908 -2.6206
  153OSM    C4F17064   2.486   5.247   2.623 -0.3828 -0.9299 -0.6396
  153OSM    H4F17065   2.528   5.337   2.576 -0.7566  0.1522  1.0412
  153OSM    H4G17066   2.572   5.186   2.659 -1.5263 -0.5415  2.9823
  153OSM    C5F17067   2.407   5.267   2.756 -0.5187  0.5679 -0.5980
  153OSM    H5F17068   2.392   5.162   2.789  0.9082  0.3673 -0.5427
  153OSM    H5G17069   2.315   5.321   2.726  0.1921  2.4246  0.4946
  153OSM    C6F17070   2.486   5.358   2.854  0.4917  0.2711 -0.0046
  153OSM    H6F17071   2.506   5.462   2.821 -1.4126  1.3391  2.0634
  153OSM    H6G17072   2.582   5.304   2.869  0.6403  0.3629 -0.6308
  153OSM    C7F17073   2.417   5.373   2.995  0.1213  0.1853  0.3271
  153OSM    H7F17074   2.374   5.273   3.018  0.2974  0.0976  0.2782
  153OSM    H7G17075   2.329   5.438   2.974  0.0193  0.0559  0.3484
  153OSM    C8F17076   2.505   5.431   3.102 -0.1871 -0.1895 -0.1969
  153OSM    H8F17077   2.541   5.534   3.082  0.4502  0.1617  2.5132
  153OSM    H8G17078   2.597   5.373   3.126  0.9099  2.9509  3.7254
  153OSM    C9F17079   2.428   5.459   3.226  0.0919  0.0504  0.4889
  153OSM    H9F17080   2.346   5.532   3.226  1.2753  1.4421  2.5081
  153OSM   C10F17081   2.455   5.404   3.344 -0.4819  0.1989  0.5143
  153OSM   H10F17082   2.401   5.446   3.430  1.7152  0.1027  1.9738
  153OSM   C11F17083   2.558   5.305   3.375  0.4481  0.0014 -0.3806
  153OSM   H11F17084   2.597   5.237   3.297 -0.4384  1.3799 -2.0511
  153OSM   H11G17085   2.500   5.233   3.437 -4.3489  3.4458 -0.5729
  153OSM   C12F17086   2.676   5.354   3.461  0.2743  0.0249  0.3434
  153OSM   H12F17087   2.730   5.416   3.386  0.1077 -2.1160 -1.6006
  153OSM   H12G17088   2.728   5.262   3.493 -1.0095 -0.1570  1.9544
  153OSM   C13F17089   2.629   5.437   3.577  0.4960 -0.3059  0.2868
  153OSM   H13F17090   2.546   5.386   3.630  1.1863 -1.3626  0.3614
  153OSM   H13G17091   2.584   5.530   3.537 -1.4122 -0.2194  2.5381
  153OSM   C14F17092   2.749   5.468   3.668  0.5490 -0.3429 -0.4446
  153OSM   H14F17093   2.732   5.554   3.736  3.2869 -0.1589  0.0587
  153OSM   H14G17094   2.836   5.492   3.603 -0.2708 -1.8692 -2.1304
  153OSM   C15F17095   2.770   5.349   3.768  0.8489 -0.4090 -0.3210
  153OSM   H15F17096   2.780   5.254   3.711 -2.4222 -1.6254  0.9956
  153OSM   H15G17097   2.692   5.341   3.847 -0.0687  1.6536 -0.9787
  153OSM   C16F17098   2.895   5.377   3.847 -0.0614  0.1985  0.6369
  153OSM   H16F17099   2.884   5.481   3.884 -0.4064 -0.0914  1.3544
  153OSM   H16G17100   2.990   5.377   3.789 -0.3947  0.8580  0.0850
  153OSM   C17F17101   2.914   5.288   3.977 -0.9021  0.0848  0.2227
  153OSM   H17F17102   2.912   5.182   3.944  2.6017 -0.4881  1.5835
  153OSM   H17G17103   2.829   5.304   4.047 -1.4069 -0.0961 -0.3458
  153OSM   C18F17104   3.033   5.317   4.062 -1.1607  0.0929  0.3081
  153OSM   H18F17105   3.122   5.292   4.000  0.0983  2.4592  1.0994
  153OSM   H18G17106   3.034   5.250   4.151  1.0639 -0.7888 -0.3488
  153OSM   H18H17107   3.046   5.422   4.097  0.2155  0.3819 -1.0562
  154OSM      N17108   0.995   4.684   2.061 -0.5891  0.0439  0.9149
  154OSM    C1517109   0.876   4.716   1.974  0.6337  0.3056  0.6870
  154OSM   H15A17110   0.798   4.767   2.030  1.0510 -0.9646  2.4725
  154OSM   H15B17111   0.829   4.627   1.935  0.4501  0.6500  0.1166
  154OSM   H15C17112   0.888   4.790   1.896 -0.1030  0.6180  0.8622
  154OSM    C1417113   1.101   4.636   1.972 -0.0815 -0.0247 -0.5201
  154OSM   H14A17114   1.063   4.547   1.923 -0.1493 -0.1535 -0.2338
  154OSM   H14B17115   1.197   4.607   2.012 -0.1566 -0.5050 -0.6868
  154OSM   H14C17116   1.126   4.710   1.898 -0.5663 -2.2392 -2.9753
  154OSM    C1317117   1.043   4.803   2.119  0.2523  0.1444 -0.4714
  154OSM   H13A17118   1.138   4.790   2.168 -0.3351 -2.1602  0.1259
  154OSM   H13B17119   0.970   4.847   2.186 -1.2594 -0.2564 -1.8218
  154OSM   H13C17120   1.060   4.880   2.046  1.7285 -0.8645 -1.2018
  154OSM    C1217121   0.958   4.580   2.162  0.9714 -0.4332 -0.6218
  154OSM   H12A17122   0.880   4.620   2.224  0.7037 -0.1649 -1.1291
  154OSM   H12B17123   1.050   4.573   2.219 -0.0962 -2.3309  0.9066
  154OSM    C1117124   0.931   4.432   2.118 -0.0093 -0.7268 -0.1248
  154OSM   H11A17125   0.831   4.432   2.070  0.5646  0.0409 -1.3570
  154OSM   H11B17126   0.910   4.378   2.213 -1.3937 -3.4754 -1.9165
  154OSM      P17127   1.151   4.304   2.098  0.0095 -0.1225  0.2019
  154OSM    O1317128   1.135   4.152   2.091 -0.3468  0.1088 -0.1663
  154OSM    O1417129   1.265   4.361   2.023  0.4043 -0.1271  0.0172
  154OSM    O1117130   1.156   4.354   2.253  0.5253 -0.0876 -0.1840
  154OSM    O1217131   1.021   4.366   2.030  0.3924  0.0745  0.2015
  154OSM    C1S17132   1.240   4.292   2.351 -0.7327 -0.4437 -0.0526
  154OSM    H1S17133   1.346   4.284   2.317 -0.5539 -2.2118  0.8633
  154OSM    H1T17134   1.209   4.188   2.378  0.7185 -0.3077  2.2527
  154OSM     NF17135   1.344   4.299   2.575  0.3589  0.0970  0.4999
  154OSM    HNF17136   1.297   4.242   2.643  1.4216  0.1439  1.2831
  154OSM    C2S17137   1.259   4.377   2.485  0.2403 -0.9500 -0.8123
  154OSM    H2S17138   1.322   4.464   2.457  0.8067 -0.9660  0.4016
  154OSM    C3S17139   1.125   4.410   2.539 -0.5157  0.4974  0.0949
  154OSM    H3S17140   1.071   4.314   2.556  1.7861 -0.8965 -0.2252
  154OSM     O317141   1.033   4.469   2.446  0.5775 -0.2389 -0.0383
  154OSM    HO317142   1.069   4.451   2.359 -2.0748  0.4160 -1.3225
  154OSM    C4S17143   1.134   4.490   2.665 -0.4455 -0.4462 -0.1069
  154OSM    H4S17144   1.204   4.575   2.655 -1.5849  0.3506 -1.6202
  154OSM    C5S17145   1.068   4.459   2.776  0.5335  0.0453  0.3105
  154OSM    H5S17146   1.008   4.366   2.773  1.1140 -0.3780  1.8185
  154OSM    C6S17147   1.066   4.527   2.910 -1.3415  0.6223  0.1394
  154OSM    H6S17148   1.082   4.455   2.994 -1.9652 -0.7521 -0.9034
  154OSM    H6T17149   0.966   4.572   2.927 -1.4886 -0.4498  2.3748
  154OSM    C7S17150   1.153   4.655   2.925 -0.5878  0.4520 -0.2695
  154OSM    H7S17151   1.120   4.737   2.857  1.0806  0.3894 -1.1889
  154OSM    H7T17152   1.250   4.618   2.886  1.2752 -0.3207  4.8198
  154OSM    C8S17153   1.184   4.701   3.074 -0.2866  0.0773 -0.5273
  154OSM    H8S17154   1.271   4.769   3.070 -0.3174  0.1722  0.4932
  154OSM    H8T17155   1.220   4.607   3.120  2.3577  0.7723 -1.1159
  154OSM    C9S17156   1.064   4.752   3.156  0.9033 -0.0121  0.7380
  154OSM    H9S17157   0.977   4.682   3.152  0.5832  0.4028  0.2735
  154OSM    H9T17158   1.037   4.851   3.113  0.0506  0.6579  2.7559
  154OSM   C10S17159   1.092   4.783   3.306  0.4433  0.0008  0.7657
  154OSM   H10S17160   0.999   4.834   3.339 -1.6776 -3.9757  1.2303
  154OSM   H10T17161   1.179   4.853   3.311  1.4214 -1.0939 -0.4578
  154OSM   C11S17162   1.118   4.653   3.383  0.4232  0.2074  0.4838
  154OSM   H11S17163   1.216   4.613   3.350  0.7775  0.4350  1.2389
  154OSM   H11T17164   1.045   4.582   3.339 -0.9379  1.1149  1.2270
  154OSM   C12S17165   1.111   4.651   3.534 -0.2223  0.5134  0.0355
  154OSM   H12S17166   1.203   4.697   3.574  0.7640  1.2195 -2.9306
  154OSM   H12T17167   1.122   4.545   3.562 -1.5236 -0.0854 -1.6023
  154OSM   C13S17168   0.985   4.711   3.591 -0.1410 -0.7616  0.5678
  154OSM   H13S17169   0.898   4.653   3.554 -0.5011 -0.2829  0.6610
  154OSM   H13T17170   0.978   4.815   3.554  1.1697 -1.1710 -0.8901
  154OSM   C14S17171   0.982   4.716   3.741 -0.1048 -0.1296 -0.1380
  154OSM   H14S17172   1.067   4.781   3.771  0.3537 -0.1508 -1.3690
  154OSM   H14T17173   0.992   4.615   3.786 -0.0934  0.7335  1.8600
  154OSM   C15S17174   0.847   4.768   3.796  0.6375  0.7262 -0.0928
  154OSM   H15S17175   0.757   4.730   3.743  0.3585  1.2862 -0.0212
  154OSM   H15T17176   0.861   4.877   3.782  1.0361  0.4840 -1.6901
  154OSM   C16S17177   0.826   4.733   3.945 -0.0627 -0.0116  0.1415
  154OSM   H16S17178   0.920   4.711   4.000  1.1768 -0.2078 -1.9899
  154OSM   H16T17179   0.776   4.634   3.955  1.0773 -0.5633  0.4533
  154OSM   C17S17180   0.748   4.847   4.013  0.3937  0.1060  0.2966
  154OSM   H17S17181   0.657   4.860   3.950  1.8492  1.6071 -1.5266
  154OSM   H17T17182   0.800   4.945   4.018 -0.5816  0.7521 -1.6257
  154OSM   C18S17183   0.692   4.818   4.155 -0.5298 -0.6138  0.0781
  154OSM   H18S17184   0.768   4.846   4.231 -1.0376 -0.4791  0.5366
  154OSM   H18T17185   0.677   4.709   4.164  0.9415 -0.6048  3.3607
  154OSM   H18U17186   0.595   4.873   4.163  0.2063  0.5817  0.9945
  154OSM    C1F17187   1.478   4.277   2.574 -0.1770 -0.0967 -0.0259
  154OSM     OF17188   1.537   4.312   2.469 -0.0941  0.5734 -0.3975
  154OSM    C2F17189   1.551   4.207   2.689 -0.4220  0.0435 -0.0499
  154OSM    H2F17190   1.613   4.131   2.636  0.5739  2.7260 -2.8893
  154OSM    H2G17191   1.477   4.153   2.752 -0.1989  1.1631  1.1742
  154OSM    C3F17192   1.638   4.304   2.774  0.7695 -1.0786 -0.3714
  154OSM    H3F17193   1.682   4.378   2.705  0.2259  0.4816  0.9339
  154OSM    H3G17194   1.716   4.233   2.809  2.9597  0.6023 -1.7269
  154OSM    C4F17195   1.553   4.375   2.876  0.3724 -0.0222 -0.0895
  154OSM    H4F17196   1.473   4.414   2.811 -2.1455 -1.0163  2.3150
  154OSM    H4G17197   1.620   4.450   2.923 -1.7257  2.5662 -1.1603
  154OSM    C5F17198   1.495   4.278   2.980  0.6921 -0.5305  0.2495
  154OSM    H5F17199   1.575   4.211   3.018  1.3101  0.9183  1.5381
  154OSM    H5G17200   1.418   4.213   2.931 -1.7070  0.4883  2.5678
  154OSM    C6F17201   1.437   4.345   3.106 -0.4277  0.3150  0.2670
  154OSM    H6F17202   1.358   4.418   3.075 -3.4841 -1.5604  3.2587
  154OSM    H6G17203   1.514   4.401   3.163 -0.7784  0.7679  0.3042
  154OSM    C7F17204   1.380   4.253   3.207 -0.2128 -0.4860  0.3577
  154OSM    H7F17205   1.343   4.312   3.293 -0.2103  0.9852 -0.6160
  154OSM    H7G17206   1.464   4.189   3.240 -0.4194 -0.8981  0.0790
  154OSM    C8F17207   1.271   4.157   3.147 -1.1897 -0.2046  0.2283
  154OSM    H8F17208   1.315   4.089   3.070  0.8676  0.9266  0.3717
  154OSM    H8G17209   1.204   4.219   3.084  0.6387 -0.5264 -2.1413
  154OSM    C9F17210   1.204   4.079   3.265  0.5826 -0.3418 -0.0937
  154OSM    H9F17211   1.220   3.971   3.270 -0.2248 -0.4043  1.5862
  154OSM   C10F17212   1.116   4.133   3.347 -0.2904  0.6876 -0.2087
  154OSM   H10F17213   1.086   4.067   3.430 -0.7393  1.9564  0.6579
  154OSM   C11F17214   1.069   4.274   3.354 -0.6282  0.6241 -0.4381
  154OSM   H11F17215   1.067   4.302   3.246  2.5425 -3.2361 -1.6181
  154OSM   H11G17216   1.149   4.337   3.399  0.1989 -1.5894  1.2488
  154OSM   C12F17217   0.933   4.294   3.409 -0.2384  0.4071 -0.3214
  154OSM   H12F17218   0.854   4.229   3.367  0.4715 -1.7102  1.5537
  154OSM   H12G17219   0.897   4.399   3.404 -1.9331 -0.1988 -0.9475
  154OSM   C13F17220   0.931   4.291   3.565  0.4771 -0.0213  0.3859
  154OSM   H13F17221   0.991   4.376   3.603  1.2142 -0.7253  0.8107
  154OSM   H13G17222   0.977   4.195   3.597 -0.7084 -1.1745 -1.2702
  154OSM   C14F17223   0.793   4.308   3.631  0.9255 -0.7581  0.2558
  154OSM   H14F17224   0.720   4.234   3.593  0.8740 -0.8859  0.6047
  154OSM   H14G17225   0.754   4.407   3.599 -1.7586 -1.7724  0.2524
  154OSM   C15F17226   0.802   4.301   3.788  0.1607  0.2773  0.4628
  154OSM   H15F17227   0.874   4.376   3.827  2.0605 -1.8184  1.0822
  154OSM   H15G17228   0.843   4.202   3.818 -1.8476 -0.7714 -0.1507
  154OSM   C16F17229   0.665   4.324   3.860 -0.0140 -0.5510 -0.0229
  154OSM   H16F17230   0.679   4.340   3.969 -0.4243 -1.7512  0.2223
  154OSM   H16G17231   0.609   4.229   3.845 -2.1212  0.5161  0.8776
  154OSM   C17F17232   0.586   4.453   3.818 -0.2752  0.3143 -0.1025
  154OSM   H17F17233   0.547   4.431   3.716  0.3351  1.0445 -0.5007
  154OSM   H17G17234   0.655   4.539   3.803  0.8325 -0.4099  0.7259
  154OSM   C18F17235   0.470   4.483   3.912 -0.3874 -0.0359 -1.0247
  154OSM   H18F17236   0.419   4.581   3.899 -3.0680 -1.2992 -0.4694
  154OSM   H18G17237   0.510   4.476   4.015 -0.7572  2.0485 -0.7260
  154OSM   H18H17238   0.393   4.403   3.906  1.7680 -2.2031 -0.8366
  155OSM      N17239   2.089   0.999   2.098 -0.3066  0.4737  0.5763
  155OSM    C1517240   2.054   1.144   2.074  0.3197  0.4692  0.2087
  155OSM   H15A17241   2.125   1.215   2.116 -0.0391  1.9381 -1.5826
  155OSM   H15B17242   1.954   1.160   2.110  0.4375  0.7417  0.4197
  155OSM   H15C17243   2.055   1.170   1.969 -1.0041 -0.0281  0.0753
  155OSM    C1417244   2.021   0.909   1.996 -0.1387 -0.4289  0.2783
  155OSM   H14A17245   2.063   0.900   1.897 -0.0286 -0.7279  0.3504
  155OSM   H14B17246   1.921   0.946   1.978  0.0534  0.2522  0.6317
  155OSM   H14C17247   2.006   0.807   2.031  0.5711  0.7712  4.3126
  155OSM    C1317248   2.240   0.990   2.097 -0.0602 -0.0016 -0.6746
  155OSM   H13A17249   2.284   1.054   2.171 -2.6290  0.9049  0.1085
  155OSM   H13B17250   2.284   1.028   2.006 -1.0075 -0.4333 -1.3298
  155OSM   H13C17251   2.281   0.891   2.108  0.6003  0.3491  0.0348
  155OSM    C1217252   2.043   0.963   2.238  0.9752  0.2469  0.1096
  155OSM   H12A17253   2.089   1.033   2.305  3.0055 -0.7412 -0.2094
  155OSM   H12B17254   2.073   0.861   2.258 -1.7452 -0.6966 -0.4802
  155OSM    C1117255   1.890   0.960   2.271  0.4836 -0.1182  0.3376
  155OSM   H11A17256   1.885   0.905   2.368  0.2116  1.7591  1.4234
  155OSM   H11B17257   1.839   0.902   2.192  2.8628 -1.1987 -0.4483
  155OSM      P17258   1.837   1.171   2.412 -0.2025  0.5642 -0.0250
  155OSM    O1317259   1.797   1.309   2.376  0.3548 -0.1154 -0.8798
  155OSM    O1417260   1.768   1.089   2.515 -0.4232 -0.2027  0.5146
  155OSM    O1117261   1.987   1.164   2.457  0.4038 -0.3294  0.0501
  155OSM    O1217262   1.830   1.087   2.279  0.0805  0.0044 -0.1161
  155OSM    C1S17263   2.052   1.259   2.538 -0.2234 -0.1547  0.3635
  155OSM    H1S17264   2.018   1.359   2.504  0.0748  0.3842  1.6348
  155OSM    H1T17265   2.162   1.249   2.525 -0.6991 -0.7694 -4.0748
  155OSM     NF17266   2.086   1.353   2.758 -0.0058  0.0896 -0.3914
  155OSM    HNF17267   2.176   1.341   2.799  0.2103  0.4493 -0.7581
  155OSM    C2S17268   2.030   1.235   2.688  0.5877  0.5421 -0.2641
  155OSM    H2S17269   1.919   1.231   2.687  0.5778  0.9290 -1.2725
  155OSM    C3S17270   2.078   1.094   2.741  0.7400  0.7172  0.3756
  155OSM    H3S17271   2.188   1.107   2.739  0.7661  0.3408 -2.5407
  155OSM     O317272   2.042   0.990   2.659 -0.3322 -0.6259 -0.2597
  155OSM    HO317273   2.008   1.037   2.583 -0.5794  2.8569  1.8779
  155OSM    C4S17274   2.034   1.076   2.882 -0.1634 -0.1256  0.6760
  155OSM    H4S17275   2.110   1.108   2.954  2.2765 -1.7070 -1.1252
  155OSM    C5S17276   1.916   1.019   2.919 -0.1936 -0.1229 -0.4087
  155OSM    H5S17277   1.841   1.003   2.840  0.1091  0.3366 -0.7886
  155OSM    C6S17278   1.875   0.985   3.062 -0.0398  0.1005  0.1063
  155OSM    H6S17279   1.858   0.875   3.063 -3.5446  0.5649  0.3875
  155OSM    H6T17280   1.769   1.018   3.077 -0.7570 -1.7678 -0.6856
  155OSM    C7S17281   1.970   1.029   3.179  0.4119  0.5025 -0.1274
  155OSM    H7S17282   1.917   1.044   3.276  0.6926 -2.4411  0.5412
  155OSM    H7T17283   2.025   1.123   3.157 -1.0654  0.9425 -2.1259
  155OSM    C8S17284   2.091   0.939   3.197  0.4704  0.1310 -0.0000
  155OSM    H8S17285   2.161   0.943   3.111 -0.0535  0.8733 -0.3937
  155OSM    H8T17286   2.058   0.833   3.205 -1.6560  0.5838 -2.0395
  155OSM    C9S17287   2.179   0.964   3.323 -0.4407  0.2181 -0.0950
  155OSM    H9S17288   2.204   1.071   3.313  0.1899  0.0876  0.0513
  155OSM    H9T17289   2.271   0.902   3.313 -0.1788  0.5926 -0.0004
  155OSM   C10S17290   2.110   0.943   3.465  0.4948  0.4627  0.4042
  155OSM   H10S17291   2.018   1.004   3.476 -0.9935 -1.6599  0.0176
  155OSM   H10T17292   2.179   0.957   3.551 -1.5995 -0.9730  2.3665
  155OSM   C11S17293   2.060   0.798   3.481  0.1755  0.6685 -1.6805
  155OSM   H11S17294   2.138   0.719   3.485  0.9900  1.5648  1.6024
  155OSM   H11T17295   1.992   0.768   3.398  1.6437  2.0384 -3.4312
  155OSM   C12S17296   1.971   0.780   3.608 -0.4223  0.7826 -0.2616
  155OSM   H12S17297   1.906   0.691   3.598  0.3794  0.3635 -1.9291
  155OSM   H12T17298   1.906   0.867   3.629  0.2112  0.6715  2.2752
  155OSM   C13S17299   2.062   0.752   3.732  0.0550 -0.1612  1.2953
  155OSM   H13S17300   2.120   0.844   3.756 -0.9511  0.5724  0.9741
  155OSM   H13T17301   2.140   0.673   3.729  1.1931  0.8856  2.4634
  155OSM   C14S17302   1.980   0.706   3.859 -0.2911 -0.3236 -0.1860
  155OSM   H14S17303   1.925   0.612   3.836 -0.5351 -0.3314  0.4142
  155OSM   H14T17304   1.891   0.772   3.871  1.4219  1.8050  1.2393
  155OSM   C15S17305   2.066   0.701   3.984 -0.0008  0.1424 -0.2610
  155OSM   H15S17306   1.986   0.689   4.060  0.1557 -2.8883 -0.5305
  155OSM   H15T17307   2.118   0.798   3.998 -0.9697  0.6019  0.2286
  155OSM   C16S17308   2.170   0.590   3.975  0.0146  0.5272 -0.2293
  155OSM   H16S17309   2.240   0.614   3.892  0.5284 -0.0517  0.0344
  155OSM   H16T17310   2.117   0.493   3.956  0.0735  0.7076 -1.3618
  155OSM   C17S17311   2.261   0.580   4.104 -0.2498  0.2180 -0.4296
  155OSM   H17S17312   2.326   0.670   4.091 -2.3413  1.9768  0.7906
  155OSM   H17T17313   2.318   0.486   4.087 -0.6684  0.1361 -1.3706
  155OSM   C18S17314   2.183   0.587   4.236 -0.0147 -0.3085  0.2741
  155OSM   H18S17315   2.135   0.683   4.263 -1.4642 -0.9793  0.1253
  155OSM   H18T17316   2.239   0.575   4.331 -2.3039  1.9692  1.9292
  155OSM   H18U17317   2.096   0.518   4.231  0.1116 -0.5481  1.4243
  155OSM    C1F17318   2.015   1.464   2.764  0.4415 -0.4630  0.0705
  155OSM     OF17319   1.904   1.465   2.724 -0.2884 -0.0381 -0.0121
  155OSM    C2F17320   2.085   1.581   2.821 -0.1394 -0.0060  0.0928
  155OSM    H2F17321   2.051   1.674   2.771 -1.8179  0.5568  2.2107
  155OSM    H2G17322   2.194   1.584   2.799  0.2733 -3.4962  1.3865
  155OSM    C3F17323   2.068   1.605   2.969 -0.0342  0.3933  0.4441
  155OSM    H3F17324   2.101   1.517   3.029  1.2103 -0.5242 -1.5185
  155OSM    H3G17325   1.958   1.613   2.986 -0.0833  1.1005 -0.2050
  155OSM    C4F17326   2.132   1.735   3.014 -1.1424  0.0558 -0.3250
  155OSM    H4F17327   2.099   1.813   2.943 -1.1081  0.7306  0.3879
  155OSM    H4G17328   2.243   1.736   3.019 -1.2290 -1.0293  3.3762
  155OSM    C5F17329   2.071   1.782   3.154  0.1889 -0.2496  0.6289
  155OSM    H5F17330   2.121   1.726   3.236  0.5888  2.0985  2.0281
  155OSM    H5G17331   1.960   1.775   3.157  0.2064 -0.3486  1.0585
  155OSM    C6F17332   2.103   1.928   3.175  0.4779 -0.1823 -0.4796
  155OSM    H6F17333   2.077   1.982   3.081  0.0928 -1.0064 -0.8527
  155OSM    H6G17334   2.210   1.954   3.188  0.6214 -1.7859  1.9204
  155OSM    C7F17335   2.016   1.998   3.287  0.2674  0.1592  0.7074
  155OSM    H7F17336   2.050   1.942   3.376 -0.6713  1.6855  2.0466
  155OSM    H7G17337   1.907   1.990   3.273  0.4199  0.4867 -0.8208
  155OSM    C8F17338   2.056   2.147   3.285  0.1726  0.0447  0.4494
  155OSM    H8F17339   1.997   2.199   3.207  0.7557  1.7532  1.1191
  155OSM    H8G17340   2.158   2.156   3.243 -0.1799 -3.0261 -1.1802
  155OSM    C9F17341   2.042   2.206   3.431 -0.6059 -0.2555  0.1359
  155OSM    H9F17342   1.938   2.220   3.464 -0.1448  0.7089  1.2287
  155OSM   C10F17343   2.136   2.201   3.534  0.1130  0.8909  0.4553
  155OSM   H10F17344   2.113   2.255   3.627  0.4898  0.3976  0.8344
  155OSM   C11F17345   2.270   2.138   3.517  0.4184 -0.0955 -0.7779
  155OSM   H11F17346   2.293   2.140   3.408  0.9933  2.4700 -0.6593
  155OSM   H11G17347   2.261   2.033   3.552 -0.6410  0.4937  0.7845
  155OSM   C12F17348   2.377   2.223   3.587  0.1911 -0.8305  0.2481
  155OSM   H12F17349   2.367   2.327   3.551 -0.1788 -1.1434 -0.5824
  155OSM   H12G17350   2.475   2.180   3.558 -0.1470 -0.6734 -1.1465
  155OSM   C13F17351   2.378   2.225   3.737 -0.8724  0.4439 -1.4193
  155OSM   H13F17352   2.480   2.197   3.771 -1.2721 -0.5550 -1.0212
  155OSM   H13G17353   2.301   2.157   3.778 -1.6686  2.7859  1.1166
  155OSM   C14F17354   2.355   2.364   3.794  0.0230  0.0314 -0.1907
  155OSM   H14F17355   2.263   2.406   3.746 -0.0570  0.3504  0.2440
  155OSM   H14G17356   2.439   2.419   3.747 -1.1066  0.7372 -1.4373
  155OSM   C15F17357   2.342   2.355   3.939  0.0405 -0.0790  0.4758
  155OSM   H15F17358   2.359   2.452   3.990  1.4275 -0.4926  0.8368
  155OSM   H15G17359   2.422   2.283   3.969 -0.7469 -0.5448  1.5042
  155OSM   C16F17360   2.211   2.289   3.990  0.0733 -0.1150  0.4269
  155OSM   H16F17361   2.211   2.178   3.979 -2.3544 -0.5661  4.2997
  155OSM   H16G17362   2.116   2.312   3.936 -0.6590 -1.5206  1.0813
  155OSM   C17F17363   2.183   2.329   4.134 -0.9297 -0.3410  0.0685
  155OSM   H17F17364   2.089   2.283   4.170  0.7194 -4.3368 -0.4190
  155OSM   H17G17365   2.205   2.438   4.144  0.5996 -0.5254 -1.0953
  155OSM   C18F17366   2.284   2.260   4.231 -0.1307 -0.3367 -0.5729
  155OSM   H18F17367   2.277   2.149   4.228 -0.9217 -0.3477  1.1629
  155OSM   H18G17368   2.266   2.311   4.328 -0.1519  0.8387 -1.1974
  155OSM   H18H17369   2.392   2.277   4.213  0.1437  0.0461  1.2980
  156OSM      N17370   5.340   6.398   2.019 -0.1192 -0.8840 -0.0105
  156OSM    C1517371   5.295   6.539   1.999  0.1953 -0.7906 -0.2316
  156OSM   H15A17372   5.366   6.615   2.028 -0.0942 -0.5174 -0.2449
  156OSM   H15B17373   5.206   6.556   2.058 -1.1299 -1.8069 -1.8733
  156OSM   H15C17374   5.272   6.566   1.897  0.6291 -0.0465 -0.1352
  156OSM    C1417375   5.470   6.385   1.953  0.3436  0.2528 -0.3843
  156OSM   H14A17376   5.529   6.475   1.963  2.4938 -1.4467  3.6648
  156OSM   H14B17377   5.457   6.358   1.849  1.0057  0.1579 -0.4407
  156OSM   H14C17378   5.530   6.309   2.002  4.5753  2.3037 -2.1945
  156OSM    C1317379   5.368   6.385   2.170  0.1832 -0.0450 -0.4171
  156OSM   H13A17380   5.389   6.282   2.195 -2.4210 -0.4899  0.0765
  156OSM   H13B17381   5.283   6.422   2.225  0.0172 -1.3181  0.1870
  156OSM   H13C17382   5.457   6.440   2.196 -0.9923  1.8890 -0.3616
  156OSM    C1217383   5.251   6.284   1.976  0.2340 -1.2657  0.0318
  156OSM   H12A17384   5.235   6.306   1.871  0.5258 -2.9433 -0.3864
  156OSM   H12B17385   5.152   6.300   2.016  0.7634  1.5886  0.2854
  156OSM    C1117386   5.302   6.137   1.975 -0.1165  0.2527 -0.0667
  156OSM   H11A17387   5.363   6.135   1.882 -1.5343 -0.4430 -0.9970
  156OSM   H11B17388   5.224   6.061   1.954  0.8778 -0.7523 -0.1659
  156OSM      P17389   5.425   5.945   2.101  0.0336  0.0752  0.0884
  156OSM    O1317390   5.335   5.881   2.201  0.5032 -0.1809 -0.4438
  156OSM    O1417391   5.433   5.867   1.974 -0.7940 -0.5560 -0.1489
  156OSM    O1117392   5.566   5.960   2.160 -0.3377  0.0924 -0.0406
  156OSM    O1217393   5.378   6.091   2.081 -0.2855  0.3307  0.1995
  156OSM    C1S17394   5.623   6.055   2.246 -0.0954 -0.3194 -0.6097
  156OSM    H1S17395   5.582   6.157   2.230  0.9992  0.8011  3.0387
  156OSM    H1T17396   5.730   6.071   2.222 -0.0843 -0.3435 -0.5758
  156OSM     NF17397   5.635   6.124   2.485 -0.1426 -0.1086  0.0320
  156OSM    HNF17398   5.727   6.135   2.521  0.5723  0.2089 -1.8549
  156OSM    C2S17399   5.609   6.013   2.394  0.4463 -0.4076  0.1603
  156OSM    H2S17400   5.508   5.968   2.405 -1.0155  2.3304 -1.6558
  156OSM    C3S17401   5.715   5.901   2.424 -0.7225 -0.4486 -0.1376
  156OSM    H3S17402   5.808   5.961   2.433 -0.4996 -0.9843  1.2056
  156OSM     O317403   5.736   5.822   2.313  0.1616 -0.1294 -0.8288
  156OSM    HO317404   5.679   5.852   2.242 -1.5143 -1.5342 -0.1147
  156OSM    C4S17405   5.679   5.842   2.555 -0.3114  0.5635 -0.0377
  156OSM    H4S17406   5.709   5.904   2.640 -1.1134  0.7561  0.1088
  156OSM    C5S17407   5.602   5.725   2.572 -1.0845 -0.0064  0.0218
  156OSM    H5S17408   5.577   5.673   2.478 -1.0104 -0.4557  0.2493
  156OSM    C6S17409   5.561   5.672   2.700 -0.1512 -0.1859  0.0218
  156OSM    H6S17410   5.576   5.564   2.720  1.6873 -0.0748 -0.6394
  156OSM    H6T17411   5.451   5.684   2.689 -0.0494  0.5645 -0.2031
  156OSM    C7S17412   5.589   5.761   2.824 -0.2932  0.7002 -0.5136
  156OSM    H7S17413   5.555   5.867   2.821  0.2463  0.8784 -0.4885
  156OSM    H7T17414   5.699   5.760   2.837 -0.4047 -0.3798  0.4924
  156OSM    C8S17415   5.537   5.709   2.965 -0.0278  0.0017  0.4267
  156OSM    H8S17416   5.569   5.603   2.970 -0.4298 -0.0147  3.3815
  156OSM    H8T17417   5.427   5.720   2.954  0.2797  2.4828 -0.3832
  156OSM    C9S17418   5.588   5.819   3.064 -0.0499  0.1481 -0.3481
  156OSM    H9S17419   5.534   5.909   3.028  1.3830  1.0120 -0.3556
  156OSM    H9T17420   5.697   5.838   3.059 -0.0545  0.0790 -0.6757
  156OSM   C10S17421   5.542   5.782   3.211 -0.0037 -0.6136 -0.3579
  156OSM   H10S17422   5.598   5.691   3.238 -0.3886 -0.8171 -0.2422
  156OSM   H10T17423   5.431   5.772   3.219 -0.0784  0.5792  0.2559
  156OSM   C11S17424   5.584   5.888   3.317  0.2780 -0.5712  0.3905
  156OSM   H11S17425   5.549   5.991   3.294  0.1087 -0.2258  2.0944
  156OSM   H11T17426   5.694   5.885   3.302  0.4381  0.7191  1.1647
  156OSM   C12S17427   5.535   5.858   3.462  0.8230  0.0950  0.1668
  156OSM   H12S17428   5.564   5.758   3.500 -1.9292 -0.8155 -0.0227
  156OSM   H12T17429   5.424   5.854   3.466  0.8592 -0.5760  0.4639
  156OSM   C13S17430   5.579   5.965   3.559 -0.4286  0.0593 -0.0929
  156OSM   H13S17431   5.662   6.022   3.512 -0.0133  0.2619  0.8578
  156OSM   H13T17432   5.629   5.918   3.647  3.4003  3.1965 -0.4657
  156OSM   C14S17433   5.458   6.043   3.609  0.1416 -0.2693 -0.1479
  156OSM   H14S17434   5.373   5.972   3.620 -1.0410  1.4561  2.3742
  156OSM   H14T17435   5.429   6.123   3.537 -0.4515 -0.7255 -0.4260
  156OSM   C15S17436   5.484   6.108   3.743 -0.3600 -0.2175  0.0066
  156OSM   H15S17437   5.572   6.172   3.724  1.1300 -1.6681  1.8322
  156OSM   H15T17438   5.489   6.038   3.829  2.0842 -0.3032 -0.1825
  156OSM   C16S17439   5.370   6.206   3.770  0.0448  0.8912  0.4648
  156OSM   H16S17440   5.295   6.149   3.829  2.4824  1.7274  4.5180
  156OSM   H16T17441   5.335   6.255   3.676  3.0744 -1.8547 -2.2281
  156OSM   C17S17442   5.408   6.310   3.875 -0.3728  0.7226 -0.0254
  156OSM   H17S17443   5.322   6.379   3.867 -0.4895  0.4967 -0.7335
  156OSM   H17T17444   5.500   6.362   3.840  0.1289 -0.0721  0.1001
  156OSM   C18S17445   5.430   6.273   4.018  0.3984  1.0017  0.5072
  156OSM   H18S17446   5.467   6.358   4.079  0.6689  1.9300 -0.9256
  156OSM   H18T17447   5.507   6.194   4.029 -1.3635 -0.8906 -0.4570
  156OSM   H18U17448   5.331   6.239   4.057 -0.1087  1.9618  0.0992
  156OSM    C1F17449   5.549   6.225   2.507  0.5817 -0.4657  0.2357
  156OSM     OF17450   5.431   6.234   2.463  0.0214 -0.5271  0.3463
  156OSM    C2F17451   5.594   6.330   2.597  0.1221  0.3647 -0.1899
  156OSM    H2F17452   5.519   6.410   2.582 -1.3471 -0.4826  2.1852
  156OSM    H2G17453   5.695   6.362   2.564 -0.6160  2.1583 -0.7247
  156OSM    C3F17454   5.589   6.290   2.747 -0.3605 -0.5846  0.3782
  156OSM    H3F17455   5.669   6.217   2.772  1.2326  0.8320 -0.4566
  156OSM    H3G17456   5.486   6.258   2.774 -0.3823  0.2294  1.3124
  156OSM    C4F17457   5.599   6.417   2.845 -0.1343 -0.3173  0.2202
  156OSM    H4F17458   5.512   6.481   2.817  0.0416 -1.3237 -2.7488
  156OSM    H4G17459   5.685   6.484   2.826  1.2796 -1.9577  0.7508
  156OSM    C5F17460   5.580   6.379   2.985 -0.2370  0.2571 -0.5258
  156OSM    H5F17461   5.654   6.306   3.023  0.1423  0.6091 -0.5826
  156OSM    H5G17462   5.489   6.317   2.980  0.4736 -0.7150 -1.6713
  156OSM    C6F17463   5.555   6.485   3.094 -0.5026  0.9328  0.2506
  156OSM    H6F17464   5.526   6.581   3.046 -0.9426  0.4306 -0.5071
  156OSM    H6G17465   5.655   6.494   3.141  0.0208 -1.3745 -0.3462
  156OSM    C7F17466   5.441   6.433   3.189  0.0166 -0.7086  0.3850
  156OSM    H7F17467   5.497   6.355   3.246  1.3397  0.3999  0.6362
  156OSM    H7G17468   5.360   6.395   3.124 -0.6263 -0.4895  1.0546
  156OSM    C8F17469   5.378   6.538   3.281  0.0890  0.0445  0.0798
  156OSM    H8F17470   5.271   6.511   3.299  0.1957 -0.9472 -0.7237
  156OSM    H8G17471   5.366   6.639   3.237  2.6586  0.5944  0.5645
  156OSM    C9F17472   5.447   6.555   3.418  0.1480 -0.4669 -0.2379
  156OSM    H9F17473   5.557   6.559   3.422  0.1549 -0.3612 -0.5890
  156OSM   C10F17474   5.385   6.547   3.532  0.5378  0.0117  0.4416
  156OSM   H10F17475   5.442   6.551   3.626 -2.6069 -0.6391  2.4381
  156OSM   C11F17476   5.240   6.519   3.559  0.4430 -0.3688  0.1872
  156OSM   H11F17477   5.236   6.441   3.639  0.5229 -1.6336 -1.0264
  156OSM   H11G17478   5.185   6.475   3.473 -1.9368  0.8883  1.0071
  156OSM   C12F17479   5.171   6.640   3.607  0.3036 -0.6454  0.2394
  156OSM   H12F17480   5.164   6.701   3.514 -0.3577  1.1513  1.4479
  156OSM   H12G17481   5.231   6.689   3.687 -1.0810  0.4260  0.6442
  156OSM   C13F17482   5.032   6.615   3.673  0.3571  0.3780  0.1798
  156OSM   H13F17483   5.046   6.550   3.762 -0.3433  0.4882  0.3738
  156OSM   H13G17484   4.966   6.559   3.602  0.1474  1.8088 -0.7773
  156OSM   C14F17485   4.951   6.739   3.716 -0.3644  0.1592 -0.1686
  156OSM   H14F17486   4.899   6.767   3.621 -0.0066  2.9018  0.3976
  156OSM   H14G17487   5.019   6.825   3.734  1.3932 -1.3676  0.5808
  156OSM   C15F17488   4.845   6.709   3.815  0.2184  0.0957  0.3008
  156OSM   H15F17489   4.890   6.681   3.913 -1.6404 -3.1037  0.3195
  156OSM   H15G17490   4.791   6.619   3.777  0.1026  0.1155  0.4203
  156OSM   C16F17491   4.742   6.823   3.851 -0.4311  0.2550  0.2337
  156OSM   H16F17492   4.697   6.867   3.761  0.9135 -1.2275 -1.2098
  156OSM   H16G17493   4.790   6.905   3.909  1.6941 -1.2867  0.7784
  156OSM   C17F17494   4.630   6.759   3.936  0.5048 -0.5357  0.6730
  156OSM   H17F17495   4.576   6.846   3.980 -0.3587 -0.1177 -1.1863
  156OSM   H17G17496   4.664   6.684   4.011  1.5411 -2.1882 -1.4132
  156OSM   C18F17497   4.526   6.689   3.849  0.2278 -0.5456 -0.5387
  156OSM   H18F17498   4.503   6.751   3.760 -1.7873  0.3905  0.5917
  156OSM   H18G17499   4.434   6.680   3.912  1.0134  1.1790  0.8986
  156OSM   H18H17500   4.556   6.583   3.832 -0.8301 -1.1835  1.3145
  157OSM      N17501   4.854   0.735   1.846  0.5933 -0.2213  0.6927
  157OSM    C1517502   4.717   0.704   1.788  0.6132  0.3017  0.1689
  157OSM   H15A17503   4.650   0.685   1.870  1.0027  0.2437  0.4731
  157OSM   H15B17504   4.708   0.618   1.722 -1.1215  1.6738 -1.4387
  157OSM   H15C17505   4.683   0.790   1.732 -0.9093  1.1093  2.2578
  157OSM    C1417506   4.947   0.770   1.735 -0.1860  0.0829 -0.3039
  157OSM   H14A17507   4.890   0.799   1.648 -2.5485  0.9509  1.4780
  157OSM   H14B17508   5.008   0.685   1.709  1.3408  0.7451  1.0587
  157OSM   H14C17509   5.022   0.843   1.761  0.5336  0.2287 -2.6463
  157OSM    C1317510   4.826   0.848   1.937 -0.5090 -0.1124 -0.2249
  157OSM   H13A17511   4.923   0.895   1.950  0.2208 -1.3758 -1.0152
  157OSM   H13B17512   4.786   0.804   2.027  1.2423 -0.6424  0.3217
  157OSM   H13C17513   4.754   0.915   1.891  0.4990  0.8153 -0.4642
  157OSM    C1217514   4.906   0.614   1.921 -0.2979  0.1628  0.4351
  157OSM   H12A17515   4.990   0.647   1.980  0.4722  1.6204 -1.4475
  157OSM   H12B17516   4.928   0.530   1.856 -3.0750  0.8297 -1.4913
  157OSM    C1117517   4.807   0.541   2.021  0.2872  0.4988  0.0437
  157OSM   H11A17518   4.852   0.440   2.028 -0.1969  0.3360  0.9361
  157OSM   H11B17519   4.701   0.528   1.988  0.3719 -1.2154  0.3823
  157OSM      P17520   4.881   0.552   2.278 -0.5058 -0.6504 -0.1734
  157OSM    O1317521   4.858   0.405   2.271 -0.0623  0.4276 -0.6283
  157OSM    O1417522   5.021   0.601   2.272  0.6274 -0.5923  0.6619
  157OSM    O1117523   4.804   0.608   2.398  0.8899 -0.1623  0.1742
  157OSM    O1217524   4.804   0.609   2.142  0.2573  0.1052 -0.1513
  157OSM    C1S17525   4.681   0.671   2.389 -0.4559 -0.5308  0.1939
  157OSM    H1S17526   4.608   0.592   2.361  0.1647 -1.5757  1.4801
  157OSM    H1T17527   4.687   0.739   2.301 -0.3319 -1.6887 -0.6998
  157OSM     NF17528   4.506   0.802   2.494  0.4411  0.3156 -0.1595
  157OSM    HNF17529   4.504   0.889   2.445  1.1391 -0.8576 -2.3171
  157OSM    C2S17530   4.643   0.749   2.518  0.0084  0.1747  0.3917
  157OSM    H2S17531   4.656   0.683   2.606 -0.3151  1.1725  1.2022
  157OSM    C3S17532   4.750   0.859   2.544  0.4128 -0.6226  0.6368
  157OSM    H3S17533   4.753   0.934   2.462  1.9127 -1.8325 -0.4208
  157OSM     O317534   4.879   0.802   2.556  0.3012 -0.5362 -0.4957
  157OSM    HO317535   4.868   0.712   2.524 -3.0345  0.1798 -1.6274
  157OSM    C4S17536   4.708   0.932   2.672 -0.1573  0.1817 -0.3832
  157OSM    H4S17537   4.607   0.974   2.679 -0.5168 -0.2868 -2.6629
  157OSM    C5S17538   4.771   0.941   2.786 -0.0066 -1.1122 -0.5451
  157OSM    H5S17539   4.863   0.885   2.812  0.1614 -0.7581 -0.3612
  157OSM    C6S17540   4.715   1.013   2.910  0.1437 -0.0567 -0.7886
  157OSM    H6S17541   4.680   1.115   2.882 -1.3553 -0.2908  0.1805
  157OSM    H6T17542   4.792   1.023   2.989  0.5896 -0.2793 -1.1891
  157OSM    C7S17543   4.592   0.932   2.972  0.3888 -0.6848 -0.2993
  157OSM    H7S17544   4.514   0.916   2.894 -1.6122 -3.2496  2.1030
  157OSM    H7T17545   4.545   0.998   3.048  1.7440  1.0844 -0.9635
  157OSM    C8S17546   4.618   0.792   3.025 -0.5205  0.2688 -0.4558
  157OSM    H8S17547   4.668   0.721   2.956 -0.7919 -1.6768  1.2802
  157OSM    H8T17548   4.524   0.737   3.047  0.3946 -1.5193 -0.9470
  157OSM    C9S17549   4.701   0.785   3.157  0.1570  0.2093  1.0616
  157OSM    H9S17550   4.663   0.858   3.231  0.4500  0.6177  0.8164
  157OSM    H9T17551   4.805   0.821   3.141  0.1223  0.2482  0.9260
  157OSM   C10S17552   4.710   0.652   3.226  0.0173 -0.4436  0.6562
  157OSM   H10S17553   4.727   0.565   3.158  0.7003 -0.6505  1.0817
  157OSM   H10T17554   4.614   0.638   3.279 -0.3826 -3.3475 -0.6879
  157OSM   C11S17555   4.811   0.633   3.342 -1.3349 -0.0798 -0.6051
  157OSM   H11S17556   4.915   0.624   3.306 -1.6070 -0.7674 -1.2413
  157OSM   H11T17557   4.794   0.540   3.401 -0.8154  0.4982  0.4707
  157OSM   C12S17558   4.799   0.749   3.444 -0.0611  0.2084  0.4144
  157OSM   H12S17559   4.702   0.752   3.498  0.1217  0.2230  0.7403
  157OSM   H12T17560   4.802   0.848   3.394 -1.3415  0.8649  1.6088
  157OSM   C13S17561   4.910   0.736   3.556  0.7123 -0.6467 -0.1902
  157OSM   H13S17562   5.014   0.709   3.526  0.5558  0.3431 -1.6805
  157OSM   H13T17563   4.864   0.665   3.627  1.2030  0.3826  1.1655
  157OSM   C14S17564   4.924   0.857   3.643  0.3416  0.2535  0.3758
  157OSM   H14S17565   4.834   0.887   3.701  0.2685 -0.7331  0.7762
  157OSM   H14T17566   4.943   0.944   3.577  4.4149  0.8184  2.1770
  157OSM   C15S17567   5.045   0.864   3.738 -0.1534  0.9917  0.6274
  157OSM   H15S17568   5.045   0.967   3.778  1.1662  0.0237  3.2738
  157OSM   H15T17569   5.137   0.850   3.677 -1.7898 -2.5989 -1.2102
  157OSM   C16S17570   5.033   0.778   3.864  0.6785  0.0893  0.4583
  157OSM   H16S17571   5.073   0.677   3.837 -2.4235 -0.9067 -0.6557
  157OSM   H16T17572   4.927   0.748   3.880  0.6327 -0.7639 -1.3378
  157OSM   C17S17573   5.098   0.839   3.988 -0.1483 -0.3858 -0.2695
  157OSM   H17S17574   5.091   0.761   4.067  1.3142 -0.5802 -0.3208
  157OSM   H17T17575   5.026   0.919   4.016  0.2683  0.3837 -1.3856
  157OSM   C18S17576   5.245   0.891   3.981  0.6306 -0.2705  0.5647
  157OSM   H18S17577   5.296   0.881   4.079  3.1586 -1.1832 -0.7887
  157OSM   H18T17578   5.242   0.996   3.946  0.5554  0.4428  2.6720
  157OSM   H18U17579   5.296   0.828   3.905  1.4069 -0.5495  1.3098
  157OSM    C1F17580   4.392   0.733   2.503 -0.4827 -0.1028 -0.0450
  157OSM     OF17581   4.382   0.613   2.524  0.6902  0.2573 -0.1464
  157OSM    C2F17582   4.270   0.823   2.496 -0.0031 -0.0723 -0.2622
  157OSM    H2F17583   4.210   0.787   2.410  0.1248 -0.2395 -0.2811
  157OSM    H2G17584   4.308   0.928   2.493  1.3108 -0.5263  0.0567
  157OSM    C3F17585   4.163   0.811   2.609 -0.2587 -0.0026 -0.5525
  157OSM    H3F17586   4.122   0.709   2.625  3.3073 -1.7711 -2.1077
  157OSM    H3G17587   4.087   0.889   2.587  0.9701  1.5921  0.7272
  157OSM    C4F17588   4.231   0.848   2.742  0.2534 -0.7957  0.5105
  157OSM    H4F17589   4.284   0.945   2.733 -2.6235  0.8295  0.3638
  157OSM    H4G17590   4.308   0.771   2.761  3.5414  2.2693  0.0448
  157OSM    C5F17591   4.134   0.857   2.854  0.0555 -0.3169 -0.8750
  157OSM    H5F17592   4.061   0.774   2.846 -0.5169  0.2814 -1.9156
  157OSM    H5G17593   4.074   0.950   2.847  2.7127  1.6355  1.4426
  157OSM    C6F17594   4.207   0.847   2.991  0.3088 -0.3358 -0.2387
  157OSM    H6F17595   4.300   0.904   3.010 -1.3076  1.7884  1.6678
  157OSM    H6G17596   4.250   0.744   2.986  1.4996  0.0386  1.6232
  157OSM    C7F17597   4.118   0.859   3.117  0.2090 -0.1103  0.4316
  157OSM    H7F17598   4.050   0.771   3.127  1.9948 -1.7794 -1.5388
  157OSM    H7G17599   4.059   0.949   3.090  1.9054  1.1756  0.9433
  157OSM    C8F17600   4.198   0.895   3.243 -0.6566 -0.2987 -0.5411
  157OSM    H8F17601   4.122   0.912   3.323 -1.8907  1.3158 -2.0322
  157OSM    H8G17602   4.259   0.986   3.225 -0.4984  0.0954  1.7786
  157OSM    C9F17603   4.281   0.780   3.298  0.8521  0.2461  0.0921
  157OSM    H9F17604   4.331   0.737   3.210  1.6008 -0.3269  0.7870
  157OSM   C10F17605   4.288   0.737   3.421  0.2955  0.4849 -0.4907
  157OSM   H10F17606   4.327   0.637   3.442  1.4002  0.4537 -2.5830
  157OSM   C11F17607   4.211   0.789   3.544  0.1262  0.1646 -0.3200
  157OSM   H11F17608   4.214   0.716   3.628  0.3611  1.6282  0.9813
  157OSM   H11G17609   4.104   0.798   3.518  0.1473  0.6031 -0.2663
  157OSM   C12F17610   4.267   0.921   3.595  0.7384 -0.0759 -0.4139
  157OSM   H12F17611   4.252   0.996   3.515 -1.1095  0.3913  0.3644
  157OSM   H12G17612   4.373   0.895   3.617  0.8962  0.2112 -0.8322
  157OSM   C13F17613   4.204   0.970   3.728  0.6053 -0.2530  0.1442
  157OSM   H13F17614   4.272   1.053   3.755 -0.9355  0.7999  0.7946
  157OSM   H13G17615   4.218   0.890   3.805  2.6838  0.4446  0.5141
  157OSM   C14F17616   4.060   1.023   3.716 -0.1288 -0.2175 -0.2845
  157OSM   H14F17617   4.007   0.936   3.672 -1.3269  0.6886 -0.6388
  157OSM   H14G17618   4.060   1.112   3.650 -2.4149 -0.6526 -0.9065
  157OSM   C15F17619   4.002   1.068   3.850  0.5118 -0.0589 -0.0700
  157OSM   H15F17620   4.067   1.144   3.899 -0.3158  0.1955  0.6469
  157OSM   H15G17621   4.001   0.980   3.917  0.3536  0.9524  1.2892
  157OSM   C16F17622   3.862   1.127   3.856 -0.2517  0.6461  0.3647
  157OSM   H16F17623   3.787   1.056   3.815  0.3133 -1.0092  2.1137
  157OSM   H16G17624   3.867   1.220   3.794  1.8953  0.3603  0.0578
  157OSM   C17F17625   3.824   1.168   4.004  0.1378 -0.4314  0.2844
  157OSM   H17F17626   3.899   1.246   4.029  2.2275 -1.9908 -0.9712
  157OSM   H17G17627   3.837   1.085   4.077 -2.1574 -0.0792  1.1556
  157OSM   C18F17628   3.681   1.221   4.013  0.2122  0.1732  0.6345
  157OSM   H18F17629   3.606   1.142   3.989  2.2749 -1.9442  1.0159
  157OSM   H18G17630   3.664   1.309   3.947  1.1166 -0.5315 -0.5519
  157OSM   H18H17631   3.654   1.254   4.116  2.0203 -1.4549  1.6504
  158OSM      N17632   1.389   6.600   1.617  0.3253 -0.3579  0.3027
  158OSM    C1517633   1.528   6.585   1.563 -0.3377  0.0648  0.0248
  158OSM   H15A17634   1.537   6.485   1.525 -3.0879 -0.4307  0.5816
  158OSM   H15B17635   1.607   6.594   1.635  0.3445  0.4936 -0.7686
  158OSM   H15C17636   1.541   6.660   1.486 -1.6496  0.4938  0.2029
  158OSM    C1417637   1.372   6.738   1.666 -0.4210 -0.3773  0.4949
  158OSM   H14A17638   1.440   6.741   1.749 -0.5739  1.2277  0.5883
  158OSM   H14B17639   1.278   6.766   1.712 -0.1957 -1.4832  1.6522
  158OSM   H14C17640   1.407   6.809   1.592  0.4125 -1.4907 -0.1908
  158OSM    C1317641   1.296   6.576   1.505  0.6341  0.0789  0.1807
  158OSM   H13A17642   1.308   6.642   1.421  4.0127 -2.1772 -1.2208
  158OSM   H13B17643   1.193   6.580   1.540  0.8777 -2.4565  1.3198
  158OSM   H13C17644   1.307   6.483   1.451 -0.8469  0.2812 -0.4961
  158OSM    C1217645   1.376   6.502   1.735 -0.2141 -0.9642  0.5209
  158OSM   H12A17646   1.366   6.401   1.699 -2.3675 -0.5197 -0.1913
  158OSM   H12B17647   1.280   6.518   1.781 -0.1092 -1.9562  1.1100
  158OSM    C1117648   1.472   6.514   1.846 -0.5947  0.4086  0.2798
  158OSM   H11A17649   1.575   6.514   1.807 -0.8494  0.9441 -0.3959
  158OSM   H11B17650   1.464   6.430   1.918  0.7319 -1.1202 -1.3394
  158OSM      P17651   1.379   6.665   2.031 -0.2093 -0.2675 -0.1714
  158OSM    O1317652   1.388   6.802   2.081 -0.0867  0.7926 -0.0456
  158OSM    O1417653   1.242   6.618   1.994  0.2450  0.2161  0.6874
  158OSM    O1117654   1.427   6.571   2.149 -0.0984  0.5821 -0.1492
  158OSM    O1217655   1.474   6.636   1.913  0.2825 -0.3849  0.3510
  158OSM    C1S17656   1.544   6.620   2.221  0.1788  0.2176 -0.0507
  158OSM    H1S17657   1.522   6.715   2.275  0.8550  0.2091  0.2310
  158OSM    H1T17658   1.633   6.634   2.157  3.0821  1.4899  4.0796
  158OSM     NF17659   1.689   6.574   2.418  0.0252  0.5364  0.0261
  158OSM    HNF17660   1.783   6.554   2.392 -0.5308  0.1984 -1.7956
  158OSM    C2S17661   1.589   6.521   2.333  0.4819  0.3816  0.6483
  158OSM    H2S17662   1.494   6.501   2.388 -1.0843  0.4107 -1.9341
  158OSM    C3S17663   1.634   6.385   2.263 -0.3177 -0.0809  0.2777
  158OSM    H3S17664   1.725   6.401   2.201 -0.0152 -1.9670  0.1922
  158OSM     O317665   1.536   6.333   2.170  0.6484 -0.6474 -0.3128
  158OSM    HO317666   1.479   6.410   2.172 -0.7369 -1.6612  0.9582
  158OSM    C4S17667   1.655   6.278   2.367  0.0159 -0.2130  0.2784
  158OSM    H4S17668   1.573   6.242   2.430  1.4794 -3.2388  0.5569
  158OSM    C5S17669   1.773   6.235   2.399  0.1278 -0.2540  0.7136
  158OSM    H5S17670   1.853   6.262   2.328 -0.6792  0.1663 -0.0431
  158OSM    C6S17671   1.794   6.139   2.508 -0.1552  0.7050 -0.3881
  158OSM    H6S17672   1.809   6.036   2.469 -1.2865 -0.0573  1.1129
  158OSM    H6T17673   1.699   6.125   2.564 -0.6325  0.2812 -1.2908
  158OSM    C7S17674   1.911   6.188   2.601  0.5071  0.0647 -0.0393
  158OSM    H7S17675   1.887   6.276   2.664 -0.0757  0.5111 -0.8714
  158OSM    H7T17676   2.002   6.215   2.543  1.4198  0.1029  1.3891
  158OSM    C8S17677   1.949   6.090   2.712  0.5165  0.4316  0.8950
  158OSM    H8S17678   1.965   5.995   2.657  1.0845  0.2970  1.2863
  158OSM    H8T17679   1.859   6.077   2.775 -0.9029  2.4406 -0.6378
  158OSM    C9S17680   2.066   6.127   2.797 -0.1570  0.0310 -0.1327
  158OSM    H9S17681   2.147   6.163   2.730 -0.8664  0.0318 -1.0025
  158OSM    H9T17682   2.100   6.029   2.836  3.1244  1.3712  0.5231
  158OSM   C10S17683   2.046   6.228   2.911 -0.5548  0.2740 -0.2864
  158OSM   H10S17684   1.945   6.214   2.954 -0.5271 -0.6129 -0.5076
  158OSM   H10T17685   2.055   6.333   2.875  0.8012 -0.7449 -3.0638
  158OSM   C11S17686   2.158   6.215   3.025  0.0799  0.2640 -0.1821
  158OSM   H11S17687   2.257   6.206   2.976 -0.4449  0.4181 -1.3117
  158OSM   H11T17688   2.143   6.129   3.094 -2.1185  0.2342 -0.6317
  158OSM   C12S17689   2.167   6.345   3.112  0.3939  0.7599  0.5044
  158OSM   H12S17690   2.075   6.342   3.175 -1.6864 -2.0570 -2.5200
  158OSM   H12T17691   2.157   6.431   3.043  1.0672  0.4327 -0.0025
  158OSM   C13S17692   2.291   6.331   3.191  0.4351  0.7552  0.3133
  158OSM   H13S17693   2.351   6.424   3.183 -0.0921  0.8400 -3.0455
  158OSM   H13T17694   2.362   6.259   3.145  0.7855  0.9304  0.5796
  158OSM   C14S17695   2.266   6.289   3.331  0.7827 -0.0816  0.2844
  158OSM   H14S17696   2.224   6.186   3.338  0.7243  0.0407  1.9289
  158OSM   H14T17697   2.193   6.362   3.373  0.0893 -1.2655  1.1741
  158OSM   C15S17698   2.384   6.295   3.432  0.3349  0.4557 -0.1030
  158OSM   H15S17699   2.437   6.393   3.427 -0.9454  1.1696  0.0762
  158OSM   H15T17700   2.453   6.211   3.408 -1.3319 -0.8132 -0.5340
  158OSM   C16S17701   2.338   6.262   3.581  0.2046 -1.2125 -0.4786
  158OSM   H16S17702   2.273   6.172   3.577  0.6771 -1.5799  0.1805
  158OSM   H16T17703   2.268   6.341   3.616  0.1640 -1.0659 -0.8895
  158OSM   C17S17704   2.445   6.232   3.682  0.0390 -0.0241  0.2032
  158OSM   H17S17705   2.511   6.321   3.696 -1.0095  0.3329  3.0261
  158OSM   H17T17706   2.513   6.149   3.653  0.4859  0.5194 -0.3387
  158OSM   C18S17707   2.391   6.193   3.822  0.0372  0.1315  0.3760
  158OSM   H18S17708   2.347   6.091   3.823 -1.3390  0.7240  2.2049
  158OSM   H18T17709   2.302   6.258   3.835 -0.9215 -0.8342 -1.2142
  158OSM   H18U17710   2.465   6.200   3.905 -0.6392  2.6246  0.8137
  158OSM    C1F17711   1.663   6.660   2.514 -0.4478 -0.5988 -0.0375
  158OSM     OF17712   1.552   6.707   2.527 -0.3201  0.0063 -0.2848
  158OSM    C2F17713   1.772   6.707   2.601  1.2243 -0.1210 -1.2803
  158OSM    H2F17714   1.809   6.803   2.558 -0.9185  2.6396  2.6793
  158OSM    H2G17715   1.846   6.629   2.628  2.5667  1.3739 -0.5494
  158OSM    C3F17716   1.715   6.749   2.742 -0.2850  0.2040  0.7574
  158OSM    H3F17717   1.628   6.817   2.731 -0.0483  0.2118 -1.2727
  158OSM    H3G17718   1.803   6.801   2.785 -0.6662  0.2538  1.4788
  158OSM    C4F17719   1.683   6.625   2.829 -0.0690  0.0485  0.3419
  158OSM    H4F17720   1.770   6.560   2.810  0.8382  2.2190 -3.5902
  158OSM    H4G17721   1.596   6.571   2.786  0.6931  0.3543 -1.6474
  158OSM    C5F17722   1.670   6.657   2.980 -0.1346 -0.0479 -0.4020
  158OSM    H5F17723   1.564   6.678   3.006  0.0701  1.3347 -0.6410
  158OSM    H5G17724   1.723   6.752   3.005  0.2455  0.3958 -2.7729
  158OSM    C6F17725   1.723   6.541   3.061  0.0859 -0.2084 -0.1192
  158OSM    H6F17726   1.830   6.520   3.037  0.2010  0.0419  0.1829
  158OSM    H6G17727   1.671   6.445   3.043 -2.1618  0.6286  1.7569
  158OSM    C7F17728   1.700   6.566   3.209 -0.5236  0.0166  0.0024
  158OSM    H7F17729   1.598   6.560   3.252 -0.7340 -2.4058 -0.7582
  158OSM    H7G17730   1.727   6.673   3.224  0.3161  0.0687 -1.7552
  158OSM    C8F17731   1.797   6.491   3.304  0.0272 -0.0220 -0.1334
  158OSM    H8F17732   1.780   6.550   3.397 -0.1660  1.1400 -0.8862
  158OSM    H8G17733   1.904   6.491   3.274 -0.3652 -0.0588 -1.5368
  158OSM    C9F17734   1.752   6.348   3.315 -0.3582  0.2038 -0.0623
  158OSM    H9F17735   1.674   6.334   3.239 -0.1691 -2.5735  0.2218
  158OSM   C10F17736   1.774   6.257   3.411 -0.1526  0.0949 -0.5945
  158OSM   H10F17737   1.731   6.158   3.387  3.9787 -2.1717  0.8387
  158OSM   C11F17738   1.861   6.267   3.532 -0.5728  0.3128 -0.5964
  158OSM   H11F17739   1.915   6.364   3.532 -0.5181  0.2982  0.5627
  158OSM   H11G17740   1.951   6.202   3.525  0.6003  2.0974 -2.6286
  158OSM   C12F17741   1.783   6.238   3.668 -0.4095 -0.2855  0.1766
  158OSM   H12F17742   1.858   6.259   3.747 -0.0406 -0.3874 -0.1411
  158OSM   H12G17743   1.746   6.134   3.675 -1.4750  0.0495 -0.4078
  158OSM   C13F17744   1.657   6.323   3.688  0.2221  0.5382 -0.2628
  158OSM   H13F17745   1.580   6.320   3.607  2.7479 -3.3848 -2.6484
  158OSM   H13G17746   1.694   6.427   3.704 -1.1171  1.1308 -0.8664
  158OSM   C14F17747   1.591   6.269   3.818  0.3569  0.2946 -0.2062
  158OSM   H14F17748   1.673   6.275   3.892  0.8240 -0.3141 -0.6641
  158OSM   H14G17749   1.562   6.162   3.807 -1.8825  0.5347  2.7884
  158OSM   C15F17750   1.485   6.377   3.856 -0.2703  0.0807 -0.8306
  158OSM   H15F17751   1.413   6.390   3.772  0.6950 -0.7349 -1.8061
  158OSM   H15G17752   1.541   6.473   3.863  3.4161 -1.7297 -3.5123
  158OSM   C16F17753   1.416   6.349   3.984 -0.2523  0.1534  0.5307
  158OSM   H16F17754   1.477   6.317   4.071  1.5008  0.0722 -0.7043
  158OSM   H16G17755   1.347   6.264   3.965  1.7899 -1.1837 -1.1185
  158OSM   C17F17756   1.342   6.477   4.041  0.1744  0.0087 -0.6012
  158OSM   H17F17757   1.289   6.520   3.954  0.7403  1.8775 -0.0308
  158OSM   H17G17758   1.419   6.548   4.078 -0.6849 -0.1230  1.5086
  158OSM   C18F17759   1.250   6.459   4.160 -0.0616 -0.6538  0.0832
  158OSM   H18F17760   1.235   6.558   4.208  0.1773 -0.9200  0.7090
  158OSM   H18G17761   1.288   6.398   4.244  1.8526 -0.4980 -0.6433
  158OSM   H18H17762   1.156   6.413   4.123 -0.6192 -0.6589  1.4823
  159OSM      N17763   3.721   0.218   2.209  0.0814  0.2908  0.1004
  159OSM    C1517764   3.606   0.321   2.207 -0.0108 -0.7591 -0.8980
  159OSM   H15A17765   3.512   0.270   2.226 -0.7958  1.5388  1.6875
  159OSM   H15B17766   3.613   0.379   2.117 -1.0540  0.8190  0.0193
  159OSM   H15C17767   3.619   0.392   2.287  1.4654 -1.8634 -0.1320
  159OSM    C1417768   3.691   0.128   2.095 -0.4911 -0.6928  0.8013
  159OSM   H14A17769   3.702   0.176   1.999 -1.2774 -0.0097  1.0432
  159OSM   H14B17770   3.588   0.093   2.095 -0.2712 -1.3713 -0.3651
  159OSM   H14C17771   3.756   0.042   2.105  1.7417  0.9643  0.9135
  159OSM    C1317772   3.850   0.287   2.192  0.8637 -0.0788  0.5708
  159OSM   H13A17773   3.922   0.209   2.170 -1.3412 -2.1404  0.4370
  159OSM   H13B17774   3.888   0.331   2.283 -0.4858  3.4105 -0.4999
  159OSM   H13C17775   3.852   0.353   2.107 -2.8381 -0.8992 -0.2527
  159OSM    C1217776   3.714   0.151   2.347  0.6224 -0.5130  0.8961
  159OSM   H12A17777   3.612   0.117   2.355  0.2678  0.3878  0.2247
  159OSM   H12B17778   3.741   0.228   2.418  1.3585 -0.0125  0.0700
  159OSM    C1117779   3.790   0.019   2.370 -0.2078  0.1313 -0.2217
  159OSM   H11A17780   3.776  -0.012   2.476 -0.7990 -0.6829 -0.5344
  159OSM   H11B17781   3.896   0.050   2.360 -0.2032 -0.2029 -1.3233
  159OSM      P17782   3.885  -0.206   2.266 -0.0346  0.1259  0.2840
  159OSM    O1317783   3.836  -0.322   2.199 -0.2255 -0.2107 -0.0305
  159OSM    O1417784   4.015  -0.145   2.217 -0.1722  0.2561 -1.1210
  159OSM    O1117785   3.911  -0.249   2.415  0.9443  0.3874 -0.6599
  159OSM    O1217786   3.766  -0.090   2.275  0.0007 -0.6427  0.1357
  159OSM    C1S17787   4.026  -0.203   2.484 -0.3978 -0.3353 -0.6984
  159OSM    H1S17788   4.033  -0.092   2.488  1.4059 -0.3000 -3.2987
  159OSM    H1T17789   4.122  -0.244   2.445  0.1346 -0.5763  0.8005
  159OSM     NF17790   4.127  -0.158   2.712  0.2337 -0.5031 -0.0042
  159OSM    HNF17791   4.215  -0.198   2.733  1.0231  2.0591  1.9169
  159OSM    C2S17792   4.028  -0.233   2.645 -0.3140  0.7643  0.5475
  159OSM    H2S17793   3.927  -0.201   2.679 -0.1774  3.2015 -1.2299
  159OSM    C3S17794   4.053  -0.383   2.661  0.2272 -0.0974  0.0833
  159OSM    H3S17795   4.160  -0.399   2.635  0.9260 -0.2635  2.8773
  159OSM     O317796   3.961  -0.461   2.585 -0.1997  0.0540  0.2605
  159OSM    HO317797   3.917  -0.399   2.527 -0.9900  0.7532  1.5720
  159OSM    C4S17798   4.051  -0.414   2.810 -0.3961 -0.0284  0.3867
  159OSM    H4S17799   4.142  -0.460   2.851 -0.9228  1.6491  3.5294
  159OSM    C5S17800   3.947  -0.402   2.890 -0.0751  0.0041  0.0961
  159OSM    H5S17801   3.854  -0.359   2.852 -0.4625  0.1397  1.1702
  159OSM    C6S17802   3.959  -0.440   3.039  0.0423 -0.1921 -0.5758
  159OSM    H6S17803   3.952  -0.547   3.068 -0.7407 -0.0523 -0.2247
  159OSM    H6T17804   3.866  -0.409   3.092  0.6933  1.2172 -0.2511
  159OSM    C7S17805   4.069  -0.358   3.107  0.2589  0.0364 -0.5505
  159OSM    H7S17806   4.164  -0.360   3.048 -0.9375  0.8078 -2.5696
  159OSM    H7T17807   4.100  -0.390   3.208  0.4190 -1.2730 -1.0012
  159OSM    C8S17808   4.043  -0.200   3.126  0.1154  0.5858 -0.4690
  159OSM    H8S17809   3.989  -0.159   3.039 -2.6175 -0.3950  0.6947
  159OSM    H8T17810   4.137  -0.143   3.141 -1.9708  3.8740  0.7194
  159OSM    C9S17811   3.962  -0.171   3.252  0.2523 -0.0618  0.1057
  159OSM    H9S17812   4.001  -0.204   3.351 -1.8167 -0.5699  0.7787
  159OSM    H9T17813   3.863  -0.219   3.239 -0.4811  1.4079  0.2425
  159OSM   C10S17814   3.936  -0.013   3.271  0.3022  0.1051 -0.6126
  159OSM   H10S17815   3.878   0.007   3.179 -2.1278  0.8313  1.0071
  159OSM   H10T17816   4.024   0.055   3.273  0.2266  0.1885  0.0951
  159OSM   C11S17817   3.847   0.022   3.398  0.1136  0.2821  0.3828
  159OSM   H11S17818   3.779  -0.066   3.409 -0.3131  0.6800  0.9093
  159OSM   H11T17819   3.784   0.112   3.380 -2.1710 -0.6424  3.3895
  159OSM   C12S17820   3.927   0.033   3.532  1.3040 -0.2681  0.4161
  159OSM   H12S17821   4.000   0.117   3.522 -2.7457  3.3619 -0.3318
  159OSM   H12T17822   3.987  -0.060   3.543 -0.5204 -1.5412 -0.2772
  159OSM   C13S17823   3.848   0.053   3.660  0.7230 -0.1619  0.1632
  159OSM   H13S17824   3.791  -0.041   3.681  1.5940 -0.4815  1.0895
  159OSM   H13T17825   3.774   0.136   3.656 -0.3873 -1.0803  1.3056
  159OSM   C14S17826   3.929   0.077   3.785  0.5701 -0.2800  0.2007
  159OSM   H14S17827   3.955   0.185   3.788 -0.5105  0.0141 -0.4533
  159OSM   H14T17828   4.021   0.016   3.786  1.3563  0.8745 -0.5680
  159OSM   C15S17829   3.856   0.053   3.911 -0.1784  0.3903  0.1079
  159OSM   H15S17830   3.910   0.092   4.000 -2.3224  1.0334  1.1758
  159OSM   H15T17831   3.839  -0.055   3.933  1.3287  0.2062  0.4347
  159OSM   C16S17832   3.721   0.125   3.916  0.4181 -0.3810  0.5821
  159OSM   H16S17833   3.657   0.069   3.846 -2.1964  2.2232  0.7613
  159OSM   H16T17834   3.746   0.226   3.876  0.7349 -0.8168 -0.3193
  159OSM   C17S17835   3.653   0.126   4.055 -0.2732 -0.0046  0.2309
  159OSM   H17S17836   3.550   0.169   4.057 -0.1746  0.2048  0.7417
  159OSM   H17T17837   3.716   0.196   4.113  0.2353  0.6817 -1.1145
  159OSM   C18S17838   3.651  -0.018   4.115  0.1424  0.6033 -0.5142
  159OSM   H18S17839   3.575  -0.025   4.196  0.4725 -0.2939 -0.2785
  159OSM   H18T17840   3.751  -0.045   4.154 -0.6289 -0.4792  0.7359
  159OSM   H18U17841   3.631  -0.090   4.033  0.4869  0.8126 -0.7799
  159OSM    C1F17842   4.111  -0.025   2.740  0.1196  0.1261 -0.1915
  159OSM     OF17843   4.006   0.026   2.713  0.1757  0.3136 -0.1642
  159OSM    C2F17844   4.229   0.056   2.797 -0.1717 -0.9448 -1.4453
  159OSM    H2F17845   4.295   0.103   2.720  0.2918 -0.4421 -0.7412
  159OSM    H2G17846   4.298  -0.013   2.849  0.6118 -0.2666 -1.5725
  159OSM    C3F17847   4.193   0.171   2.904  0.3311 -0.3125 -0.0684
  159OSM    H3F17848   4.111   0.134   2.969 -1.7493  0.5896 -2.1005
  159OSM    H3G17849   4.142   0.248   2.841 -0.2764 -0.2623  0.4814
  159OSM    C4F17850   4.324   0.227   2.953 -0.3023  0.0641 -0.0716
  159OSM    H4F17851   4.306   0.326   2.999 -1.4267  0.4276 -1.2905
  159OSM    H4G17852   4.384   0.244   2.861 -1.0990 -3.3367 -1.2962
  159OSM    C5F17853   4.399   0.133   3.049 -0.7041 -0.1364  0.5617
  159OSM    H5F17854   4.500   0.175   3.066 -0.6329 -0.2960  0.5335
  159OSM    H5G17855   4.409   0.035   2.999 -1.2273 -0.3769  0.9261
  159OSM    C6F17856   4.338   0.106   3.190  0.5489  0.4934 -0.4061
  159OSM    H6F17857   4.398   0.022   3.231 -2.3062 -1.4596 -0.0932
  159OSM    H6G17858   4.234   0.071   3.180  1.1398 -0.3618 -4.1284
  159OSM    C7F17859   4.341   0.229   3.281 -0.1906  0.4159  0.2261
  159OSM    H7F17860   4.265   0.219   3.362  0.1922 -2.2484  0.2990
  159OSM    H7G17861   4.314   0.314   3.216 -3.9364 -0.3050  0.7148
  159OSM    C8F17862   4.479   0.242   3.360 -0.9173 -0.5018 -0.0395
  159OSM    H8F17863   4.493   0.349   3.386  2.6496 -1.2360  1.3605
  159OSM    H8G17864   4.557   0.202   3.292 -1.9981 -1.1496 -0.9173
  159OSM    C9F17865   4.482   0.147   3.474  0.1449 -0.3291 -0.0625
  159OSM    H9F17866   4.540   0.056   3.455  0.7941  0.5512 -2.4580
  159OSM   C10F17867   4.418   0.169   3.592 -0.1285 -0.5250 -0.3624
  159OSM   H10F17868   4.432   0.099   3.676  4.0152  0.8400  0.1756
  159OSM   C11F17869   4.345   0.291   3.643  0.2725  0.2034  0.9757
  159OSM   H11F17870   4.288   0.336   3.558  0.4905 -2.4293 -0.6357
  159OSM   H11G17871   4.428   0.361   3.666  1.8140 -0.8142 -1.2387
  159OSM   C12F17872   4.254   0.286   3.767  0.5382  0.5527 -0.7052
  159OSM   H12F17873   4.160   0.241   3.727  0.3145  1.2749 -0.9809
  159OSM   H12G17874   4.227   0.388   3.801  0.1839  0.3514 -0.3809
  159OSM   C13F17875   4.289   0.195   3.888  1.0452  0.5982  0.0104
  159OSM   H13F17876   4.399   0.203   3.898  1.0910  2.2668 -1.5799
  159OSM   H13G17877   4.276   0.085   3.875 -0.5577  0.5482  1.7791
  159OSM   C14F17878   4.212   0.238   4.013 -0.8498 -0.3465 -0.1033
  159OSM   H14F17879   4.108   0.252   3.976 -1.3820 -3.9772 -0.2236
  159OSM   H14G17880   4.230   0.343   4.044  1.6250 -0.7707  0.0244
  159OSM   C15F17881   4.213   0.143   4.132 -0.0922  0.3073  0.0605
  159OSM   H15F17882   4.319   0.111   4.137  0.7690  2.9090 -0.6316
  159OSM   H15G17883   4.158   0.050   4.105  0.1027  0.4769 -0.9673
  159OSM   C16F17884   4.153   0.212   4.256  0.5727 -0.0971 -0.2962
  159OSM   H16F17885   4.051   0.253   4.243  0.3399 -0.1717  1.3025
  159OSM   H16G17886   4.213   0.289   4.308  1.8165 -1.3661  0.1695
  159OSM   C17F17887   4.114   0.088   4.356 -0.3211 -0.7164  0.6801
  159OSM   H17F17888   4.119   0.123   4.462 -0.8996 -1.9503  1.1312
  159OSM   H17G17889   4.203   0.025   4.335  1.9118  1.7244  2.4289
  159OSM   C18F17890   3.989   0.006   4.321 -0.2598 -0.0892 -0.6795
  159OSM   H18F17891   3.968  -0.052   4.413 -1.6109  0.4291 -0.6534
  159OSM   H18G17892   4.013  -0.053   4.229  0.1896  0.0641 -0.6635
  159OSM   H18H17893   3.899   0.065   4.291 -0.3896  0.1478  0.1792
  160OSM      N17894   1.192   1.188   1.975  0.3591 -0.1442  0.0434
  160OSM    C1517895   1.193   1.251   1.844  0.3145 -0.4922  0.8299
  160OSM   H15A17896   1.254   1.339   1.828  0.4419 -0.3700  1.9440
  160OSM   H15B17897   1.091   1.277   1.819  0.8488 -0.0646 -1.0513
  160OSM   H15C17898   1.218   1.175   1.772 -3.8350 -0.8132 -0.4105
  160OSM    C1417899   1.141   1.279   2.087  0.2466 -0.3789 -0.6313
  160OSM   H14A17900   1.218   1.351   2.108 -0.6033  0.9993 -2.1353
  160OSM   H14B17901   1.124   1.216   2.173 -1.5630  0.8853 -0.0471
  160OSM   H14C17902   1.053   1.332   2.053 -0.2214 -0.0914  0.9629
  160OSM    C1317903   1.095   1.071   1.960 -0.5132 -0.0041  0.7867
  160OSM   H13A17904   1.110   1.006   2.045  1.3127 -1.9918 -0.9951
  160OSM   H13B17905   1.106   1.021   1.865  2.1743  1.9075  0.0233
  160OSM   H13C17906   0.991   1.100   1.967 -0.1142  1.5362  0.4739
  160OSM    C1217907   1.334   1.129   2.010 -0.0030  0.4157 -0.1861
  160OSM   H12A17908   1.398   1.215   2.009 -0.0622  0.4610 -2.6359
  160OSM   H12B17909   1.358   1.058   1.932 -0.5536 -0.1156  0.1230
  160OSM    C1117910   1.369   1.059   2.140 -0.0440  0.6184  0.1085
  160OSM   H11A17911   1.345   1.129   2.224  0.2353  0.5922  0.2106
  160OSM   H11B17912   1.475   1.028   2.150  0.3430  1.2959 -1.7275
  160OSM      P17913   1.298   0.800   2.097  0.0655 -0.5480  0.2797
  160OSM    O1317914   1.161   0.748   2.052  1.0360 -0.1845 -0.3763
  160OSM    O1417915   1.396   0.816   1.989 -0.1519 -0.0515 -0.0339
  160OSM    O1117916   1.360   0.713   2.213 -0.3367 -0.0603  0.1592
  160OSM    O1217917   1.278   0.944   2.161 -0.3169  0.2279  0.9603
  160OSM    C1S17918   1.404   0.775   2.330  0.1788 -0.1679 -0.1705
  160OSM    H1S17919   1.314   0.801   2.389  0.0626 -0.1563 -0.3541
  160OSM    H1T17920   1.465   0.867   2.324  0.4171 -0.4374 -2.0946
  160OSM     NF17921   1.484   0.698   2.564 -0.2043  0.3710 -1.1407
  160OSM    HNF17922   1.565   0.732   2.610 -1.0831 -0.0154  0.7464
  160OSM    C2S17923   1.481   0.664   2.420  0.9738 -0.3123 -0.1591
  160OSM    H2S17924   1.418   0.574   2.405 -1.8317  0.9253  3.3990
  160OSM    C3S17925   1.625   0.645   2.355 -0.5968  0.5998 -0.0760
  160OSM    H3S17926   1.674   0.745   2.347  1.5219 -0.5206 -1.5773
  160OSM     O317927   1.618   0.602   2.219  0.3781  0.0049  0.5335
  160OSM    HO317928   1.526   0.599   2.189  0.0668  0.5599  1.4203
  160OSM    C4S17929   1.695   0.536   2.435  0.3258  0.2256  0.0128
  160OSM    H4S17930   1.661   0.435   2.407  1.8544 -0.6841  1.3764
  160OSM    C5S17931   1.803   0.559   2.513  0.3780  0.9246 -0.0192
  160OSM    H5S17932   1.846   0.660   2.520  1.4846  0.4219  0.6383
  160OSM    C6S17933   1.881   0.451   2.590 -0.4026  0.2522 -0.1856
  160OSM    H6S17934   1.975   0.424   2.537 -0.7529  0.7927 -1.1046
  160OSM    H6T17935   1.824   0.356   2.595 -1.5441  0.9342 -0.0897
  160OSM    C7S17936   1.933   0.503   2.722  1.0497 -0.3838 -0.0606
  160OSM    H7S17937   1.972   0.606   2.706  1.4975 -0.5127  0.1845
  160OSM    H7T17938   2.019   0.443   2.759  0.8127  0.0907  1.2840
  160OSM    C8S17939   1.826   0.506   2.834 -0.8247  0.2254  0.2844
  160OSM    H8S17940   1.809   0.399   2.861 -0.5856  0.5641  1.8121
  160OSM    H8T17941   1.729   0.529   2.786 -0.9032 -1.0712 -0.2167
  160OSM    C9S17942   1.862   0.582   2.958 -0.2203 -0.1400 -0.5378
  160OSM    H9S17943   1.875   0.691   2.941  1.1097 -0.3747 -1.1073
  160OSM    H9T17944   1.957   0.536   2.994  0.5973  1.5220 -0.5331
  160OSM   C10S17945   1.750   0.568   3.057  0.9522  0.0861 -0.2603
  160OSM   H10S17946   1.692   0.474   3.041  0.0233  0.7636 -0.9176
  160OSM   H10T17947   1.677   0.652   3.060  0.7173 -0.1152 -0.3120
  160OSM   C11S17948   1.802   0.558   3.199  0.0447 -0.4814  0.5068
  160OSM   H11S17949   1.845   0.652   3.238  0.6458 -0.5015 -0.1120
  160OSM   H11T17950   1.880   0.479   3.193  1.1016  0.5796  0.1826
  160OSM   C12S17951   1.690   0.515   3.293  0.5704  0.4857  0.0087
  160OSM   H12S17952   1.672   0.411   3.260 -0.6017  1.0007 -1.0363
  160OSM   H12T17953   1.599   0.576   3.275 -0.9132 -1.7235 -0.1412
  160OSM   C13S17954   1.733   0.528   3.439  0.5904 -0.4177  0.5821
  160OSM   H13S17955   1.713   0.631   3.473  0.3034 -1.2680  3.0813
  160OSM   H13T17956   1.835   0.489   3.459  0.3018 -0.9502  1.0348
  160OSM   C14S17957   1.646   0.436   3.527  0.2086  0.5270 -0.4147
  160OSM   H14S17958   1.668   0.332   3.493  0.0843  0.6180 -0.7826
  160OSM   H14T17959   1.536   0.445   3.515  0.0276 -1.4224 -0.3623
  160OSM   C15S17960   1.674   0.436   3.676  0.6532  0.3232 -0.6044
  160OSM   H15S17961   1.782   0.418   3.693  0.1095 -2.1697  0.4929
  160OSM   H15T17962   1.620   0.349   3.719  0.7409 -0.7536 -2.6427
  160OSM   C16S17963   1.616   0.552   3.760 -0.4039 -0.4940  0.5159
  160OSM   H16S17964   1.505   0.562   3.758 -0.2029  1.7924 -0.5357
  160OSM   H16T17965   1.658   0.651   3.734  0.0888 -0.8276  0.0573
  160OSM   C17S17966   1.645   0.531   3.909 -0.1373 -0.1092 -0.3789
  160OSM   H17S17967   1.751   0.499   3.923  0.7269  2.5029 -0.6163
  160OSM   H17T17968   1.575   0.458   3.955 -0.1960  1.4261  2.0352
  160OSM   C18S17969   1.632   0.656   4.002  0.0972  0.1755  0.3190
  160OSM   H18S17970   1.620   0.621   4.107 -0.2526 -2.5831 -0.6062
  160OSM   H18T17971   1.546   0.722   3.980  0.9314  1.1261 -0.1489
  160OSM   H18U17972   1.723   0.718   3.988 -0.0019  0.0822 -0.8120
  160OSM    C1F17973   1.372   0.690   2.629 -0.2974  0.1690  0.6864
  160OSM     OF17974   1.280   0.611   2.605 -0.1960 -0.6625  0.6028
  160OSM    C2F17975   1.376   0.768   2.754  0.2650  0.4639 -0.6707
  160OSM    H2F17976   1.357   0.872   2.720 -0.1058  0.5536 -0.1841
  160OSM    H2G17977   1.478   0.757   2.796 -0.2973 -0.8079  0.4248
  160OSM    C3F17978   1.280   0.700   2.857 -0.4042 -0.2837 -0.2013
  160OSM    H3F17979   1.324   0.602   2.884 -0.2178  0.3979  2.0760
  160OSM    H3G17980   1.175   0.690   2.824 -1.5297 -0.2636  3.2193
  160OSM    C4F17981   1.255   0.776   2.990 -0.8566 -0.3289  0.1127
  160OSM    H4F17982   1.201   0.708   3.059 -0.4531 -1.9506 -1.1304
  160OSM    H4G17983   1.186   0.863   2.980  0.5216  0.8332  0.4961
  160OSM    C5F17984   1.384   0.830   3.053  0.1850 -0.3145  0.0397
  160OSM    H5F17985   1.430   0.917   3.001 -1.4874  0.1626 -0.6544
  160OSM    H5G17986   1.463   0.752   3.057  0.1347 -0.2829  1.7204
  160OSM    C6F17987   1.361   0.861   3.202  0.1735 -1.0513  0.5772
  160OSM    H6F17988   1.329   0.772   3.260  2.2223 -0.8911  1.9945
  160OSM    H6G17989   1.279   0.935   3.217 -1.9334 -2.9606 -1.1790
  160OSM    C7F17990   1.488   0.907   3.273  0.2762  0.7015 -0.1760
  160OSM    H7F17991   1.522   1.007   3.238 -1.3763  1.5856  0.6611
  160OSM    H7G17992   1.569   0.834   3.250  0.4211  0.3002  1.5175
  160OSM    C8F17993   1.457   0.927   3.428 -0.8419 -0.0540  0.4510
  160OSM    H8F17994   1.370   0.995   3.437 -0.6897  0.3318 -0.8470
  160OSM    H8G17995   1.547   0.969   3.478 -1.5730  1.0955  0.8207
  160OSM    C9F17996   1.426   0.807   3.515 -1.0630  0.2366 -0.6331
  160OSM    H9F17997   1.471   0.718   3.469 -4.6369 -2.3955  0.7657
  160OSM   C10F17998   1.342   0.789   3.614  0.3385  0.2150  0.1882
  160OSM   H10F17999   1.345   0.692   3.665 -0.5466  0.2494  0.3048
  160OSM   C11F18000   1.256   0.901   3.663  0.4299 -0.0159  0.1967
  160OSM   H11F18001   1.174   0.860   3.725 -1.0157 -0.1833 -1.7799
  160OSM   H11G18002   1.194   0.947   3.583 -0.2494 -0.2532  0.5845
  160OSM   C12F18003   1.318   1.000   3.756 -0.4089  0.0605 -0.6417
  160OSM   H12F18004   1.257   1.092   3.770 -0.8669 -0.7561  3.1877
  160OSM   H12G18005   1.407   1.036   3.701  0.7924  0.1928  1.3149
  160OSM   C13F18006   1.382   0.951   3.890 -0.6021  0.1983  0.1504
  160OSM   H13F18007   1.479   1.002   3.907  0.9593 -2.8451  0.7334
  160OSM   H13G18008   1.398   0.841   3.886  0.1897  0.2947  0.5457
  160OSM   C14F18009   1.299   0.971   4.020  0.0839  0.6049  0.0924
  160OSM   H14F18010   1.201   0.923   4.004 -0.0861  0.9347  0.1507
  160OSM   H14G18011   1.265   1.077   4.012 -1.4249  0.2196  1.2803
  160OSM   C15F18012   1.375   0.932   4.145  0.4631 -0.4356  0.1216
  160OSM   H15F18013   1.407   0.828   4.125 -1.6793 -0.7605 -1.9650
  160OSM   H15G18014   1.298   0.928   4.225  0.9366 -0.0665  0.5922
  160OSM   C16F18015   1.486   1.027   4.181  0.2923 -0.2012 -0.3536
  160OSM   H16F18016   1.445   1.129   4.201 -1.7478 -0.7240 -1.7041
  160OSM   H16G18017   1.565   1.035   4.104  2.3289 -3.9905  1.2043
  160OSM   C17F18018   1.556   0.976   4.307  0.5872 -0.2251  0.4768
  160OSM   H17F18019   1.570   0.868   4.285  1.2816  0.2218 -1.3960
  160OSM   H17G18020   1.483   0.980   4.391 -1.7579 -2.2451 -1.3683
  160OSM   C18F18021   1.679   1.047   4.350  0.3133  0.7595  0.4615
  160OSM   H18F18022   1.663   1.157   4.353 -0.4796  0.6036  2.5175
  160OSM   H18G18023   1.751   1.016   4.271 -3.0175 -0.4941 -2.2358
  160OSM   H18H18024   1.720   1.012   4.447  1.0765  1.6430  0.4619
  161OSM      N18025   5.935   5.930   1.950 -0.3449 -0.4306  0.3948
  161OSM    C1518026   6.007   6.001   1.837 -0.7483  0.2420 -0.6631
  161OSM   H15A18027   6.042   6.095   1.876 -0.4806  1.4035 -3.5855
  161OSM   H15B18028   5.940   6.021   1.755 -1.5514 -0.5387 -0.2195
  161OSM   H15C18029   6.098   5.950   1.808  0.1496  0.8213  1.0454
  161OSM    C1418030   5.818   6.013   1.981 -0.6759 -0.1425 -0.3543
  161OSM   H14A18031   5.753   5.968   2.055  1.6269  0.2802  2.0081
  161OSM   H14B18032   5.758   6.032   1.893 -0.8746  2.8253  0.3453
  161OSM   H14C18033   5.848   6.114   2.008 -1.7999  0.4756 -1.3602
  161OSM    C1318034   5.884   5.799   1.891  0.1601  0.0193 -0.5959
  161OSM   H13A18035   5.970   5.736   1.876  0.7151  1.0411 -1.8754
  161OSM   H13B18036   5.823   5.808   1.802  1.8965  4.4059 -1.4957
  161OSM   H13C18037   5.815   5.744   1.953 -0.3680  1.0671 -0.2250
  161OSM    C1218038   6.026   5.912   2.068  0.2118 -0.1465 -0.5278
  161OSM   H12A18039   6.125   5.877   2.042  0.0124  0.9627 -2.9480
  161OSM   H12B18040   5.977   5.835   2.125  0.3908  0.1069 -0.0314
  161OSM    C1118041   6.061   6.032   2.159  0.8094 -0.1826  0.2603
  161OSM   H11A18042   6.088   5.980   2.254 -1.5990 -1.4010  0.2923
  161OSM   H11B18043   5.969   6.093   2.172  0.8606 -0.7090  3.6757
  161OSM      P18044   6.170   6.263   2.150  0.1541 -0.5676 -0.1349
  161OSM    O1318045   6.300   6.315   2.102 -0.4652  0.0457 -0.5612
  161OSM    O1418046   6.051   6.326   2.089 -0.0806 -0.5925  0.2162
  161OSM    O1118047   6.143   6.251   2.302  0.1880 -0.1113 -0.4045
  161OSM    O1218048   6.172   6.111   2.111 -0.0274 -0.5896  0.2296
  161OSM    C1S18049   6.230   6.180   2.391  0.5220 -0.3858 -0.2106
  161OSM    H1S18050   6.337   6.208   2.377  0.0827  1.9013  0.7072
  161OSM    H1T18051   6.230   6.071   2.369 -0.2288 -0.1284 -1.4973
  161OSM     NF18052   6.289   6.160   2.630  0.4296  0.8115 -0.3634
  161OSM    HNF18053   6.273   6.074   2.679 -1.4490  1.7638  0.7951
  161OSM    C2S18054   6.184   6.204   2.536 -0.4007 -0.1179  0.1311
  161OSM    H2S18055   6.178   6.313   2.559  0.1155 -0.4972  2.1024
  161OSM    C3S18056   6.046   6.142   2.554  0.4189 -0.0493  0.1022
  161OSM    H3S18057   6.040   6.034   2.530 -0.5572 -0.1027  0.5589
  161OSM     O318058   5.938   6.187   2.479 -0.2547 -0.7024 -0.1104
  161OSM    HO318059   5.968   6.225   2.397  0.6287 -1.3260 -0.0806
  161OSM    C4S18060   6.014   6.156   2.697  0.5739 -0.6453  0.2393
  161OSM    H4S18061   6.014   6.259   2.735 -1.5253 -0.9733  1.1717
  161OSM    C5S18062   5.997   6.050   2.779  0.3963  0.2263  0.4601
  161OSM    H5S18063   6.015   5.945   2.751  2.4876  0.6378  0.1940
  161OSM    C6S18064   5.969   6.051   2.924  0.3715 -0.3378 -0.2354
  161OSM    H6S18065   6.047   5.987   2.972 -0.3715 -1.7692 -0.8830
  161OSM    H6T18066   5.870   6.005   2.948  0.7771 -1.2751 -0.3208
  161OSM    C7S18067   5.959   6.190   2.989 -0.6155 -0.2111 -0.2533
  161OSM    H7S18068   5.886   6.251   2.931 -1.4162 -1.5043 -0.6307
  161OSM    H7T18069   6.061   6.232   2.985 -1.3204  1.4281 -1.3146
  161OSM    C8S18070   5.918   6.183   3.139  0.0570 -0.4576  0.4787
  161OSM    H8S18071   5.827   6.122   3.159  0.2312 -0.3630  1.5849
  161OSM    H8T18072   5.895   6.284   3.177  2.4192  0.5976 -0.7800
  161OSM    C9S18073   6.030   6.123   3.228 -0.3765  0.1281  0.2018
  161OSM    H9S18074   6.126   6.179   3.228 -1.4844  2.1015 -1.1552
  161OSM    H9T18075   6.064   6.025   3.189  1.9196  0.9385  0.0813
  161OSM   C10S18076   5.989   6.110   3.381  0.1262  0.1227  0.4394
  161OSM   H10S18077   6.073   6.054   3.428 -1.6474 -0.7458  2.6464
  161OSM   H10T18078   5.893   6.055   3.381  0.5471 -0.6438 -0.4268
  161OSM   C11S18079   5.982   6.241   3.444 -0.6356  0.0516 -0.4170
  161OSM   H11S18080   5.914   6.314   3.396 -3.3282 -1.4839  0.8994
  161OSM   H11T18081   6.083   6.287   3.452 -0.7168  0.0406  0.8578
  161OSM   C12S18082   5.920   6.225   3.587 -0.0274  0.1369 -0.3411
  161OSM   H12S18083   5.980   6.157   3.650  0.6695  0.7392 -0.3504
  161OSM   H12T18084   5.816   6.187   3.584 -0.0310  0.1972 -1.1176
  161OSM   C13S18085   5.923   6.355   3.668 -0.5934 -0.8664  0.4690
  161OSM   H13S18086   5.866   6.428   3.606  1.0138  0.5321  0.6173
  161OSM   H13T18087   6.022   6.405   3.678 -0.3943 -0.7776 -1.5939
  161OSM   C14S18088   5.879   6.344   3.816  0.5371  1.0353  0.2725
  161OSM   H14S18089   5.947   6.273   3.869  1.5344  2.8713  1.4953
  161OSM   H14T18090   5.781   6.293   3.812  0.6912  0.5969  1.8489
  161OSM   C15S18091   5.877   6.457   3.920 -0.7901 -0.8317  0.1505
  161OSM   H15S18092   5.958   6.528   3.892 -1.2639 -0.8243 -1.2356
  161OSM   H15T18093   5.898   6.421   4.023  0.0759 -0.1274  0.2325
  161OSM   C16S18094   5.750   6.542   3.916 -0.3075 -0.5889  0.6969
  161OSM   H16S18095   5.658   6.479   3.921 -0.2877 -0.7253 -0.6469
  161OSM   H16T18096   5.755   6.600   3.822 -1.4495 -1.8088 -0.1358
  161OSM   C17S18097   5.744   6.644   4.029 -0.1508 -0.2699  0.3027
  161OSM   H17S18098   5.701   6.739   3.992  0.5694  0.3582  1.0571
  161OSM   H17T18099   5.845   6.681   4.056 -0.1017  1.6710 -2.3493
  161OSM   C18S18100   5.663   6.604   4.151 -0.1420 -0.1258 -0.5199
  161OSM   H18S18101   5.667   6.684   4.228 -1.6645 -0.8668  0.3660
  161OSM   H18T18102   5.697   6.508   4.196 -0.4934  0.3623  0.8244
  161OSM   H18U18103   5.558   6.576   4.131 -0.3116 -0.6732  1.0432
  161OSM    C1F18104   6.411   6.214   2.633  0.1935 -0.8754 -0.1729
  161OSM     OF18105   6.429   6.325   2.578 -0.2779 -0.0089  0.0346
  161OSM    C2F18106   6.525   6.144   2.711 -0.4952 -0.3450 -0.7569
  161OSM    H2F18107   6.623   6.159   2.662 -0.0450 -1.0082 -0.0709
  161OSM    H2G18108   6.513   6.034   2.724  0.1595 -0.1458  1.9260
  161OSM    C3F18109   6.527   6.219   2.845  0.1178  0.1085  0.2898
  161OSM    H3F18110   6.425   6.242   2.881  1.3500  1.3270  3.1174
  161OSM    H3G18111   6.575   6.319   2.835 -0.6144  0.3200 -1.1773
  161OSM    C4F18112   6.601   6.149   2.961  0.1351 -0.0226 -1.0528
  161OSM    H4F18113   6.631   6.209   3.049 -2.3582  0.2748 -0.3895
  161OSM    H4G18114   6.687   6.094   2.916 -1.4827 -0.1470 -4.1678
  161OSM    C5F18115   6.505   6.041   3.017  0.2107 -0.1328 -0.4565
  161OSM    H5F18116   6.466   5.974   2.937 -1.7697 -1.5475  1.6281
  161OSM    H5G18117   6.415   6.079   3.070 -0.0049 -1.9038  0.4783
  161OSM    C6F18118   6.568   5.953   3.123 -0.3487 -0.4952 -0.7081
  161OSM    H6F18119   6.597   6.023   3.204  3.0347 -0.2529 -2.0569
  161OSM    H6G18120   6.667   5.919   3.086  0.8754 -0.1131  2.0891
  161OSM    C7F18121   6.491   5.826   3.171  0.3992  0.0661 -0.3833
  161OSM    H7F18122   6.440   5.776   3.085 -2.5547 -0.9764  1.9144
  161OSM    H7G18123   6.424   5.854   3.255  2.0252 -1.9649  1.6476
  161OSM    C8F18124   6.588   5.719   3.234  0.7763 -0.7163 -0.1725
  161OSM    H8F18125   6.646   5.687   3.144  0.4380  0.6777 -0.9169
  161OSM    H8G18126   6.539   5.628   3.272  0.2409 -0.1461  0.5161
  161OSM    C9F18127   6.680   5.779   3.337 -0.4402  0.0059  0.0290
  161OSM    H9F18128   6.778   5.815   3.302 -0.3669 -0.7581 -0.5555
  161OSM   C10F18129   6.653   5.791   3.470  0.8173 -0.0518  0.1552
  161OSM   H10F18130   6.730   5.822   3.541  1.9950 -0.3655 -0.9642
  161OSM   C11F18131   6.518   5.748   3.529  0.7404 -0.1737 -0.2441
  161OSM   H11F18132   6.499   5.645   3.492  2.3275  0.0438 -1.7247
  161OSM   H11G18133   6.435   5.817   3.506  0.6301 -0.0954  0.3912
  161OSM   C12F18134   6.527   5.756   3.685  0.2715  0.2058  0.3179
  161OSM   H12F18135   6.433   5.726   3.735  0.8118 -0.7634  0.7677
  161OSM   H12G18136   6.548   5.859   3.722 -1.9392  0.2567  1.5072
  161OSM   C13F18137   6.632   5.661   3.742  0.0167 -0.1253 -0.4963
  161OSM   H13F18138   6.727   5.715   3.756 -0.0251 -0.4289  1.1146
  161OSM   H13G18139   6.653   5.582   3.666 -0.7584  0.2062 -1.0675
  161OSM   C14F18140   6.594   5.601   3.878  0.0915 -0.1719  0.1143
  161OSM   H14F18141   6.659   5.511   3.885  1.1484  0.3351 -2.4123
  161OSM   H14G18142   6.490   5.563   3.869  0.0223  0.3810 -1.8067
  161OSM   C15F18143   6.618   5.696   3.993  0.3233 -0.4447  0.8715
  161OSM   H15F18144   6.575   5.798   3.978  2.9950  0.5527 -0.2693
  161OSM   H15G18145   6.726   5.718   4.001  0.7555 -0.9765 -2.5986
  161OSM   C16F18146   6.558   5.630   4.123  0.6853  0.1960 -0.2017
  161OSM   H16F18147   6.595   5.526   4.141  1.4100  0.7874  1.8187
  161OSM   H16G18148   6.448   5.630   4.110  0.6742  2.0874 -0.2365
  161OSM   C17F18149   6.605   5.712   4.242 -0.1039 -0.2478 -0.0453
  161OSM   H17F18150   6.715   5.721   4.232  0.0015 -0.5702  0.7670
  161OSM   H17G18151   6.593   5.662   4.340  2.2847  0.8335  0.8093
  161OSM   C18F18152   6.529   5.846   4.243  0.3453  0.4323  0.1089
  161OSM   H18F18153   6.537   5.897   4.342 -0.0776 -1.6311  1.2443
  161OSM   H18G18154   6.421   5.827   4.222  0.1770  0.3211  1.0383
  161OSM   H18H18155   6.574   5.916   4.170 -0.4811 -0.9923 -1.7912
  162OSM      N18156   7.339   5.030   2.007  0.2901 -0.1193 -0.2914
  162OSM    C1518157   7.345   5.072   2.152 -0.2525 -0.0676  0.6289
  162OSM   H15A18158   7.249   5.088   2.200 -0.6428  0.3807 -0.2914
  162OSM   H15B18159   7.413   5.153   2.171  0.9299 -1.6772  3.5085
  162OSM   H15C18160   7.377   4.993   2.218  0.4589 -0.5634 -0.3076
  162OSM    C1418161   7.274   4.899   1.979  0.4738  0.0575 -1.1461
  162OSM   H14A18162   7.298   4.830   2.058  0.3402  1.8802  0.5324
  162OSM   H14B18163   7.311   4.846   1.892  0.1497 -0.9483 -0.6801
  162OSM   H14C18164   7.166   4.911   1.980  0.4253 -0.3734  0.7839
  162OSM    C1318165   7.265   5.129   1.930  0.4647 -0.3679 -0.3616
  162OSM   H13A18166   7.317   5.224   1.942 -2.6207  1.4309 -0.7621
  162OSM   H13B18167   7.169   5.136   1.978  2.2259 -1.9210  3.6215
  162OSM   H13C18168   7.262   5.108   1.824 -0.3942  3.5923 -1.2363
  162OSM    C1218169   7.481   5.023   1.954  0.1998  0.5899  0.2477
  162OSM   H12A18170   7.477   5.012   1.847 -0.9125  0.1341  0.3314
  162OSM   H12B18171   7.513   4.928   1.994  1.3107  0.4793 -0.8823
  162OSM    C1118172   7.590   5.135   1.986  0.1721  0.7970  0.7822
  162OSM   H11A18173   7.672   5.127   1.911 -0.5654 -3.6484  0.3179
  162OSM   H11B18174   7.624   5.112   2.089 -0.5561  1.9016  1.2740
  162OSM      P18175   7.557   5.374   2.081 -0.1480  0.2351 -0.3536
  162OSM    O1318176   7.582   5.503   2.013 -0.1904 -0.4420  0.2323
  162OSM    O1418177   7.444   5.367   2.182  0.2644 -0.3304 -0.3488
  162OSM    O1118178   7.690   5.333   2.156  0.5705  0.0031  0.1547
  162OSM    O1218179   7.528   5.267   1.971  0.0629 -0.2604  0.5587
  162OSM    C1S18180   7.766   5.418   2.250 -0.6426  0.1188 -0.0006
  162OSM    H1S18181   7.767   5.524   2.216 -1.2301 -0.1555 -0.8722
  162OSM    H1T18182   7.874   5.391   2.251 -0.3811  1.1806  1.2050
  162OSM     NF18183   7.783   5.510   2.481  0.3497  0.1240 -0.2819
  162OSM    HNF18184   7.867   5.470   2.515 -1.2468 -0.7782  2.8166
  162OSM    C2S18185   7.704   5.426   2.388 -0.3202 -0.3352  0.4154
  162OSM    H2S18186   7.605   5.476   2.389 -0.8164 -1.3182  0.8489
  162OSM    C3S18187   7.677   5.282   2.449  0.5026  0.5251  1.0693
  162OSM    H3S18188   7.774   5.234   2.473 -0.2562 -1.0929  0.9430
  162OSM     O318189   7.603   5.186   2.361 -0.0839  0.3113  0.6172
  162OSM    HO318190   7.596   5.241   2.282 -2.0046  0.2416  0.6974
  162OSM    C4S18191   7.595   5.303   2.572 -1.1866  0.0743  0.0903
  162OSM    H4S18192   7.510   5.371   2.558 -0.6949  0.6055 -0.3405
  162OSM    C5S18193   7.623   5.256   2.692  0.0463  0.1757 -0.0238
  162OSM    H5S18194   7.715   5.196   2.700  1.1428  1.8403  0.0752
  162OSM    C6S18195   7.547   5.282   2.824 -0.3583  0.1742 -0.1424
  162OSM    H6S18196   7.623   5.278   2.905 -0.4120  0.7760 -0.0575
  162OSM    H6T18197   7.472   5.203   2.847 -1.2626  1.2789  0.7752
  162OSM    C7S18198   7.484   5.414   2.844  0.7632  0.0628  0.0054
  162OSM    H7S18199   7.399   5.431   2.775  1.1985 -0.2569 -0.6137
  162OSM    H7T18200   7.556   5.495   2.821  0.2401  0.8171  0.9653
  162OSM    C8S18201   7.443   5.451   2.991  0.1942 -0.7421  0.2004
  162OSM    H8S18202   7.531   5.445   3.058 -0.3820  0.5649  1.0779
  162OSM    H8T18203   7.374   5.370   3.024 -0.9249  0.9659  2.1330
  162OSM    C9S18204   7.368   5.583   3.007  1.1908 -0.0131  0.4160
  162OSM    H9S18205   7.259   5.571   2.988  0.8593 -0.2930  2.3912
  162OSM    H9T18206   7.424   5.658   2.947  2.4440 -0.4022  1.0664
  162OSM   C10S18207   7.376   5.655   3.145 -0.0752 -0.0438 -0.4237
  162OSM   H10S18208   7.321   5.590   3.215  1.9115 -0.7706  0.5052
  162OSM   H10T18209   7.323   5.752   3.140 -0.1271  0.1371  2.7606
  162OSM   C11S18210   7.516   5.683   3.205  0.2099 -0.0458 -0.3526
  162OSM   H11S18211   7.536   5.790   3.231  0.4201 -0.3863  0.9433
  162OSM   H11T18212   7.586   5.658   3.124  1.4743  0.6486  0.5069
  162OSM   C12S18213   7.549   5.589   3.322  0.0243  0.0932 -0.1459
  162OSM   H12S18214   7.543   5.483   3.291  2.1265 -0.0031 -0.2971
  162OSM   H12T18215   7.469   5.620   3.392 -0.7472  0.4948 -1.1811
  162OSM   C13S18216   7.687   5.613   3.386 -0.2670  0.0062 -0.1826
  162OSM   H13S18217   7.738   5.708   3.357  0.4743 -0.5976 -0.8827
  162OSM   H13T18218   7.759   5.534   3.356 -1.4075 -1.7187  1.5299
  162OSM   C14S18219   7.685   5.592   3.538  0.7145  0.4851  0.0315
  162OSM   H14S18220   7.668   5.488   3.573 -0.1420  0.1833 -1.2168
  162OSM   H14T18221   7.603   5.659   3.572  0.2925  0.0658 -0.1335
  162OSM   C15S18222   7.809   5.639   3.605 -0.0136  0.7381 -0.4868
  162OSM   H15S18223   7.845   5.737   3.568  1.6963 -0.2928 -1.6301
  162OSM   H15T18224   7.892   5.566   3.596  0.9047  1.7461 -0.3193
  162OSM   C16S18225   7.791   5.644   3.761 -0.0633  0.0349 -0.0040
  162OSM   H16S18226   7.788   5.541   3.800 -2.8915  0.4925  1.1289
  162OSM   H16T18227   7.694   5.695   3.779 -0.4515 -0.6312 -0.2158
  162OSM   C17S18228   7.884   5.727   3.850 -0.2097 -0.4542  0.1630
  162OSM   H17S18229   7.985   5.684   3.869 -0.1669 -0.9073 -1.0966
  162OSM   H17T18230   7.847   5.725   3.955  1.5080 -1.5931  0.7759
  162OSM   C18S18231   7.911   5.868   3.792  0.7689  0.4071  0.3556
  162OSM   H18S18232   7.971   5.863   3.699  3.1877 -1.8473  1.9516
  162OSM   H18T18233   7.962   5.927   3.871 -0.3666  1.1504  0.5480
  162OSM   H18U18234   7.816   5.926   3.786  0.1033 -0.4942  1.8457
  162OSM    C1F18235   7.785   5.643   2.466  0.0752 -0.2238 -0.4056
  162OSM     OF18236   7.695   5.696   2.406 -0.4796  0.6511 -0.2037
  162OSM    C2F18237   7.904   5.725   2.516 -0.0251  0.6247  0.0885
  162OSM    H2F18238   7.922   5.810   2.448 -2.1159  1.6184  0.7352
  162OSM    H2G18239   7.991   5.656   2.504  0.2546  0.6263  1.8733
  162OSM    C3F18240   7.887   5.795   2.651  0.1256 -0.1026  0.0603
  162OSM    H3F18241   7.845   5.727   2.728 -0.2075  1.8038  1.6085
  162OSM    H3G18242   7.820   5.882   2.633  1.8078  1.5188  1.3626
  162OSM    C4F18243   8.020   5.848   2.707  0.2839 -0.1076 -0.1248
  162OSM    H4F18244   8.055   5.919   2.629  0.8522 -0.6323 -0.3444
  162OSM    H4G18245   8.087   5.760   2.707 -0.2547 -0.5229  0.0579
  162OSM    C5F18246   8.020   5.912   2.853 -0.4272 -0.2401  0.4752
  162OSM    H5F18247   7.956   6.003   2.858  0.2564  0.5035 -2.9627
  162OSM    H5G18248   8.121   5.953   2.874 -0.4669  0.6680 -1.0500
  162OSM    C6F18249   7.977   5.811   2.961 -0.4522 -0.3363  0.4233
  162OSM    H6F18250   8.030   5.714   2.957 -0.4386 -0.3319  0.4880
  162OSM    H6G18251   7.866   5.807   2.960 -0.3975 -1.7610 -0.5830
  162OSM    C7F18252   8.032   5.863   3.092 -0.3360 -0.1172 -0.1658
  162OSM    H7F18253   7.991   5.966   3.105 -2.2576 -0.6306 -1.9155
  162OSM    H7G18254   8.142   5.873   3.091 -0.6119  3.7976 -0.8467
  162OSM    C8F18255   7.992   5.784   3.218  0.3627 -0.3557 -0.2836
  162OSM    H8F18256   8.036   5.683   3.209 -0.1181 -0.5954 -0.0049
  162OSM    H8G18257   7.881   5.790   3.212  0.4352  4.6136  0.7183
  162OSM    C9F18258   8.033   5.839   3.357 -0.2051  0.8861  0.2129
  162OSM    H9F18259   8.133   5.807   3.389  0.3305  1.0779 -1.2350
  162OSM   C10F18260   7.971   5.943   3.426  0.3237  0.0001  0.1674
  162OSM   H10F18261   8.019   5.971   3.521  1.7822  0.0641 -0.5705
  162OSM   C11F18262   7.843   6.018   3.392  0.7663  0.4172  0.7591
  162OSM   H11F18263   7.803   5.983   3.294 -0.3677  1.5110  0.8223
  162OSM   H11G18264   7.863   6.126   3.381  2.2909  0.0827  0.0939
  162OSM   C12F18265   7.737   5.982   3.500  0.4185  0.1077 -0.2105
  162OSM   H12F18266   7.769   6.021   3.600 -0.3001  0.5940 -0.1702
  162OSM   H12G18267   7.703   5.876   3.499 -0.6129  0.4244  0.4268
  162OSM   C13F18268   7.600   6.052   3.469  0.5746  0.3912 -0.1370
  162OSM   H13F18269   7.578   6.026   3.363  0.3921 -2.3485  0.5146
  162OSM   H13G18270   7.620   6.161   3.476 -1.5962  0.7877  0.2141
  162OSM   C14F18271   7.480   6.008   3.545  0.2330 -0.5665  0.6036
  162OSM   H14F18272   7.479   5.897   3.545 -1.5051 -0.6102 -2.6912
  162OSM   H14G18273   7.384   6.054   3.513 -0.7757 -0.3434  3.7628
  162OSM   C15F18274   7.501   6.039   3.698 -0.1970  0.0738 -0.6771
  162OSM   H15F18275   7.505   6.150   3.705 -1.0989  0.2416 -2.3528
  162OSM   H15G18276   7.600   6.007   3.736 -0.9366 -1.1113  0.2913
  162OSM   C16F18277   7.400   5.979   3.794 -0.2046  0.0712  0.4095
  162OSM   H16F18278   7.398   5.868   3.794  0.2970  0.0379 -2.2217
  162OSM   H16G18279   7.299   6.016   3.766  0.2137  2.0417  1.3874
  162OSM   C17F18280   7.426   6.023   3.933  0.0519 -0.3098  0.2051
  162OSM   H17F18281   7.332   6.001   3.989 -1.4270  2.3209 -1.1135
  162OSM   H17G18282   7.430   6.134   3.936 -0.9957 -0.3042  2.0237
  162OSM   C18F18283   7.551   5.969   3.994  0.0999 -0.5496  0.1441
  162OSM   H18F18284   7.587   5.870   3.958  0.3184 -0.6726  0.6980
  162OSM   H18G18285   7.534   5.971   4.104 -1.6356 -1.4986 -0.0848
  162OSM   H18H18286   7.643   6.030   3.981 -0.6284  0.1936 -1.6842
  163OSM      N18287   6.156   7.108   2.103  0.3662 -0.6190 -0.1854
  163OSM    C1518288   6.056   7.037   2.016 -0.3258  0.4230  0.4599
  163OSM   H15A18289   6.071   6.930   2.028 -0.8161  0.3864  0.7417
  163OSM   H15B18290   6.071   7.043   1.909  0.3543 -1.0038  0.4529
  163OSM   H15C18291   5.954   7.068   2.027 -0.4610 -0.6761  2.7340
  163OSM    C1418292   6.300   7.075   2.071  0.0596  0.1255  0.0223
  163OSM   H14A18293   6.365   7.127   2.141  0.9339  1.3004 -1.6364
  163OSM   H14B18294   6.334   7.096   1.971  0.1334  1.9907  0.4271
  163OSM   H14C18295   6.304   6.967   2.074  1.6106  0.1839  0.4989
  163OSM    C1318296   6.144   7.258   2.089  0.5454 -0.0519  0.1811
  163OSM   H13A18297   6.157   7.282   1.984 -0.5196  1.2182  0.3292
  163OSM   H13B18298   6.224   7.306   2.144  2.0480  0.4085 -2.3214
  163OSM   H13C18299   6.054   7.298   2.132 -1.5696 -1.6465 -2.5817
  163OSM    C1218300   6.139   7.074   2.249  0.8418 -0.2270  0.0795
  163OSM   H12A18301   6.053   7.127   2.287  1.8018  2.3385 -1.2467
  163OSM   H12B18302   6.225   7.122   2.293 -0.1489  2.0576 -0.4004
  163OSM    C1118303   6.140   6.929   2.298  0.1332  0.1684  0.1156
  163OSM   H11A18304   6.058   6.869   2.252  0.0538  1.3452 -1.3208
  163OSM   H11B18305   6.118   6.932   2.406 -0.0345 -0.0487  0.0884
  163OSM      P18306   6.265   6.739   2.166  0.1983 -0.3805  0.1996
  163OSM    O1318307   6.162   6.751   2.056  0.1664  0.1509 -0.2243
  163OSM    O1418308   6.411   6.750   2.122 -0.1710  0.3609  0.4594
  163OSM    O1118309   6.250   6.606   2.243  0.0824  0.5066  0.0669
  163OSM    O1218310   6.259   6.863   2.272 -0.1943 -0.5873 -0.1063
  163OSM    C1S18311   6.316   6.581   2.369 -0.0994  0.0817 -1.3248
  163OSM    H1S18312   6.426   6.600   2.365 -0.4889  3.0121  0.8175
  163OSM    H1T18313   6.313   6.472   2.389 -1.4963  0.0443 -1.7171
  163OSM     NF18314   6.343   6.628   2.605 -0.1202  0.0329 -0.8975
  163OSM    HNF18315   6.323   6.536   2.638  0.8829  0.2984  0.4989
  163OSM    C2S18316   6.258   6.657   2.494 -0.1006  0.0866  0.4084
  163OSM    H2S18317   6.251   6.767   2.483  1.4486  0.0007 -2.0305
  163OSM    C3S18318   6.105   6.612   2.509 -0.3105  0.2449  0.9844
  163OSM    H3S18319   6.125   6.506   2.537  1.2969  0.5815  1.1932
  163OSM     O318320   6.028   6.619   2.395  0.1059  0.5131  0.4815
  163OSM    HO318321   6.088   6.627   2.320 -3.6622  0.9759 -2.6178
  163OSM    C4S18322   6.034   6.672   2.613  0.0109  0.2361 -0.7028
  163OSM    H4S18323   5.995   6.772   2.586  1.0498  0.6353 -0.7517
  163OSM    C5S18324   5.990   6.626   2.729  0.3361 -0.9226  0.0844
  163OSM    H5S18325   6.017   6.527   2.770 -0.0285 -0.0503  2.5272
  163OSM    C6S18326   5.913   6.717   2.820  0.2176  0.1339  0.3218
  163OSM    H6S18327   5.807   6.697   2.793  0.3362  1.6109 -1.3144
  163OSM    H6T18328   5.923   6.824   2.793 -0.5238  0.1425  0.0703
  163OSM    C7S18329   5.947   6.690   2.966 -0.3979  0.3594 -0.5933
  163OSM    H7S18330   6.056   6.714   2.973 -0.5657  0.8115  0.5941
  163OSM    H7T18331   5.926   6.584   2.989 -1.0514  0.5064 -0.5165
  163OSM    C8S18332   5.869   6.777   3.068 -0.4114  0.0967  0.4897
  163OSM    H8S18333   5.762   6.751   3.055 -0.1709  0.0074 -1.4635
  163OSM    H8T18334   5.897   6.884   3.050  2.4898 -0.7867 -0.5739
  163OSM    C9S18335   5.893   6.730   3.208  0.3271  0.5155  0.0488
  163OSM    H9S18336   6.003   6.729   3.223  0.3761  2.4174 -0.0678
  163OSM    H9T18337   5.846   6.630   3.223  0.6964  0.4650  0.9248
  163OSM   C10S18338   5.834   6.827   3.310 -0.1726 -0.4045 -0.0647
  163OSM   H10S18339   5.723   6.828   3.307 -0.2629 -1.3681  1.8413
  163OSM   H10T18340   5.871   6.931   3.302 -0.9492 -0.1811 -0.7667
  163OSM   C11S18341   5.843   6.784   3.457 -0.4951  0.3158  0.1930
  163OSM   H11S18342   5.951   6.780   3.483  0.0031  0.1342 -1.8558
  163OSM   H11T18343   5.816   6.676   3.457 -1.1659  0.4854  0.6764
  163OSM   C12S18344   5.784   6.867   3.565 -0.3202  0.6491 -0.1178
  163OSM   H12S18345   5.800   6.811   3.660  1.0842 -0.9220 -1.2576
  163OSM   H12T18346   5.673   6.861   3.565 -0.4154  2.3247 -0.4719
  163OSM   C13S18347   5.834   7.010   3.577 -0.2352  0.0353  0.2488
  163OSM   H13S18348   5.748   7.080   3.589  0.1929  0.3426  1.6858
  163OSM   H13T18349   5.878   7.044   3.481  2.4036  0.0256  1.4005
  163OSM   C14S18350   5.943   7.037   3.683  0.6263 -0.2426 -0.1123
  163OSM   H14S18351   5.979   7.140   3.662  1.6345 -0.4496  0.5515
  163OSM   H14T18352   6.030   6.969   3.697 -0.6818 -1.7383  0.9187
  163OSM   C15S18353   5.885   7.068   3.823 -0.0174  0.0135  0.0886
  163OSM   H15S18354   5.831   6.975   3.850 -0.2671 -0.0684 -0.7041
  163OSM   H15T18355   5.810   7.150   3.825 -0.3285 -0.2954  1.5904
  163OSM   C16S18356   5.997   7.096   3.933 -1.1601  0.5790 -0.3686
  163OSM   H16S18357   5.992   7.203   3.962  0.6857  0.4954  0.3204
  163OSM   H16T18358   6.103   7.086   3.900 -0.8894 -2.0030  1.1113
  163OSM   C17S18359   5.987   7.008   4.065 -0.0404  0.5229 -0.9309
  163OSM   H17S18360   5.985   6.898   4.049 -2.7539  0.5671 -1.0618
  163OSM   H17T18361   5.893   7.038   4.116 -0.0188 -0.4046 -0.3311
  163OSM   C18S18362   6.098   7.031   4.173 -0.2295 -0.6695 -0.0155
  163OSM   H18S18363   6.075   6.982   4.269 -0.5731  0.5561  0.5329
  163OSM   H18T18364   6.099   7.141   4.191  1.2395 -0.1468 -2.8715
  163OSM   H18U18365   6.196   6.999   4.130 -0.0741  0.8928 -0.8856
  163OSM    C1F18366   6.464   6.689   2.628  0.7444  1.0984  0.2107
  163OSM     OF18367   6.500   6.770   2.551  0.4799 -0.4834 -0.3430
  163OSM    C2F18368   6.546   6.638   2.735 -0.8644  0.4351  0.2666
  163OSM    H2F18369   6.605   6.720   2.783 -2.5622  1.6508  0.3340
  163OSM    H2G18370   6.617   6.561   2.700 -1.2415  0.5893 -0.8408
  163OSM    C3F18371   6.463   6.581   2.858 -0.1860 -0.2733  0.4016
  163OSM    H3F18372   6.536   6.544   2.934 -1.1433 -0.6329  1.1504
  163OSM    H3G18373   6.403   6.490   2.838  1.6600 -1.8074  1.5738
  163OSM    C4F18374   6.367   6.681   2.924 -0.1241 -0.4298 -0.2007
  163OSM    H4F18375   6.270   6.698   2.872  0.1545  2.1014  0.0401
  163OSM    H4G18376   6.416   6.780   2.917 -0.7140 -0.2408 -2.2263
  163OSM    C5F18377   6.336   6.654   3.069  0.7587  0.0636  0.3620
  163OSM    H5F18378   6.261   6.728   3.103 -1.7171 -1.6537 -1.1733
  163OSM    H5G18379   6.424   6.668   3.135 -0.1787 -0.3921  1.7099
  163OSM    C6F18380   6.277   6.514   3.096  0.3377 -0.3734 -0.4460
  163OSM    H6F18381   6.347   6.431   3.071 -0.4046 -1.9532  2.5042
  163OSM    H6G18382   6.202   6.505   3.014 -1.5537  0.6271  1.1531
  163OSM    C7F18383   6.197   6.494   3.227 -0.1411  0.3454  0.5041
  163OSM    H7F18384   6.140   6.399   3.220  0.4330 -0.0416  0.9989
  163OSM    H7G18385   6.120   6.572   3.217 -0.8933 -0.7401 -3.1237
  163OSM    C8F18386   6.285   6.490   3.354 -0.2683  0.3539 -0.2556
  163OSM    H8F18387   6.215   6.493   3.440 -0.2013  2.6741 -0.2548
  163OSM    H8G18388   6.337   6.588   3.347  2.0921 -0.6959  1.5307
  163OSM    C9F18389   6.384   6.370   3.364  0.4404 -1.1253 -0.0802
  163OSM    H9F18390   6.423   6.340   3.266  1.9423  1.0551 -0.1676
  163OSM   C10F18391   6.403   6.291   3.467  0.7540  0.1593  1.0421
  163OSM   H10F18392   6.465   6.201   3.453 -1.6734 -1.2204 -1.0922
  163OSM   C11F18393   6.343   6.302   3.601 -0.5128  0.4514 -0.0819
  163OSM   H11F18394   6.248   6.246   3.612  1.6040 -3.2630  0.0395
  163OSM   H11G18395   6.327   6.408   3.630 -1.1213  0.6682 -1.2058
  163OSM   C12F18396   6.447   6.241   3.701  0.2338  0.1091 -0.6030
  163OSM   H12F18397   6.548   6.286   3.692  0.7337 -1.0112 -0.6507
  163OSM   H12G18398   6.468   6.135   3.679  0.2649  0.0633 -0.3570
  163OSM   C13F18399   6.405   6.254   3.848  0.0340 -0.3573  0.7636
  163OSM   H13F18400   6.296   6.270   3.856  0.4157  2.4192  0.6765
  163OSM   H13G18401   6.454   6.349   3.876 -0.5326  0.4939 -1.0523
  163OSM   C14F18402   6.445   6.139   3.937  0.6693 -0.7337 -0.0537
  163OSM   H14F18403   6.446   6.163   4.045  3.2622  2.5520 -0.7448
  163OSM   H14G18404   6.550   6.110   3.915  0.6961 -0.6471 -0.0383
  163OSM   C15F18405   6.359   6.016   3.930  0.4184  0.5853 -0.3322
  163OSM   H15F18406   6.408   5.928   3.978  1.4877 -0.2741 -2.9109
  163OSM   H15G18407   6.340   5.987   3.825  2.0891 -0.0950 -0.4544
  163OSM   C16F18408   6.222   6.026   3.996  0.6801  0.1983 -0.5597
  163OSM   H16F18409   6.167   6.109   3.946 -1.2498 -1.0819 -0.5934
  163OSM   H16G18410   6.241   6.044   4.104  1.3816  0.4673 -0.7264
  163OSM   C17F18411   6.136   5.899   3.970 -0.6044 -0.3247  0.3636
  163OSM   H17F18412   6.135   5.896   3.859 -0.9333 -1.6007  0.4009
  163OSM   H17G18413   6.030   5.922   3.992  0.3209  1.2114  3.5357
  163OSM   C18F18414   6.188   5.767   4.028 -0.1287 -0.0633  0.4614
  163OSM   H18F18415   6.107   5.691   4.030  0.7340 -1.0138 -0.4290
  163OSM   H18G18416   6.213   5.788   4.135 -0.7357  1.7432  0.2713
  163OSM   H18H18417   6.280   5.740   3.972  0.0740  0.4200  0.5590
  164OSM      N18418   0.705   0.386   2.433  1.0407  0.0995 -0.1263
  164OSM    C1518419   0.567   0.387   2.356  0.0341  0.3733  0.0676
  164OSM   H15A18420   0.568   0.359   2.252 -0.3780 -0.1797  0.2095
  164OSM   H15B18421   0.525   0.487   2.360  0.4672  0.5725 -0.2839
  164OSM   H15C18422   0.503   0.317   2.408 -1.5655  1.5141 -0.3188
  164OSM    C1418423   0.798   0.490   2.374  0.0294 -0.5662 -0.3953
  164OSM   H14A18424   0.829   0.464   2.274 -1.5546 -2.5177 -0.4123
  164OSM   H14B18425   0.889   0.495   2.432  0.2133  0.1974 -0.7464
  164OSM   H14C18426   0.749   0.586   2.369 -1.0626 -1.1361 -0.7242
  164OSM    C1318427   0.679   0.432   2.572 -0.2334 -0.0964 -0.6082
  164OSM   H13A18428   0.653   0.537   2.575  0.9480  0.1609  1.2726
  164OSM   H13B18429   0.773   0.411   2.620 -0.5714  1.1805  0.6564
  164OSM   H13C18430   0.605   0.383   2.634 -0.6592  0.8465 -0.3554
  164OSM    C1218431   0.761   0.244   2.442 -0.1190 -0.7252 -0.2049
  164OSM   H12A18432   0.688   0.192   2.501 -0.1268 -0.0841  0.3582
  164OSM   H12B18433   0.855   0.250   2.496  0.1775  0.7664 -0.8319
  164OSM    C1118434   0.788   0.161   2.309  0.5662 -1.0072 -0.3926
  164OSM   H11A18435   0.688   0.151   2.263 -0.1398 -0.3217  0.9537
  164OSM   H11B18436   0.827   0.062   2.342 -0.3201 -1.1817  0.1326
  164OSM      P18437   1.024   0.181   2.177 -0.1814  0.2108 -0.5700
  164OSM    O1318438   1.028   0.037   2.139 -0.5770  0.1067 -0.4487
  164OSM    O1418439   1.070   0.283   2.086 -0.1571  0.3385  1.0931
  164OSM    O1118440   1.091   0.188   2.316  0.4533 -0.3906 -0.7690
  164OSM    O1218441   0.877   0.223   2.213 -0.2467 -0.5464  0.1059
  164OSM    C1S18442   1.109   0.313   2.390 -0.3924  0.1427 -0.1311
  164OSM    H1S18443   1.010   0.352   2.422  0.2671  3.7665 -2.2967
  164OSM    H1T18444   1.165   0.388   2.330  0.9224 -0.9309 -0.2771
  164OSM     NF18445   1.144   0.353   2.623  0.1935  0.9479  0.3292
  164OSM    HNF18446   1.178   0.447   2.622 -0.1105  1.0921  2.5939
  164OSM    C2S18447   1.195   0.270   2.513  0.3524  0.3234  0.0176
  164OSM    H2S18448   1.169   0.165   2.537  0.7040  0.3138  0.3487
  164OSM    C3S18449   1.347   0.280   2.482  0.2155 -0.6479 -0.5061
  164OSM    H3S18450   1.373   0.385   2.459 -0.7509  0.0069  1.2297
  164OSM     O318451   1.389   0.204   2.366 -0.8111  0.3291  0.5159
  164OSM    HO318452   1.312   0.151   2.342 -1.1278  0.3223  1.5039
  164OSM    C4S18453   1.423   0.246   2.609 -0.1290 -0.0888  0.2196
  164OSM    H4S18454   1.460   0.338   2.656  1.3016 -1.1752  1.2595
  164OSM    C5S18455   1.442   0.127   2.670  0.0082 -0.3781  0.9694
  164OSM    H5S18456   1.393   0.036   2.633  0.9111 -0.1601 -0.7901
  164OSM    C6S18457   1.531   0.113   2.789 -0.2755 -0.3175 -0.4001
  164OSM    H6S18458   1.622   0.170   2.762 -1.7272  1.6592 -1.1816
  164OSM    H6T18459   1.566   0.010   2.812 -0.5744 -0.0538  1.2614
  164OSM    C7S18460   1.477   0.185   2.924 -0.5129 -0.6469 -0.1868
  164OSM    H7S18461   1.447   0.291   2.910 -0.6490 -0.7250 -0.4766
  164OSM    H7T18462   1.560   0.181   2.998 -1.3551 -1.6364  0.7279
  164OSM    C8S18463   1.360   0.104   2.982  0.5357 -0.1638  0.5424
  164OSM    H8S18464   1.400   0.003   3.005  1.4174  0.0473 -0.0527
  164OSM    H8T18465   1.289   0.094   2.898  1.7585 -0.7058 -0.4490
  164OSM    C9S18466   1.296   0.153   3.110  0.2599  0.5653  0.3050
  164OSM    H9S18467   1.193   0.113   3.107  0.1251  0.9675 -0.7458
  164OSM    H9T18468   1.279   0.263   3.108 -2.7403  0.1782  1.9497
  164OSM   C10S18469   1.377   0.108   3.230 -0.6316  0.1393 -0.2878
  164OSM   H10S18470   1.478   0.152   3.216 -0.0252 -1.1456  0.0066
  164OSM   H10T18471   1.386  -0.002   3.223 -0.6238 -0.0128  1.6865
  164OSM   C11S18472   1.303   0.141   3.362  0.1147  0.6022 -0.4513
  164OSM   H11S18473   1.215   0.073   3.364 -0.7586  1.6622 -1.6063
  164OSM   H11T18474   1.287   0.250   3.352 -0.1539  0.4697 -1.6770
  164OSM   C12S18475   1.377   0.107   3.491  0.0662 -0.8059  0.0653
  164OSM   H12S18476   1.474   0.159   3.502  1.0340 -2.8989  1.7988
  164OSM   H12T18477   1.418   0.004   3.492  5.0239  1.0596  0.8796
  164OSM   C13S18478   1.289   0.131   3.614 -0.0532  0.5929  0.1140
  164OSM   H13S18479   1.218   0.047   3.623  0.0983  0.4691  0.1554
  164OSM   H13T18480   1.216   0.215   3.607 -0.9772 -0.1947  0.2672
  164OSM   C14S18481   1.360   0.152   3.744 -0.0873 -0.4416 -0.2794
  164OSM   H14S18482   1.433   0.236   3.735  0.0277 -0.6885 -1.8943
  164OSM   H14T18483   1.420   0.059   3.754 -0.9719 -0.9711  0.1331
  164OSM   C15S18484   1.263   0.159   3.865  0.5515  0.2610  0.4956
  164OSM   H15S18485   1.324   0.159   3.957 -1.2894 -3.4896  1.8173
  164OSM   H15T18486   1.209   0.061   3.867 -0.1409  0.6631  2.1727
  164OSM   C16S18487   1.181   0.288   3.869 -0.1645 -0.0392 -0.3979
  164OSM   H16S18488   1.139   0.285   3.972 -0.5954  2.1852 -0.4915
  164OSM   H16T18489   1.108   0.302   3.787 -0.0581  0.8513 -0.3373
  164OSM   C17S18490   1.268   0.417   3.885 -1.2997  0.3124  0.3721
  164OSM   H17S18491   1.316   0.443   3.788 -0.6256  0.1155  0.6493
  164OSM   H17T18492   1.349   0.401   3.960 -2.7180 -2.0801  1.4542
  164OSM   C18S18493   1.199   0.546   3.924 -0.5997  0.2967 -0.4719
  164OSM   H18S18494   1.267   0.633   3.911  1.2128 -0.9259  0.5251
  164OSM   H18T18495   1.174   0.542   4.033  1.2143 -1.6058 -0.0884
  164OSM   H18U18496   1.106   0.558   3.865 -1.4532  0.2767  0.8488
  164OSM    C1F18497   1.033   0.330   2.684 -0.1054  0.2287  0.3653
  164OSM     OF18498   0.962   0.240   2.651  0.0399  0.2669 -0.0101
  164OSM    C2F18499   0.987   0.423   2.789 -0.4740 -0.0875  0.6312
  164OSM    H2F18500   0.879   0.405   2.810 -0.7432  0.8604  0.1264
  164OSM    H2G18501   0.985   0.529   2.755 -2.8090  0.0628  1.1455
  164OSM    C3F18502   1.060   0.403   2.923 -0.4756  0.9455 -0.6240
  164OSM    H3F18503   1.169   0.418   2.914  0.0074 -0.6719  1.9133
  164OSM    H3G18504   1.038   0.298   2.950 -0.5387  1.1926  0.3095
  164OSM    C4F18505   0.997   0.475   3.046 -0.6411  0.3043 -0.1551
  164OSM    H4F18506   0.892   0.443   3.063 -0.8865  1.0160 -0.3350
  164OSM    H4G18507   0.986   0.578   3.007  0.1636  0.1662 -0.7691
  164OSM    C5F18508   1.083   0.462   3.178  0.8923 -0.2882  0.0227
  164OSM    H5F18509   1.191   0.477   3.157  0.4202  2.2130 -0.8875
  164OSM    H5G18510   1.080   0.360   3.220 -1.9981 -0.2145  0.0853
  164OSM    C6F18511   1.036   0.564   3.291  0.0932 -0.0392 -0.1704
  164OSM    H6F18512   0.927   0.547   3.299  0.0659  0.2643  0.1109
  164OSM    H6G18513   1.043   0.665   3.246 -0.9093 -0.1091 -0.4841
  164OSM    C7F18514   1.103   0.551   3.422  0.5409  0.3690  0.0314
  164OSM    H7F18515   1.205   0.593   3.415  0.4571  0.5412 -0.1762
  164OSM    H7G18516   1.121   0.443   3.437 -0.7766  0.3443  1.5536
  164OSM    C8F18517   1.022   0.617   3.537  0.6511  0.1423  0.2341
  164OSM    H8F18518   1.008   0.725   3.512  1.8556  0.4821  0.9788
  164OSM    H8G18519   1.088   0.624   3.626  1.9817 -0.4991 -0.6758
  164OSM    C9F18520   0.898   0.544   3.572 -0.3756  0.1408 -0.0152
  164OSM    H9F18521   0.876   0.448   3.523 -2.4715  0.3960  0.4106
  164OSM   C10F18522   0.790   0.592   3.631  0.0471 -0.1663 -0.2176
  164OSM   H10F18523   0.717   0.514   3.655 -0.1901 -0.1688 -0.9204
  164OSM   C11F18524   0.768   0.732   3.688  1.0235  0.2694 -0.1684
  164OSM   H11F18525   0.707   0.790   3.615 -0.8065 -0.6572  0.6139
  164OSM   H11G18526   0.864   0.788   3.698  0.9780  0.4883 -0.8713
  164OSM   C12F18527   0.683   0.737   3.812 -0.5417  0.7124  0.1860
  164OSM   H12F18528   0.593   0.673   3.809  0.7449 -1.1075 -0.9401
  164OSM   H12G18529   0.632   0.835   3.821 -2.1469 -0.2336  1.7253
  164OSM   C13F18530   0.771   0.720   3.938  0.7996 -0.0538 -0.4829
  164OSM   H13F18531   0.858   0.788   3.928  0.4349  0.0284 -3.5294
  164OSM   H13G18532   0.812   0.617   3.938 -1.5930 -1.0953  2.3964
  164OSM   C14F18533   0.701   0.762   4.071  0.7931 -0.2844  0.7595
  164OSM   H14F18534   0.609   0.705   4.097  0.7348 -0.7062 -0.3432
  164OSM   H14G18535   0.674   0.869   4.060  2.3781  0.0118 -0.3090
  164OSM   C15F18536   0.814   0.758   4.186  0.1639 -0.2190  0.5726
  164OSM   H15F18537   0.907   0.816   4.163 -0.8259  1.3586  0.4291
  164OSM   H15G18538   0.840   0.652   4.205 -0.1582 -0.7067 -1.6013
  164OSM   C16F18539   0.778   0.818   4.318 -0.3139 -0.3164 -0.0820
  164OSM   H16F18540   0.681   0.771   4.343 -0.7125 -1.2609 -3.1333
  164OSM   H16G18541   0.762   0.927   4.309  1.8566 -0.0761 -1.7029
  164OSM   C17F18542   0.880   0.799   4.432 -0.4224  0.2814  0.1011
  164OSM   H17F18543   0.904   0.692   4.454  2.0831  0.9915  0.9867
  164OSM   H17G18544   0.836   0.835   4.526 -0.2919 -0.3180  0.3940
  164OSM   C18F18545   1.007   0.887   4.422  0.0335  0.0017  0.7285
  164OSM   H18F18546   1.070   0.841   4.501  1.4926 -0.0792 -0.4529
  164OSM   H18G18547   0.985   0.994   4.445 -1.7434 -0.1936  0.0433
  164OSM   H18H18548   1.051   0.887   4.320 -0.9113 -2.8878  0.2803
  165SAPS     N18549   5.388   5.010   6.405  0.5165 -0.2093 -0.5112
  165SAPS   HN118550   5.418   5.033   6.502  0.6447 -0.8172 -0.4031
  165SAPS   HN218551   5.446   4.934   6.364 -2.4831 -2.2765 -1.1123
  165SAPS   HN318552   5.397   5.082   6.331 -1.3990  0.6084  0.0297
  165SAPS   C1218553   5.245   4.967   6.417 -0.5365  0.2133  0.0585
  165SAPS  H12A18554   5.241   4.875   6.473  0.5992 -0.6989 -1.3142
  165SAPS   C1318555   5.155   5.069   6.492 -0.6827 -0.5568  0.0988
  165SAPS  O13A18556   5.204   5.160   6.566 -0.1403 -0.2989  0.2346
  165SAPS  O13B18557   5.032   5.058   6.472 -0.2376  0.0391 -0.6302
  165SAPS   C1118558   5.194   4.936   6.281  0.2897  0.2309 -0.3891
  165SAPS  H11A18559   5.217   5.017   6.208 -0.2911  1.8142  1.1549
  165SAPS  H11B18560   5.083   4.929   6.278  0.1737  1.8817 -0.4594
  165SAPS     P18561   5.180   4.693   6.175  0.3397  0.0674 -0.0301
  165SAPS   O1318562   5.263   4.574   6.157  0.5711  0.3272 -0.0947
  165SAPS   O1418563   5.056   4.684   6.258 -0.1004  0.6784 -0.7527
  165SAPS   O1218564   5.254   4.812   6.233 -0.6315  0.4190 -0.0623
  165SAPS   O1118565   5.130   4.749   6.040 -0.3227 -1.0432  0.4460
  165SAPS    C118566   5.214   4.755   5.922 -0.6038  0.3388  0.4756
  165SAPS    HA18567   5.322   4.763   5.947 -0.5851  1.1405  0.1547
  165SAPS    HB18568   5.198   4.666   5.858  2.6691  0.6344 -0.8541
  165SAPS    C218569   5.177   4.867   5.826 -0.1589 -0.1263  0.0843
  165SAPS    HS18570   5.088   4.828   5.772  0.4859  0.1293 -1.1740
  165SAPS   O2118571   5.292   4.886   5.740  0.8657 -0.0115 -0.2091
  165SAPS   C2118572   5.323   4.792   5.654 -0.0569  0.9342  0.1335
  165SAPS   O2218573   5.262   4.687   5.644 -0.0673  0.0666 -0.4570
  165SAPS   C2218574   5.433   4.840   5.559  0.0022  0.2354  1.1166
  165SAPS   H2R18575   5.415   4.946   5.533 -1.8066 -0.7701 -1.9214
  165SAPS   H2S18576   5.529   4.833   5.615  0.2050 -0.9707  0.6393
  165SAPS    C318577   5.142   5.000   5.893 -0.4373  0.0939  0.4356
  165SAPS    HX18578   5.237   5.033   5.940 -0.4235 -0.2715  0.6670
  165SAPS    HY18579   5.066   4.984   5.972  0.4711 -1.9237  0.9466
  165SAPS   O3118580   5.090   5.100   5.803  0.4389  0.0339 -0.1520
  165SAPS   C3118581   5.175   5.184   5.731  0.1108  0.2031  0.6572
  165SAPS   O3218582   5.290   5.198   5.752 -0.7517  0.8252 -0.1936
  165SAPS   C3218583   5.092   5.261   5.628 -0.4093 -0.5339 -0.0124
  165SAPS   H2X18584   5.130   5.366   5.629  2.3557 -1.4039 -2.7877
  165SAPS   H2Y18585   4.986   5.257   5.659  0.0220 -0.3647  1.5280
  165SAPS   C2318586   5.445   4.749   5.436 -0.3735  0.0394 -0.3310
  165SAPS   H3R18587   5.343   4.736   5.395 -0.2347 -4.1567  0.4240
  165SAPS   H3S18588   5.485   4.651   5.469 -1.9397 -0.5782 -0.2313
  165SAPS   C2418589   5.537   4.801   5.323  0.0007  0.8989 -0.6978
  165SAPS   H4R18590   5.542   4.728   5.240  0.8967  1.5542 -1.2395
  165SAPS   H4S18591   5.638   4.789   5.370 -0.9125  0.9337  1.3478
  165SAPS   C2518592   5.532   4.942   5.282  0.5854 -0.6007  0.1256
  165SAPS   H5R18593   5.522   5.018   5.361 -0.6001 -0.5103 -0.0925
  165SAPS   C2618594   5.572   4.983   5.162  0.1887  0.1274 -0.0133
  165SAPS   H6R18595   5.572   5.090   5.140 -0.9146  0.0622 -0.3605
  165SAPS   C2718596   5.627   4.905   5.046  0.4644  1.0939  0.2062
  165SAPS   H7R18597   5.659   4.807   5.087  0.8752  1.0661 -0.1816
  165SAPS   H7S18598   5.722   4.953   5.014  1.3935 -0.5069  0.5169
  165SAPS   C2818599   5.529   4.889   4.939  0.1832 -0.4588  0.2565
  165SAPS   H8R18600   5.426   4.856   4.962  0.2147 -1.2787 -0.7441
  165SAPS   C2918601   5.562   4.895   4.810 -0.1301  0.4125  0.5157
  165SAPS   H9R18602   5.471   4.895   4.749 -0.2015 -0.0688  0.6161
  165SAPS  C21018603   5.703   4.907   4.759 -0.4242 -1.1681  0.3369
  165SAPS  H10R18604   5.783   4.889   4.834 -1.7377 -1.2965  1.7396
  165SAPS  H10S18605   5.720   5.015   4.740  0.0126 -0.9574  1.8448
  165SAPS  C21118606   5.734   4.828   4.636  0.8130 -0.0244 -0.2776
  165SAPS  H11R18607   5.723   4.719   4.637 -0.1972  0.0568 -1.5057
  165SAPS  C21218608   5.767   4.876   4.514  0.3208 -0.3789 -0.0134
  165SAPS  H12R18609   5.776   4.798   4.437  0.5363  2.0161 -2.4636
  165SAPS  C21318610   5.786   5.017   4.470  0.5385 -0.1094 -0.6504
  165SAPS  H13R18611   5.738   5.090   4.538  1.0096  0.6772 -1.1681
  165SAPS  H13S18612   5.745   5.026   4.367  1.0309 -0.6769 -0.8983
  165SAPS  C21418613   5.934   5.043   4.477 -0.1526  0.0565  0.2977
  165SAPS  H14R18614   6.003   4.995   4.547 -0.4867  1.0773  1.3491
  165SAPS  C21518615   6.007   5.122   4.390 -0.2057  0.1889  0.1431
  165SAPS  H15R18616   6.117   5.124   4.398 -0.3431  0.0993  2.5778
  165SAPS  C21618617   5.951   5.201   4.275 -0.3951 -0.1194 -0.2615
  165SAPS  H16R18618   5.910   5.300   4.303 -0.2853  0.7172 -2.9216
  165SAPS  H16S18619   5.866   5.145   4.229  1.6150 -2.6614 -1.0535
  165SAPS  C21718620   6.067   5.241   4.174  0.2885  0.1947 -0.1241
  165SAPS  H17R18621   6.133   5.152   4.159 -0.0863 -0.2076  0.5429
  165SAPS  H17S18622   6.140   5.316   4.210 -0.3933  0.2373  1.2146
  165SAPS  C21818623   6.012   5.278   4.039 -0.6012  0.2747  0.5587
  165SAPS  H18R18624   5.979   5.383   4.027  1.4864  1.0549  1.2624
  165SAPS  H18S18625   5.928   5.209   4.015  0.4497 -2.2995  3.7719
  165SAPS  C21918626   6.116   5.256   3.922  0.7138 -0.5552 -0.4953
  165SAPS  H19R18627   6.060   5.252   3.827 -1.0521 -3.8603  0.5904
  165SAPS  H19S18628   6.162   5.155   3.916  0.4679 -0.6365 -0.9758
  165SAPS  C22018629   6.230   5.358   3.922  0.0440  0.2830 -0.1045
  165SAPS  H20R18630   6.294   5.341   3.833 -0.0576  1.6310 -0.4411
  165SAPS  H20S18631   6.296   5.346   4.011 -1.0946  0.1563  0.7290
  165SAPS  H20T18632   6.189   5.461   3.921 -1.2451 -0.2167  0.8844
  165SAPS   C3318633   5.109   5.201   5.487 -0.3295 -0.0853 -0.5328
  165SAPS   H3X18634   5.215   5.182   5.459 -0.4668 -0.1367 -1.0200
  165SAPS   H3Y18635   5.058   5.267   5.414  0.1662 -0.9817 -1.7224
  165SAPS   C3418636   5.036   5.065   5.486  0.3694  0.3784  0.3463
  165SAPS   H4X18637   4.933   5.077   5.528  1.1375 -2.4086  3.2109
  165SAPS   H4Y18638   5.088   4.994   5.552 -2.2189 -0.9224  1.0547
  165SAPS   C3518639   5.013   5.018   5.341 -0.5495  0.5314  0.3270
  165SAPS   H5X18640   4.949   5.079   5.273 -1.4313  0.9674  1.5287
  165SAPS   H5Y18641   4.960   4.921   5.344 -0.5672  0.3964 -2.6877
  165SAPS   C3618642   5.148   4.997   5.266 -0.6771 -0.1470  0.0397
  165SAPS   H6X18643   5.227   4.968   5.338  0.3191 -0.3353 -1.1124
  165SAPS   H6Y18644   5.179   5.095   5.224 -1.7695 -0.3068 -1.1953
  165SAPS   C3718645   5.153   4.891   5.151 -0.3295 -0.0374 -0.1307
  165SAPS   H7X18646   5.169   4.797   5.207 -1.6941  0.6232  1.4201
  165SAPS   H7Y18647   5.244   4.903   5.088 -0.0767  2.0552  0.5727
  165SAPS   C3818648   5.025   4.886   5.064 -0.5280  0.2122  0.2286
  165SAPS   H8X18649   5.007   4.988   5.022 -0.7749  0.4258  0.8445
  165SAPS   H8Y18650   4.946   4.850   5.133  1.5109  1.5775  3.3636
  165SAPS   C3918651   5.043   4.793   4.946  0.0882  0.1481 -0.3906
  165SAPS   H9X18652   5.097   4.703   4.982  1.9867  1.3023 -0.2689
  165SAPS   H9Y18653   5.118   4.838   4.878  1.5354 -3.5640 -1.3433
  165SAPS  C31018654   4.915   4.766   4.873  0.4482 -0.4901 -0.1054
  165SAPS  H10X18655   4.891   4.864   4.827  0.3668 -0.9091 -0.9710
  165SAPS  H10Y18656   4.829   4.733   4.935 -0.1524  1.4066  0.0778
  165SAPS  C31118657   4.928   4.665   4.755  0.2308 -0.7859 -0.2257
  165SAPS  H11X18658   4.920   4.565   4.803  0.4313  0.3464  2.2658
  165SAPS  H11Y18659   5.035   4.671   4.725 -0.3522  1.1805 -2.0091
  165SAPS  C31218660   4.832   4.693   4.643  0.1799 -0.0967 -0.2994
  165SAPS  H12X18661   4.871   4.788   4.601  1.6713 -0.7687 -0.4543
  165SAPS  H12Y18662   4.728   4.700   4.682  0.6961 -0.8874  1.2695
  165SAPS  C31318663   4.835   4.585   4.533 -0.1054  0.6576 -0.0689
  165SAPS  H13X18664   4.933   4.533   4.531  0.3977  1.4647  2.2881
  165SAPS  H13Y18665   4.812   4.638   4.439  0.6927 -0.3853 -0.8635
  165SAPS  C31418666   4.719   4.492   4.527  0.0193 -0.2107 -0.7155
  165SAPS  H14X18667   4.624   4.546   4.508 -0.8611 -0.9527  1.3232
  165SAPS  H14Y18668   4.711   4.439   4.625 -3.2027 -0.6921 -1.1778
  165SAPS  C31518669   4.736   4.393   4.414 -0.3824  0.5308  0.3656
  165SAPS  H15X18670   4.836   4.347   4.430 -1.0748 -0.6288  1.5110
  165SAPS  H15Y18671   4.752   4.436   4.313  1.2050  2.3016  1.3482
  165SAPS  C31618672   4.625   4.284   4.408  0.6900  0.3734 -0.5795
  165SAPS  H16X18673   4.527   4.333   4.386  0.1260  0.6790  2.3659
  165SAPS  H16Y18674   4.592   4.250   4.509  1.5159 -1.4248 -0.9068
  165SAPS  C31718675   4.635   4.164   4.309 -0.4572 -0.1779  0.2088
  165SAPS  H17X18676   4.638   4.206   4.206 -1.1291  1.7279  0.9519
  165SAPS  H17Y18677   4.542   4.106   4.330 -0.2730 -0.2384  0.8661
  165SAPS  C31818678   4.762   4.081   4.316 -0.2586 -0.7976 -0.2801
  165SAPS  H18X18679   4.854   4.138   4.289 -0.3560 -1.0069 -1.0671
  165SAPS  H18Y18680   4.751   3.993   4.250 -3.8245  0.4123 -1.3884
  165SAPS  H18Z18681   4.785   4.055   4.421  1.2025  1.3151 -0.0568
  166SAPS     N18682   2.003   5.168   6.207 -0.1014 -0.6761 -0.1830
  166SAPS   HN118683   1.999   5.124   6.113  0.2919 -2.6699  0.7212
  166SAPS   HN218684   2.010   5.272   6.208 -1.0057 -0.6184  0.3461
  166SAPS   HN318685   2.102   5.147   6.230 -0.0647  0.4388  0.7399
  166SAPS   C1218686   1.903   5.119   6.301  0.6424  0.1727  0.1594
  166SAPS  H12A18687   1.861   5.034   6.251  2.5678 -1.0778  0.5996
  166SAPS   C1318688   1.958   5.071   6.433  0.0481  0.3786 -0.3377
  166SAPS  O13A18689   2.085   5.075   6.452 -0.2212 -0.1335 -0.3006
  166SAPS  O13B18690   1.884   5.006   6.517  0.0616 -0.3975  0.0618
  166SAPS   C1118691   1.805   5.239   6.326  0.1865 -1.1823  0.6200
  166SAPS  H11A18692   1.869   5.308   6.385 -0.1730  1.9448 -2.4533
  166SAPS  H11B18693   1.725   5.226   6.402  1.7356  0.7439  2.6538
  166SAPS     P18694   1.671   5.249   6.101 -0.0997  0.1944 -0.2066
  166SAPS   O1318695   1.537   5.240   6.161  0.4570 -0.2750 -0.1377
  166SAPS   O1418696   1.681   5.328   5.972  0.2652  0.0583  0.0363
  166SAPS   O1218697   1.766   5.310   6.207 -0.3506  0.6025  0.1468
  166SAPS   O1118698   1.723   5.104   6.079  0.2503  0.1854 -0.5829
  166SAPS    C118699   1.649   5.001   6.017  0.2312 -0.5423 -0.2933
  166SAPS    HA18700   1.602   4.934   6.092  1.7994 -1.5305 -0.1611
  166SAPS    HB18701   1.576   5.046   5.947 -0.1731 -1.7391 -0.6569
  166SAPS    C218702   1.730   4.899   5.934  0.4348 -0.1174  0.3587
  166SAPS    HS18703   1.793   4.838   6.003 -0.3925  0.3217  1.5071
  166SAPS   O2118704   1.809   4.960   5.829  0.5088  0.3768 -0.1856
  166SAPS   C2118705   1.923   5.020   5.866 -0.3033 -0.3428 -0.6578
  166SAPS   O2218706   1.982   5.009   5.973 -0.6062 -0.4175  0.6083
  166SAPS   C2218707   1.979   5.089   5.741  0.2261 -0.6618 -0.1917
  166SAPS   H2R18708   2.062   5.156   5.768  0.1377 -0.1938 -1.0644
  166SAPS   H2S18709   2.026   5.021   5.666 -0.3730 -1.5989  0.2659
  166SAPS    C318710   1.628   4.795   5.869 -0.6303 -0.6270  0.3120
  166SAPS    HX18711   1.562   4.832   5.788  1.4207 -0.1860 -1.1963
  166SAPS    HY18712   1.570   4.747   5.951  0.5838 -2.6557  0.0402
  166SAPS   O3118713   1.692   4.689   5.791  0.3771  0.6468 -1.3302
  166SAPS   C3118714   1.756   4.593   5.859 -0.1653 -0.0620  0.0332
  166SAPS   O3218715   1.764   4.582   5.977 -0.6036  0.1344 -0.1960
  166SAPS   C3218716   1.832   4.501   5.765 -0.9436  0.2630  1.1219
  166SAPS   H2X18717   1.785   4.507   5.665  0.5041  1.1257  0.4909
  166SAPS   H2Y18718   1.823   4.398   5.806 -2.9194  0.4650  1.2793
  166SAPS   C2318719   1.875   5.189   5.662 -0.2483  0.9476  0.4452
  166SAPS   H3R18720   1.816   5.232   5.747 -1.5452  1.5271 -0.7320
  166SAPS   H3S18721   1.809   5.126   5.599 -0.6813  1.7615  0.0766
  166SAPS   C2418722   1.940   5.310   5.581 -0.2230 -0.6044 -0.1067
  166SAPS   H4R18723   1.981   5.385   5.652  1.8923  1.9529 -3.8245
  166SAPS   H4S18724   1.855   5.370   5.542 -2.0092 -1.9906  1.5262
  166SAPS   C2518725   2.039   5.264   5.482  0.1801 -0.0819  1.1616
  166SAPS   H5R18726   2.127   5.211   5.520  0.3899 -0.2910  0.3982
  166SAPS   C2618727   2.026   5.275   5.349  0.1487 -0.6903 -0.9340
  166SAPS   H6R18728   2.097   5.224   5.283  1.1665 -0.9950  0.3652
  166SAPS   C2718729   1.915   5.345   5.272 -0.0975 -0.3206  0.3307
  166SAPS   H7R18730   1.952   5.374   5.171 -1.4270  0.2418  0.0038
  166SAPS   H7S18731   1.888   5.443   5.316  1.6432  0.7304 -0.8885
  166SAPS   C2818732   1.792   5.255   5.256 -0.3736 -0.3058 -0.0110
  166SAPS   H8R18733   1.761   5.199   5.345  0.4088  1.3770  1.3606
  166SAPS   C2918734   1.712   5.243   5.145 -0.1494 -0.4143  0.3571
  166SAPS   H9R18735   1.624   5.177   5.155 -0.6231  0.5126  2.5221
  166SAPS  C21018736   1.714   5.310   5.010  0.1008 -0.4216  1.1349
  166SAPS  H10R18737   1.786   5.394   5.024  0.3023 -0.6722  1.6153
  166SAPS  H10S18738   1.611   5.350   4.997  0.0328 -1.1479 -0.7067
  166SAPS  C21118739   1.748   5.228   4.890 -0.4919 -0.5061 -0.1618
  166SAPS  H11R18740   1.738   5.119   4.906  3.2330 -0.9435 -0.3813
  166SAPS  C21218741   1.786   5.284   4.770 -0.5887  0.5504 -0.0808
  166SAPS  H12R18742   1.818   5.220   4.687 -5.7043 -0.5863 -1.3988
  166SAPS  C21318743   1.801   5.433   4.746 -0.2746 -0.3664 -0.4758
  166SAPS  H13R18744   1.890   5.445   4.680 -0.3355  0.9487 -0.3212
  166SAPS  H13S18745   1.815   5.489   4.841  0.6257 -1.6753  0.1817
  166SAPS  C21418746   1.667   5.483   4.688 -0.1988  0.2992 -0.7737
  166SAPS  H14R18747   1.581   5.425   4.723  1.3327 -0.5738  1.6962
  166SAPS  C21518748   1.662   5.583   4.597 -0.0206  0.2855 -0.3790
  166SAPS  H15R18749   1.565   5.613   4.554  0.0839  0.7299 -0.3014
  166SAPS  C21618750   1.774   5.659   4.528 -0.5679  0.3860 -0.2576
  166SAPS  H16R18751   1.799   5.605   4.434 -0.9925 -0.1086 -0.0885
  166SAPS  H16S18752   1.862   5.648   4.595 -0.6597 -2.9937 -0.6090
  166SAPS  C21718753   1.743   5.807   4.507 -0.7834 -0.5415  0.8094
  166SAPS  H17R18754   1.824   5.881   4.493 -0.5678 -1.1496 -1.4272
  166SAPS  H17S18755   1.676   5.845   4.587 -0.6663  0.0102  0.6460
  166SAPS  C21818756   1.666   5.839   4.379  0.3773 -0.5639  0.3311
  166SAPS  H18R18757   1.567   5.791   4.363 -0.9405  2.5745 -1.4567
  166SAPS  H18S18758   1.737   5.809   4.298  0.4776  1.4488 -0.3765
  166SAPS  C21918759   1.639   5.986   4.365 -0.7238  0.3115 -0.4118
  166SAPS  H19R18760   1.733   6.043   4.350 -2.2062  2.9717  0.1618
  166SAPS  H19S18761   1.596   6.021   4.461 -2.7813  0.0625 -1.2282
  166SAPS  C22018762   1.543   6.022   4.249  0.4741  0.0468  0.0123
  166SAPS  H20R18763   1.521   6.130   4.261 -3.2855 -0.8284  1.7282
  166SAPS  H20S18764   1.442   5.977   4.260 -1.2208  3.1597 -1.9979
  166SAPS  H20T18765   1.601   6.014   4.155 -0.6772 -1.1900 -0.6219
  166SAPS   C3318766   1.986   4.531   5.766 -0.2072  0.5393  0.0704
  166SAPS   H3X18767   2.044   4.452   5.714  1.1767  1.6274 -0.0633
  166SAPS   H3Y18768   2.016   4.518   5.872 -0.7362 -0.3854  0.1168
  166SAPS   C3418769   2.022   4.663   5.694  0.4790 -0.5081  0.1774
  166SAPS   H4X18770   2.122   4.704   5.719 -0.3203  1.3474  0.4579
  166SAPS   H4Y18771   1.956   4.747   5.727 -0.8271 -1.7203  0.7138
  166SAPS   C3518772   2.018   4.643   5.543 -0.4191  0.3466 -0.2063
  166SAPS   H5X18773   1.917   4.607   5.513 -1.6262  1.9185  1.8220
  166SAPS   H5Y18774   2.084   4.564   5.500 -2.2943  0.5942 -3.6554
  166SAPS   C3618775   2.030   4.769   5.460 -0.1273  0.1612 -0.3272
  166SAPS   H6X18776   2.139   4.789   5.463 -0.2511  0.8918 -0.7140
  166SAPS   H6Y18777   1.968   4.853   5.499 -2.4524 -1.1864 -0.9888
  166SAPS   C3718778   1.980   4.754   5.324 -0.4057  0.7574  0.9143
  166SAPS   H7X18779   1.869   4.745   5.321 -0.3212 -0.4976  1.2343
  166SAPS   H7Y18780   2.023   4.663   5.275 -0.7748  0.7505  0.6052
  166SAPS   C3818781   2.018   4.876   5.235 -0.6814 -0.4031 -0.4377
  166SAPS   H8X18782   2.122   4.910   5.255 -0.4876 -0.4223 -1.3784
  166SAPS   H8Y18783   1.953   4.962   5.262  0.8543  0.5520  0.3033
  166SAPS   C3918784   1.999   4.838   5.091  0.1609  0.3255  0.7957
  166SAPS   H9X18785   1.899   4.793   5.076 -0.4803  1.4034  1.8139
  166SAPS   H9Y18786   2.072   4.762   5.053 -0.2278 -0.1426  0.9859
  166SAPS  C31018787   2.014   4.962   4.997  0.2487  0.8969  0.4440
  166SAPS  H10X18788   1.955   5.046   5.038 -0.1346  0.0282  1.7277
  166SAPS  H10Y18789   1.982   4.923   4.898  1.9268 -1.2230  0.6782
  166SAPS  C31118790   2.159   5.011   5.004 -0.1015 -0.3589 -0.1630
  166SAPS  H11X18791   2.220   4.921   4.980 -1.0452 -0.5443 -1.9308
  166SAPS  H11Y18792   2.178   5.049   5.107  1.1316 -0.4678 -0.3344
  166SAPS  C31218793   2.192   5.124   4.901 -0.1764  0.0026 -0.3122
  166SAPS  H12X18794   2.302   5.133   4.888 -0.2502 -0.7955 -1.5464
  166SAPS  H12Y18795   2.162   5.223   4.940 -0.4841  0.7870 -2.4637
  166SAPS  C31318796   2.131   5.095   4.769 -0.2558 -0.1396 -0.0721
  166SAPS  H13X18797   2.020   5.090   4.779 -0.2583 -0.2247 -0.1481
  166SAPS  H13Y18798   2.155   4.995   4.727 -0.5295  0.0861 -0.7720
  166SAPS  C31418799   2.156   5.220   4.680 -0.4929  0.0706  0.4373
  166SAPS  H14X18800   2.267   5.223   4.668 -0.4079  0.9854  1.4432
  166SAPS  H14Y18801   2.127   5.316   4.727 -1.8757 -0.3478  0.4592
  166SAPS  C31518802   2.083   5.208   4.542  0.2377 -0.5448 -0.5696
  166SAPS  H15X18803   2.130   5.295   4.490 -1.3534  0.1562 -0.8505
  166SAPS  H15Y18804   1.974   5.227   4.551  0.5641  0.3439  1.7438
  166SAPS  C31618805   2.109   5.075   4.470  0.5050  0.3751  0.5984
  166SAPS  H16X18806   2.048   4.993   4.513  0.9739 -1.6277 -2.4088
  166SAPS  H16Y18807   2.217   5.049   4.477  0.4639  0.0989  0.2400
  166SAPS  C31718808   2.066   5.071   4.326 -0.0013  0.2261 -0.0072
  166SAPS  H17X18809   2.115   5.159   4.279  2.2488 -1.1709 -0.3553
  166SAPS  H17Y18810   1.957   5.063   4.306  0.4085 -1.8498 -1.5742
  166SAPS  C31818811   2.117   4.955   4.232 -0.3296 -0.1504 -0.9805
  166SAPS  H18X18812   2.061   4.950   4.136 -0.3078 -2.6103 -0.8829
  166SAPS  H18Y18813   2.127   4.862   4.292 -1.2220  1.1506  1.2371
  166SAPS  H18Z18814   2.224   4.970   4.203 -0.3435 -0.0057 -0.9571
  167SAPS     N18815   4.531   6.726   6.283 -0.2872 -0.1729  0.1154
  167SAPS   HN118816   4.513   6.685   6.190  1.0209 -0.0074 -0.2257
  167SAPS   HN218817   4.596   6.806   6.272  0.6429 -1.0431 -0.7881
  167SAPS   HN318818   4.575   6.644   6.330  0.0733 -1.2898 -2.1351
  167SAPS   C1218819   4.412   6.776   6.351 -0.1967 -0.2280 -0.2105
  167SAPS  H12A18820   4.367   6.691   6.400 -2.4903  0.3446 -1.2630
  167SAPS   C1318821   4.426   6.888   6.457 -0.5304  0.2151 -0.1871
  167SAPS  O13A18822   4.539   6.914   6.504  0.1612  0.3520  0.3902
  167SAPS  O13B18823   4.316   6.934   6.501  0.1338 -0.2163  0.3087
  167SAPS   C1118824   4.322   6.814   6.231  0.6280 -0.0625  0.5111
  167SAPS  H11A18825   4.374   6.892   6.172 -3.2480  1.2912 -1.2335
  167SAPS  H11B18826   4.228   6.854   6.275 -0.7358 -2.0886 -0.4656
  167SAPS     P18827   4.181   6.606   6.172  0.0895  0.2992  0.2326
  167SAPS   O1318828   4.228   6.481   6.107 -0.0844  0.2870 -0.1723
  167SAPS   O1418829   4.161   6.604   6.318 -0.5125  0.0020  0.5693
  167SAPS   O1218830   4.291   6.715   6.133  0.1686  0.1792  0.0979
  167SAPS   O1118831   4.053   6.662   6.096 -0.3584  0.8805 -0.7395
  167SAPS    C118832   4.049   6.699   5.958  0.1122 -0.0979 -0.3450
  167SAPS    HA18833   4.119   6.632   5.903  2.1942  0.1687  1.8705
  167SAPS    HB18834   3.949   6.676   5.915 -0.4246  1.1829  0.2075
  167SAPS    C218835   4.085   6.846   5.929 -0.1501  0.6383 -0.3391
  167SAPS    HS18836   4.190   6.872   5.955  0.6638 -0.9178 -1.9485
  167SAPS   O2118837   3.995   6.930   6.001  0.2710  0.2875 -0.0093
  167SAPS   C2118838   4.026   7.059   6.002 -0.1233  0.3846  1.6506
  167SAPS   O2218839   4.131   7.102   5.960 -0.3448 -0.7669  0.1078
  167SAPS   C2218840   3.905   7.138   6.039  0.2607  0.1771 -0.6533
  167SAPS   H2R18841   3.843   7.095   6.120 -0.5816  0.5511 -1.0941
  167SAPS   H2S18842   3.936   7.237   6.079  0.2334 -0.2316  0.3841
  167SAPS    C318843   4.072   6.873   5.780 -0.1866 -0.3226 -0.4981
  167SAPS    HX18844   4.109   6.973   5.752 -1.0276  0.8912  2.5826
  167SAPS    HY18845   3.963   6.870   5.755 -0.2179 -2.0145 -0.2129
  167SAPS   O3118846   4.146   6.778   5.706  0.0975 -0.5751  0.2794
  167SAPS   C3118847   4.111   6.767   5.578  0.6750  0.3334  0.1941
  167SAPS   O3218848   4.041   6.840   5.516 -0.5187  0.0084  0.4908
  167SAPS   C3218849   4.184   6.638   5.528  0.2095  0.2399 -0.2366
  167SAPS   H2X18850   4.148   6.545   5.578  0.6365  0.3936  0.3611
  167SAPS   H2Y18851   4.291   6.654   5.551 -0.5224  2.0709  1.9823
  167SAPS   C2318852   3.811   7.151   5.921  0.9140 -0.2889 -0.0561
  167SAPS   H3R18853   3.704   7.148   5.949  0.3685  1.1689 -1.9168
  167SAPS   H3S18854   3.809   7.061   5.856  0.9783 -0.6976  0.4963
  167SAPS   C2418855   3.819   7.273   5.830 -0.0799 -0.4659 -0.2119
  167SAPS   H4R18856   3.783   7.362   5.886  1.7870  0.3036 -0.1943
  167SAPS   H4S18857   3.742   7.258   5.751  0.7354 -1.0404 -0.9083
  167SAPS   C2518858   3.950   7.302   5.767  0.0119 -0.3209  1.0235
  167SAPS   H5R18859   4.040   7.314   5.829 -0.9921  1.6359  2.1265
  167SAPS   C2618860   3.981   7.305   5.641  0.9531  0.6958  1.0788
  167SAPS   H6R18861   4.083   7.340   5.617  0.7639 -0.7418 -2.1220
  167SAPS   C2718862   3.894   7.257   5.526 -1.0835  0.3627 -0.2863
  167SAPS   H7R18863   3.843   7.341   5.474 -0.3250  0.7704 -0.3649
  167SAPS   H7S18864   3.805   7.200   5.561 -1.0887  0.6289  0.1342
  167SAPS   C2818865   3.991   7.182   5.436 -0.1436  0.7743  0.0354
  167SAPS   H8R18866   4.025   7.084   5.471  2.3914  0.4152 -3.2371
  167SAPS   C2918867   4.012   7.200   5.306 -0.4660  0.0696  1.1809
  167SAPS   H9R18868   4.088   7.139   5.256 -0.8621  0.1646  0.4625
  167SAPS  C21018869   3.955   7.307   5.221  0.4029 -0.3220 -0.5648
  167SAPS  H10R18870   3.970   7.410   5.259 -1.0631 -1.0991  2.2134
  167SAPS  H10S18871   3.844   7.298   5.229  0.4675  0.5258  1.4619
  167SAPS  C21118872   3.999   7.287   5.074 -1.0396  0.0855 -0.0356
  167SAPS  H11R18873   3.934   7.228   5.007  1.5966 -0.7820 -1.9037
  167SAPS  C21218874   4.108   7.338   5.016  0.3445 -0.7264  0.4787
  167SAPS  H12R18875   4.132   7.322   4.910 -2.2272  1.8484 -0.5543
  167SAPS  C21318876   4.195   7.432   5.093 -0.1350 -0.1641 -0.8483
  167SAPS  H13R18877   4.191   7.410   5.202 -0.7428  1.4855 -0.5237
  167SAPS  H13S18878   4.150   7.532   5.073 -0.2550 -0.0921 -0.2175
  167SAPS  C21418879   4.344   7.432   5.060  0.8930 -0.3221  0.2151
  167SAPS  H14R18880   4.399   7.337   5.073 -1.4206 -1.7313 -0.0149
  167SAPS  C21518881   4.415   7.530   5.000 -0.5665 -0.1330 -0.7768
  167SAPS  H15R18882   4.524   7.527   5.009 -0.6700  1.4269  1.2507
  167SAPS  C21618883   4.362   7.667   4.957  0.2703  0.0249 -0.2932
  167SAPS  H16R18884   4.445   7.741   4.968 -0.1281  0.2361  1.3844
  167SAPS  H16S18885   4.280   7.710   5.018  1.3673 -0.2481  1.4223
  167SAPS  C21718886   4.309   7.661   4.815  0.0836 -0.1285 -0.0552
  167SAPS  H17R18887   4.201   7.637   4.828  0.4491 -1.1177  1.3149
  167SAPS  H17S18888   4.357   7.577   4.761 -0.2843 -0.2830 -0.1477
  167SAPS  C21818889   4.317   7.797   4.735  0.3653 -0.2726  0.5712
  167SAPS  H18R18890   4.422   7.831   4.743 -0.6458  3.1289  0.1366
  167SAPS  H18S18891   4.246   7.862   4.789  0.9139  0.7450  0.0853
  167SAPS  C21918892   4.274   7.773   4.592  0.5345 -0.7060  0.3669
  167SAPS  H19R18893   4.193   7.697   4.592  1.0240 -1.2397  0.7929
  167SAPS  H19S18894   4.353   7.716   4.537  0.9149  0.0715  0.0964
  167SAPS  C22018895   4.216   7.892   4.512 -0.6523 -0.5408 -0.0114
  167SAPS  H20R18896   4.279   7.982   4.497 -1.9536  0.0769 -2.0023
  167SAPS  H20S18897   4.121   7.925   4.558  0.7088  0.6130  2.0276
  167SAPS  H20T18898   4.179   7.856   4.414  0.2702  0.5294 -0.7695
  167SAPS   C3318899   4.186   6.619   5.375  0.0862 -0.6885  0.5649
  167SAPS   H3X18900   4.200   6.720   5.330 -1.6925 -1.1856 -1.1922
  167SAPS   H3Y18901   4.086   6.591   5.336  0.3886  0.9329 -1.5043
  167SAPS   C3418902   4.297   6.524   5.337 -0.3958 -0.2330  0.2383
  167SAPS   H4X18903   4.265   6.419   5.358  0.0703 -0.4343 -0.0512
  167SAPS   H4Y18904   4.389   6.544   5.395 -0.6098  0.4340  0.3478
  167SAPS   C3518905   4.328   6.525   5.186  0.0875  0.2763  0.8061
  167SAPS   H5X18906   4.421   6.467   5.167 -0.0793  0.3817 -0.3961
  167SAPS   H5Y18907   4.354   6.628   5.154  0.1589 -0.4524 -1.6363
  167SAPS   C3618908   4.203   6.492   5.106 -0.0918  0.4688  0.2446
  167SAPS   H6X18909   4.128   6.571   5.125  0.9908  1.2059  1.4934
  167SAPS   H6Y18910   4.161   6.393   5.134  0.9449 -0.0564 -0.0088
  167SAPS   C3718911   4.216   6.491   4.953 -0.1292  0.3092 -0.0016
  167SAPS   H7X18912   4.265   6.579   4.906 -1.0171 -0.4658 -2.4902
  167SAPS   H7Y18913   4.112   6.497   4.914 -0.6028 -2.9823  0.5774
  167SAPS   C3818914   4.267   6.357   4.899  0.7069  0.0688 -0.5509
  167SAPS   H8X18915   4.186   6.281   4.912 -0.6821  1.3533 -1.4619
  167SAPS   H8Y18916   4.365   6.336   4.945  0.7025  1.2962  0.0440
  167SAPS   C3918917   4.276   6.368   4.747 -0.7804  0.0545  0.4269
  167SAPS   H9X18918   4.184   6.416   4.708  0.6313  0.6053 -2.3773
  167SAPS   H9Y18919   4.286   6.266   4.703  1.3001 -0.2340  1.4771
  167SAPS  C31018920   4.399   6.455   4.714 -0.1878 -0.2615 -0.4091
  167SAPS  H10X18921   4.490   6.410   4.757 -0.0862  0.3560  0.0204
  167SAPS  H10Y18922   4.396   6.557   4.758 -0.5973 -0.3889 -0.1349
  167SAPS  C31118923   4.418   6.475   4.565 -0.3201 -0.6273  0.3328
  167SAPS  H11X18924   4.512   6.531   4.548  1.6893 -3.2843  2.2257
  167SAPS  H11Y18925   4.334   6.545   4.544 -0.0928  0.3943  2.7455
  167SAPS  C31218926   4.406   6.350   4.469  0.2265 -0.0455 -0.6134
  167SAPS  H12X18927   4.301   6.316   4.464 -0.0011  0.6252 -0.4146
  167SAPS  H12Y18928   4.471   6.266   4.503  0.7032  0.3815 -0.4475
  167SAPS  C31318929   4.445   6.391   4.324 -0.2872  0.2002 -0.3381
  167SAPS  H13X18930   4.555   6.399   4.318 -0.0418 -2.4956 -0.2469
  167SAPS  H13Y18931   4.394   6.488   4.307 -1.9890 -0.7839 -0.9695
  167SAPS  C31418932   4.411   6.273   4.230  0.0759 -0.5820 -0.6545
  167SAPS  H14X18933   4.301   6.256   4.236  0.0039 -0.8264 -2.2855
  167SAPS  H14Y18934   4.457   6.180   4.268  0.9984 -0.3096 -1.0842
  167SAPS  C31518935   4.443   6.283   4.078  0.5305 -0.0169  0.0642
  167SAPS  H15X18936   4.550   6.312   4.064  0.7038 -0.1949  0.9638
  167SAPS  H15Y18937   4.383   6.372   4.050 -0.2979 -0.4343  0.5048
  167SAPS  C31618938   4.406   6.156   3.999  0.2001 -0.1371  0.1662
  167SAPS  H16X18939   4.300   6.124   4.011  1.4522 -3.9544  1.5002
  167SAPS  H16Y18940   4.476   6.078   4.033  0.1542 -0.0997  0.3454
  167SAPS  C31718941   4.447   6.163   3.847 -0.5496 -0.0019  0.1017
  167SAPS  H17X18942   4.396   6.085   3.788  0.2661  0.1625 -0.8343
  167SAPS  H17Y18943   4.553   6.136   3.830  0.0977  1.3987  1.7513
  167SAPS  C31818944   4.399   6.294   3.777 -0.2423 -0.4018 -0.3427
  167SAPS  H18X18945   4.360   6.262   3.678  1.9920 -2.7157 -0.5421
  167SAPS  H18Y18946   4.485   6.361   3.759 -0.2479 -0.3432 -0.1588
  167SAPS  H18Z18947   4.320   6.344   3.837  0.7821  1.7835 -0.7828
  168SAPS     N18948   2.867   7.037   6.205  0.3508  0.4618  0.0628
  168SAPS   HN118949   2.904   6.958   6.148  0.0762  0.9548 -0.7965
  168SAPS   HN218950   2.774   7.066   6.171 -0.8152 -1.8097  1.2232
  168SAPS   HN318951   2.940   7.111   6.191  1.4118 -0.6062 -0.1445
  168SAPS   C1218952   2.862   6.998   6.347  0.5895 -0.4144 -0.2461
  168SAPS  H12A18953   2.953   6.956   6.388  2.1861  2.0549 -1.1986
  168SAPS   C1318954   2.820   7.127   6.430 -0.4519 -0.6326 -0.0116
  168SAPS  O13A18955   2.752   7.215   6.378 -0.1212  0.1646  0.7356
  168SAPS  O13B18956   2.820   7.110   6.553 -0.4368  0.5393  0.8895
  168SAPS   C1118957   2.754   6.891   6.364 -0.5867  0.2100  0.0536
  168SAPS  H11A18958   2.671   6.914   6.294 -0.6024 -0.6664 -0.2278
  168SAPS  H11B18959   2.715   6.892   6.468  1.0577 -0.7597  0.7030
  168SAPS     P18960   2.785   6.670   6.222  0.0952  0.2963 -0.0459
  168SAPS   O1318961   2.886   6.562   6.212  0.1935 -0.2182 -0.2884
  168SAPS   O1418962   2.637   6.627   6.234 -0.4095 -0.7723  0.0467
  168SAPS   O1218963   2.811   6.757   6.346  0.0386 -0.5053 -0.4270
  168SAPS   O1118964   2.805   6.776   6.106  0.0174  0.3555 -0.1129
  168SAPS    C118965   2.772   6.731   5.972 -0.2017  0.1058 -0.5407
  168SAPS    HA18966   2.859   6.699   5.912  0.7050 -2.1806  1.9106
  168SAPS    HB18967   2.701   6.645   5.973  0.2568 -0.2653  0.0440
  168SAPS    C218968   2.683   6.841   5.904 -0.5035 -0.2213 -0.1775
  168SAPS    HS18969   2.646   6.810   5.805  2.2111 -0.5904 -1.1026
  168SAPS   O2118970   2.768   6.955   5.881  0.4569 -0.1959  1.3064
  168SAPS   C2118971   2.840   6.945   5.773  0.3482  0.7294 -0.3549
  168SAPS   O2218972   2.839   6.847   5.697  0.6075 -0.1063  0.9522
  168SAPS   C2218973   2.906   7.078   5.745  0.6614 -0.4982 -0.3902
  168SAPS   H2R18974   2.833   7.140   5.689 -1.0758 -2.9158 -0.8986
  168SAPS   H2S18975   2.933   7.127   5.841 -0.2041 -0.1954 -0.2959
  168SAPS    C318976   2.582   6.888   6.009  0.4592 -0.3689 -0.0247
  168SAPS    HX18977   2.635   6.922   6.101 -1.3808 -2.0663  1.7237
  168SAPS    HY18978   2.515   6.804   6.038  0.7071 -0.7548 -0.5758
  168SAPS   O3118979   2.501   7.000   5.951 -0.3772  0.2049 -0.3658
  168SAPS   C3118980   2.537   7.127   5.971  0.3874  0.0783  0.3573
  168SAPS   O3218981   2.630   7.157   6.044  0.0460 -0.4936 -0.1617
  168SAPS   C3218982   2.444   7.224   5.899  0.2215 -0.9304  0.2609
  168SAPS   H2X18983   2.514   7.310   5.887  0.7610 -0.9931  2.6700
  168SAPS   H2Y18984   2.374   7.261   5.978  0.7459 -1.4652  0.9793
  168SAPS   C2318985   3.035   7.080   5.661  0.0699 -0.1123  0.2246
  168SAPS   H3R18986   3.091   6.985   5.663  0.5472  0.0572 -3.1000
  168SAPS   H3S18987   3.104   7.152   5.711 -1.2929  0.9180  0.6922
  168SAPS   C2418988   2.998   7.128   5.521  0.6983  0.4589  0.0366
  168SAPS   H4R18989   3.095   7.169   5.485  1.9041 -1.3765  1.0713
  168SAPS   H4S18990   2.925   7.211   5.518 -2.0170 -1.7939  1.2896
  168SAPS   C2518991   2.956   7.015   5.429 -0.5992 -0.1605  0.1499
  168SAPS   H5R18992   2.943   6.924   5.489  1.1742 -1.6589 -1.6677
  168SAPS   C2618993   2.967   7.013   5.293 -0.8435 -0.3391 -0.4781
  168SAPS   H6R18994   2.926   6.922   5.247  0.7744 -1.5057  0.3545
  168SAPS   C2718995   3.008   7.121   5.193  0.6397  1.1482 -0.0893
  168SAPS   H7R18996   3.046   7.212   5.245 -2.6213  1.3504  2.0842
  168SAPS   H7S18997   2.913   7.152   5.144  0.5077 -0.3600 -0.8279
  168SAPS   C2818998   3.100   7.053   5.098  0.1482  0.2384  0.9021
  168SAPS   H8R18999   3.182   7.004   5.152  1.3278  2.1948  0.9313
  168SAPS   C2919000   3.092   7.046   4.962  0.4904 -0.4542 -0.1496
  168SAPS   H9R19001   3.179   6.997   4.915  0.8459  0.9867 -1.0227
  168SAPS  C21019002   2.990   7.121   4.876  0.3455 -0.2066  0.1655
  168SAPS  H10R19003   2.951   7.213   4.925  0.2445 -0.2999  0.2608
  168SAPS  H10S19004   2.903   7.055   4.854  1.3793 -0.8887 -2.0344
  168SAPS  C21119005   3.052   7.143   4.737  1.0737  0.5729  0.6928
  168SAPS  H11R19006   3.054   7.249   4.707 -1.8271  0.0611 -1.5410
  168SAPS  C21219007   3.091   7.053   4.652 -0.0214  0.0989  0.0035
  168SAPS  H12R19008   3.120   7.085   4.550  0.5885 -2.2981 -0.6227
  168SAPS  C21319009   3.084   6.902   4.653 -0.5742 -0.4849 -0.2975
  168SAPS  H13R19010   3.141   6.865   4.741  0.0827 -0.5009 -0.7231
  168SAPS  H13S19011   3.158   6.872   4.575  0.3735 -0.9515  0.7709
  168SAPS  C21419012   2.959   6.822   4.646  0.4415 -0.2210  0.4638
  168SAPS  H14R19013   2.920   6.793   4.745 -1.5154  1.0844  0.0892
  168SAPS  C21519014   2.880   6.782   4.544 -0.2084 -0.9603  0.6486
  168SAPS  H15R19015   2.794   6.716   4.563  0.3427 -1.5515  1.1451
  168SAPS  C21619016   2.909   6.812   4.397  0.0664 -0.5782 -0.3953
  168SAPS  H16R19017   2.890   6.722   4.335  2.5073 -1.4698  0.0792
  168SAPS  H16S19018   3.013   6.838   4.369 -0.7134  2.2550 -0.7770
  168SAPS  C21719019   2.825   6.937   4.345 -0.8898 -0.1842 -0.0980
  168SAPS  H17R19020   2.819   7.021   4.418  0.0560 -0.0783 -0.1441
  168SAPS  H17S19021   2.719   6.903   4.335 -0.4214 -1.1918 -1.8691
  168SAPS  C21819022   2.887   6.985   4.216 -0.1563 -0.2702 -0.5014
  168SAPS  H18R19023   2.996   7.001   4.228 -0.3461  0.4695  0.3220
  168SAPS  H18S19024   2.848   7.088   4.199  2.0427  0.6870  0.0453
  168SAPS  C21919025   2.861   6.902   4.084 -0.3000 -0.2380  0.2916
  168SAPS  H19R19026   2.916   6.806   4.086  1.6315  0.8768  1.3197
  168SAPS  H19S19027   2.905   6.966   4.005 -0.3201 -0.6560 -0.0608
  168SAPS  C22019028   2.713   6.894   4.060  0.6073  1.0707  0.1204
  168SAPS  H20R19029   2.697   6.831   3.969 -0.1524 -1.6322  2.0678
  168SAPS  H20S19030   2.663   6.993   4.062 -0.0259  0.7690 -0.5074
  168SAPS  H20T19031   2.670   6.840   4.147  0.4978  0.8354 -0.0755
  168SAPS   C3319032   2.381   7.181   5.769 -0.0467 -0.3260  0.7219
  168SAPS   H3X19033   2.309   7.256   5.729  1.0546 -0.6098 -1.8810
  168SAPS   H3Y19034   2.319   7.090   5.781  2.5709 -2.4733 -1.5177
  168SAPS   C3419035   2.481   7.181   5.653  0.4255 -0.1580  0.2960
  168SAPS   H4X19036   2.445   7.119   5.568 -1.5315  0.7580  0.4336
  168SAPS   H4Y19037   2.579   7.136   5.680 -0.0883 -1.3058  0.2485
  168SAPS   C3519038   2.514   7.322   5.598  0.3184  0.1181 -0.1761
  168SAPS   H5X19039   2.550   7.380   5.686 -0.1260  0.9076 -0.5054
  168SAPS   H5Y19040   2.416   7.370   5.574  1.5378  1.7535 -2.1111
  168SAPS   C3619041   2.628   7.319   5.494 -0.9600  0.4062  0.3682
  168SAPS   H6X19042   2.710   7.250   5.521  0.8039  1.9664 -0.8525
  168SAPS   H6Y19043   2.687   7.413   5.492  0.4572 -0.4766  0.0389
  168SAPS   C3719044   2.582   7.293   5.355  0.2727 -0.1614  0.3637
  168SAPS   H7X19045   2.510   7.372   5.326 -0.0243 -0.9278 -1.0160
  168SAPS   H7Y19046   2.534   7.193   5.352  3.9555 -1.9763 -1.4737
  168SAPS   C3819047   2.696   7.298   5.255  0.2447  1.0402  0.5905
  168SAPS   H8X19048   2.718   7.191   5.234 -1.1882  1.0284 -0.9529
  168SAPS   H8Y19049   2.790   7.339   5.299  1.7724  0.3855 -1.9781
  168SAPS   C3919050   2.651   7.362   5.127 -0.7144 -0.3582 -0.8887
  168SAPS   H9X19051   2.743   7.380   5.068  0.4587  1.7352  1.4680
  168SAPS   H9Y19052   2.620   7.466   5.149  1.8484  0.2153  0.1868
  168SAPS  C31019053   2.555   7.286   5.035 -0.6141  0.0382 -0.1823
  168SAPS  H10X19054   2.522   7.366   4.965  0.6058  0.4528 -0.2938
  168SAPS  H10Y19055   2.470   7.247   5.095  2.0610 -1.1602  2.9499
  168SAPS  C31119056   2.635   7.178   4.958  0.4955 -0.8373  0.0854
  168SAPS  H11X19057   2.654   7.096   5.030 -1.2366 -1.5962 -0.2896
  168SAPS  H11Y19058   2.735   7.223   4.940  0.2267 -0.8210 -1.4066
  168SAPS  C31219059   2.577   7.135   4.825  0.1692 -0.4862 -0.0150
  168SAPS  H12X19060   2.630   7.048   4.781 -1.3152 -0.7310 -1.3506
  168SAPS  H12Y19061   2.584   7.219   4.752  0.4577 -2.5987 -2.4688
  168SAPS  C31319062   2.430   7.083   4.827 -0.3932  0.0556 -1.0032
  168SAPS  H13X19063   2.374   7.173   4.861 -0.9261 -1.2779  1.7778
  168SAPS  H13Y19064   2.409   7.006   4.905 -1.1747  2.8531  1.6575
  168SAPS  C31419065   2.377   7.037   4.696  0.1425 -0.1914  0.4061
  168SAPS  H14X19066   2.442   6.955   4.659  1.2777  0.6123  0.6222
  168SAPS  H14Y19067   2.381   7.116   4.618 -0.7697 -1.3193 -0.8191
  168SAPS  C31519068   2.237   6.976   4.699 -0.6216 -0.1652  0.5620
  168SAPS  H15X19069   2.185   7.020   4.787 -1.6443 -2.0514  0.9419
  168SAPS  H15Y19070   2.236   6.866   4.718 -1.9786 -0.4516 -1.0583
  168SAPS  C31619071   2.160   7.010   4.570 -0.6292  1.3870 -0.4571
  168SAPS  H16X19072   2.217   6.948   4.498  1.6735 -0.2374  2.6493
  168SAPS  H16Y19073   2.167   7.118   4.547  0.3098  1.4457  0.0802
  168SAPS  C31719074   2.012   6.971   4.579  0.0436 -0.1656 -0.3682
  168SAPS  H17X19075   2.018   6.860   4.582  0.0671 -0.1469  0.3855
  168SAPS  H17Y19076   1.984   6.992   4.474 -0.2014 -0.9594 -0.4652
  168SAPS  C31819077   1.917   7.033   4.675 -0.5223  0.5354  0.4575
  168SAPS  H18X19078   1.872   7.121   4.625  0.1238 -0.6579 -2.3624
  168SAPS  H18Y19079   1.956   7.059   4.775 -1.5125  0.4191  0.8769
  168SAPS  H18Z19080   1.832   6.965   4.699 -0.0198 -0.1669  0.2858
  169SAPS     N19081   6.399   2.065   6.212 -0.2235  0.2760 -0.0592
  169SAPS   HN119082   6.364   1.969   6.195 -0.1707  0.5340 -1.6628
  169SAPS   HN219083   6.321   2.125   6.246  0.7153  1.1575  0.5704
  169SAPS   HN319084   6.442   2.106   6.127  0.1293 -0.9214 -0.4614
  169SAPS   C1219085   6.499   2.069   6.323 -0.4899  0.4327  0.0449
  169SAPS  H12A19086   6.557   2.158   6.304  0.0113  0.3681  1.2064
  169SAPS   C1319087   6.443   2.085   6.463  0.2196 -0.8032  0.2800
  169SAPS  O13A19088   6.318   2.092   6.475 -0.0699  0.4082 -0.0567
  169SAPS  O13B19089   6.525   2.126   6.549  0.7739 -0.1683 -0.2142
  169SAPS   C1119090   6.589   1.943   6.306 -0.5917  0.1860 -0.2283
  169SAPS  H11A19091   6.522   1.858   6.330 -0.2535  0.1343  0.5502
  169SAPS  H11B19092   6.672   1.959   6.378 -1.4686  1.2441  0.5749
  169SAPS     P19093   6.769   1.852   6.162 -0.0576  0.3034  0.1908
  169SAPS   O1319094   6.874   1.954   6.178 -0.5170  0.2120  0.4947
  169SAPS   O1419095   6.769   1.738   6.259 -0.0191 -0.3837  0.5607
  169SAPS   O1219096   6.632   1.932   6.174  0.1941  0.7811  0.2990
  169SAPS   O1119097   6.763   1.798   6.013  0.2727 -0.6118  0.5763
  169SAPS    C119098   6.796   1.889   5.908  0.2896  0.1092 -0.4936
  169SAPS    HA19099   6.887   1.950   5.929 -0.9521  1.7533  0.2094
  169SAPS    HB19100   6.825   1.827   5.820 -1.3758  2.0202 -2.4496
  169SAPS    C219101   6.668   1.983   5.861  0.0417 -0.1047 -0.3500
  169SAPS    HS19102   6.643   2.041   5.952 -0.5164 -3.4109  1.6797
  169SAPS   O2119103   6.558   1.901   5.826 -0.0236 -0.3887  0.0485
  169SAPS   C2119104   6.441   1.946   5.837 -1.5343  0.1495 -0.2888
  169SAPS   O2219105   6.408   2.055   5.879  0.3427 -0.1600  0.0685
  169SAPS   C2219106   6.350   1.855   5.754 -0.0758  0.6553 -0.1322
  169SAPS   H2R19107   6.402   1.765   5.715 -2.1374  0.2685 -2.0939
  169SAPS   H2S19108   6.278   1.825   5.834  0.2632 -0.1143 -0.1154
  169SAPS    C319109   6.717   2.078   5.746  0.0072 -0.6685  0.4064
  169SAPS    HX19110   6.749   2.023   5.655 -0.6566  0.1083 -0.2975
  169SAPS    HY19111   6.805   2.135   5.783  0.4230 -0.5559 -0.7413
  169SAPS   O3119112   6.607   2.168   5.711 -0.6350 -0.1111 -0.0741
  169SAPS   C3119113   6.583   2.270   5.789  0.2318  0.1109 -0.3956
  169SAPS   O3219114   6.647   2.296   5.889 -0.5729 -0.1711  0.9568
  169SAPS   C3219115   6.457   2.344   5.746 -0.8419  0.4505  0.2966
  169SAPS   H2X19116   6.475   2.452   5.766 -0.2470  0.0879  1.8211
  169SAPS   H2Y19117   6.383   2.334   5.829  0.6009 -0.8368  1.4793
  169SAPS   C2319118   6.273   1.931   5.648  0.9148 -0.2248  0.3733
  169SAPS   H3R19119   6.248   2.036   5.676  0.3732  0.0242 -0.9796
  169SAPS   H3S19120   6.178   1.874   5.642  0.1050  1.2018 -0.7605
  169SAPS   C2419121   6.346   1.952   5.511  0.1228 -0.3168 -0.5646
  169SAPS   H4R19122   6.446   1.994   5.533 -0.0052  0.4184 -1.3814
  169SAPS   H4S19123   6.299   2.024   5.440 -0.9594 -2.1010 -1.7021
  169SAPS   C2519124   6.355   1.822   5.432 -0.5070 -0.1914 -0.4592
  169SAPS   H5R19125   6.261   1.772   5.405  0.5889 -2.1123 -0.8043
  169SAPS   C2619126   6.465   1.745   5.404  0.2108 -0.3765 -0.3223
  169SAPS   H6R19127   6.449   1.647   5.357 -0.4075  1.7994 -4.8964
  169SAPS   C2719128   6.603   1.773   5.447 -0.2161  1.0835 -0.1188
  169SAPS   H7R19129   6.615   1.865   5.508  2.8631  0.6673 -0.0159
  169SAPS   H7S19130   6.668   1.799   5.361 -1.6067  1.6329 -1.0344
  169SAPS   C2819131   6.651   1.649   5.519 -0.8804  0.0082  0.4446
  169SAPS   H8R19132   6.632   1.637   5.627 -3.6602  3.4860  0.4187
  169SAPS   C2919133   6.726   1.546   5.469 -0.1912  0.0825 -0.3786
  169SAPS   H9R19134   6.746   1.463   5.537  1.5367 -0.5448 -1.6104
  169SAPS  C21019135   6.781   1.527   5.327  0.4714  0.0898  0.5065
  169SAPS  H10R19136   6.891   1.538   5.328  0.4080  0.7912 -0.2854
  169SAPS  H10S19137   6.742   1.616   5.274 -1.2344 -0.7959  0.2468
  169SAPS  C21119138   6.749   1.406   5.241 -0.0376 -0.5817 -0.0824
  169SAPS  H11R19139   6.650   1.360   5.255 -0.0841  0.1720  2.3339
  169SAPS  C21219140   6.834   1.347   5.163  0.1001 -0.3618  0.7506
  169SAPS  H12R19141   6.807   1.250   5.116  1.3254  0.6705 -2.2186
  169SAPS  C21319142   6.979   1.363   5.127  0.0974 -0.1150  0.1322
  169SAPS  H13R19143   7.001   1.271   5.068 -1.5552 -1.1907  1.1502
  169SAPS  H13S19144   7.046   1.350   5.215  0.6299 -3.3105 -0.6462
  169SAPS  C21419145   7.016   1.487   5.051 -0.6787  0.2013 -0.3378
  169SAPS  H14R19146   6.991   1.576   5.111  0.2418 -0.9567  1.8307
  169SAPS  C21519147   7.097   1.501   4.947 -0.5028  0.0940 -0.2490
  169SAPS  H15R19148   7.110   1.600   4.899 -3.6878  2.0160  2.6224
  169SAPS  C21619149   7.167   1.397   4.879  0.4671  0.5862  0.8184
  169SAPS  H16R19150   7.129   1.298   4.911  0.8903 -0.4442 -1.6950
  169SAPS  H16S19151   7.275   1.403   4.905  0.3805 -1.5243  1.7219
  169SAPS  C21719152   7.161   1.400   4.720  0.0864  0.2108  0.5816
  169SAPS  H17R19153   7.194   1.498   4.681 -0.0253  0.0178  0.0043
  169SAPS  H17S19154   7.058   1.382   4.683  0.9296  2.9904 -3.3974
  169SAPS  C21819155   7.263   1.306   4.648  0.5572  0.7566 -0.5617
  169SAPS  H18R19156   7.240   1.204   4.684 -3.2601  0.5950 -3.2299
  169SAPS  H18S19157   7.365   1.340   4.676  0.0716  1.0037  0.9934
  169SAPS  C21919158   7.241   1.305   4.499  0.0431  0.2947  0.3243
  169SAPS  H19R19159   7.258   1.408   4.461 -1.7211  0.8045  0.9194
  169SAPS  H19S19160   7.132   1.291   4.485 -0.5145  3.3200  1.3023
  169SAPS  C22019161   7.332   1.212   4.415  0.4250 -0.1626 -0.6835
  169SAPS  H20R19162   7.436   1.248   4.431  0.3509 -0.7244  1.1655
  169SAPS  H20S19163   7.299   1.210   4.309 -1.3552 -0.9869 -0.1285
  169SAPS  H20T19164   7.320   1.109   4.454  0.3603 -0.5698 -1.7579
  169SAPS   C3319165   6.411   2.313   5.600 -0.1844 -0.2416 -0.2245
  169SAPS   H3X19166   6.327   2.385   5.588  0.5960  0.8219  0.5219
  169SAPS   H3Y19167   6.359   2.217   5.583 -3.0726  1.4395 -1.2831
  169SAPS   C3419168   6.515   2.333   5.485  0.0430 -0.0544  0.0991
  169SAPS   H4X19169   6.594   2.255   5.491  0.9792  0.9540  1.0455
  169SAPS   H4Y19170   6.562   2.433   5.498 -1.1624  0.5755 -0.3827
  169SAPS   C3519171   6.453   2.324   5.348  0.7934 -0.0242 -0.8499
  169SAPS   H5X19172   6.384   2.410   5.334 -0.2761 -0.5425  1.0966
  169SAPS   H5Y19173   6.395   2.230   5.334  0.6867 -0.0051 -0.5277
  169SAPS   C3619174   6.557   2.323   5.236 -0.4337  0.3509 -0.3581
  169SAPS   H6X19175   6.639   2.249   5.248 -0.3767  0.5218  0.3046
  169SAPS   H6Y19176   6.602   2.425   5.233  2.1273 -0.5922  3.1324
  169SAPS   C3719177   6.500   2.287   5.102 -0.2146 -0.1407  0.1070
  169SAPS   H7X19178   6.572   2.325   5.027  0.1796 -3.9378 -1.5205
  169SAPS   H7Y19179   6.397   2.325   5.081 -1.1215 -3.2527 -1.3692
  169SAPS   C3819180   6.494   2.139   5.061  0.6145  0.5706 -0.2795
  169SAPS   H8X19181   6.401   2.097   5.105  1.1879 -2.6668 -2.0416
  169SAPS   H8Y19182   6.576   2.076   5.103 -1.3521 -2.5552 -0.9899
  169SAPS   C3919183   6.487   2.118   4.915 -0.7480  0.2369  0.0463
  169SAPS   H9X19184   6.581   2.155   4.869 -1.1940  0.4317 -0.7052
  169SAPS   H9Y19185   6.406   2.174   4.864  1.0219  2.1446 -0.7388
  169SAPS  C31019186   6.477   1.970   4.871  0.0770  0.1075 -0.2924
  169SAPS  H10X19187   6.456   1.969   4.762 -0.1464  1.1982 -0.2656
  169SAPS  H10Y19188   6.389   1.929   4.925  0.4242  0.3689  0.4788
  169SAPS  C31119189   6.600   1.876   4.901  0.5548  0.3774 -0.1247
  169SAPS  H11X19190   6.605   1.858   5.011 -0.5868  0.3141 -0.0806
  169SAPS  H11Y19191   6.691   1.931   4.867 -0.4847  1.9478 -0.4149
  169SAPS  C31219192   6.604   1.738   4.837  0.0866 -0.2283 -0.9067
  169SAPS  H12X19193   6.568   1.763   4.735 -0.7829  4.0692  0.3761
  169SAPS  H12Y19194   6.536   1.670   4.893  1.3921 -0.6223  0.2254
  169SAPS  C31319195   6.745   1.674   4.841  0.1760  0.2155 -0.4276
  169SAPS  H13X19196   6.788   1.671   4.943 -0.4244 -1.7553 -0.2039
  169SAPS  H13Y19197   6.821   1.743   4.800  0.4300 -0.2740 -0.7834
  169SAPS  C31419198   6.757   1.532   4.773 -0.2478  0.0689 -0.0114
  169SAPS  H14X19199   6.708   1.454   4.835  0.2329  0.5887  1.0374
  169SAPS  H14Y19200   6.863   1.499   4.776  0.0047  0.8347 -0.4151
  169SAPS  C31519201   6.701   1.528   4.628 -0.1149  0.1590  0.4023
  169SAPS  H15X19202   6.727   1.620   4.572 -1.9485 -0.6024 -1.7725
  169SAPS  H15Y19203   6.590   1.522   4.629 -0.0474 -1.6402 -0.9375
  169SAPS  C31619204   6.752   1.395   4.567  1.3365 -0.4267 -0.6494
  169SAPS  H16X19205   6.705   1.320   4.635 -1.1841  0.8302 -0.9735
  169SAPS  H16Y19206   6.863   1.395   4.579  1.3712 -0.1100 -0.9814
  169SAPS  C31719207   6.721   1.365   4.421 -0.4479  1.2061 -0.4813
  169SAPS  H17X19208   6.786   1.425   4.354 -1.4219  3.1816  0.2888
  169SAPS  H17Y19209   6.614   1.393   4.408 -0.7212  0.8763  0.9251
  169SAPS  C31819210   6.728   1.210   4.394  0.3735  0.2714 -0.7531
  169SAPS  H18X19211   6.683   1.157   4.480  2.2595  1.4773  1.0046
  169SAPS  H18Y19212   6.836   1.185   4.398  0.5968  1.4494  1.8090
  169SAPS  H18Z19213   6.670   1.186   4.302  0.4397 -0.5574 -0.5743
  170SAPS     N19214   6.528   6.133   6.126 -0.2944 -0.2803 -0.1160
  170SAPS   HN119215   6.512   6.030   6.122 -1.1633 -0.0724 -4.2669
  170SAPS   HN219216   6.491   6.168   6.036 -1.4014 -0.0848  0.3942
  170SAPS   HN319217   6.631   6.139   6.139 -0.2286  0.1975 -0.8812
  170SAPS   C1219218   6.460   6.195   6.244  0.6589 -0.6359 -0.4418
  170SAPS  H12A19219   6.360   6.154   6.250  0.2071  0.4444 -0.3359
  170SAPS   C1319220   6.526   6.163   6.378 -0.7599  0.1128 -1.0693
  170SAPS  O13A19221   6.617   6.073   6.388  0.5384  0.0642 -0.1934
  170SAPS  O13B19222   6.469   6.210   6.481 -0.2339 -0.0739  0.4500
  170SAPS   C1119223   6.448   6.350   6.231  0.1766 -0.0847  0.7319
  170SAPS  H11A19224   6.554   6.384   6.229  1.3334 -3.3160  2.1047
  170SAPS  H11B19225   6.395   6.396   6.317 -1.3856  1.7315 -1.1624
  170SAPS     P19226   6.414   6.420   5.976  0.0441 -0.1153  0.1761
  170SAPS   O1319227   6.474   6.296   5.924  0.1153  0.0843 -0.2400
  170SAPS   O1419228   6.301   6.480   5.902  0.4726  0.4049 -0.0936
  170SAPS   O1219229   6.372   6.388   6.122  0.0978  0.3779 -0.3799
  170SAPS   O1119230   6.520   6.528   5.988  0.0467 -0.0832 -0.0859
  170SAPS    C119231   6.655   6.509   5.967  0.6847 -0.1543  0.6553
  170SAPS    HA19232   6.714   6.556   6.048  1.5994 -0.7127  0.3218
  170SAPS    HB19233   6.686   6.402   5.971  0.6382 -0.0924  2.8860
  170SAPS    C219234   6.700   6.569   5.836  0.2869  0.2440  0.8477
  170SAPS    HS19235   6.680   6.678   5.847  0.7353  0.6079 -1.5442
  170SAPS   O2119236   6.626   6.513   5.722 -0.5362 -0.4276 -0.8104
  170SAPS   C2119237   6.556   6.600   5.653 -0.3170  0.0990  0.3919
  170SAPS   O2219238   6.562   6.719   5.660 -0.0247 -0.3356 -0.5686
  170SAPS   C2219239   6.459   6.530   5.557  0.9544 -0.0630  0.7203
  170SAPS   H2R19240   6.475   6.420   5.563  0.8695  0.0255  3.0786
  170SAPS   H2S19241   6.356   6.551   5.594  0.9700  0.2499  0.5900
  170SAPS    C319242   6.852   6.552   5.805  0.0069 -0.0959  0.5431
  170SAPS    HX19243   6.901   6.616   5.881 -0.1844  0.6287  0.0606
  170SAPS    HY19244   6.869   6.607   5.710 -1.4925  0.0378  0.3297
  170SAPS   O3119245   6.893   6.418   5.802  0.2373  0.5532  0.5844
  170SAPS   C3119246   7.020   6.392   5.751  0.2909 -0.8699  0.0008
  170SAPS   O3219247   7.100   6.482   5.735  0.0500 -0.0075  0.0710
  170SAPS   C3219248   7.048   6.250   5.745  0.1091 -0.1521  0.0068
  170SAPS   H2X19249   7.046   6.220   5.852 -1.4546  0.7300  0.2300
  170SAPS   H2Y19250   7.153   6.240   5.709  0.1760  3.0374 -0.8368
  170SAPS   C2319251   6.457   6.565   5.410 -0.0495 -0.1379  0.6946
  170SAPS   H3R19252   6.440   6.674   5.396 -1.0344 -0.3090  0.4999
  170SAPS   H3S19253   6.363   6.527   5.363 -0.0079  0.0983  0.4163
  170SAPS   C2419254   6.579   6.507   5.340 -0.1434  0.8274 -0.5799
  170SAPS   H4R19255   6.555   6.514   5.232 -0.3044 -1.5069 -0.7287
  170SAPS   H4S19256   6.585   6.397   5.354  0.4027  1.1249  1.9042
  170SAPS   C2519257   6.721   6.561   5.368  0.6272  0.4235  0.3626
  170SAPS   H5R19258   6.754   6.543   5.471  1.0792 -0.9122 -0.0028
  170SAPS   C2619259   6.798   6.629   5.277  0.2899  0.1696 -0.2493
  170SAPS   H6R19260   6.903   6.631   5.312  1.0275 -0.4175 -2.3594
  170SAPS   C2719261   6.771   6.668   5.132  0.1041  0.7290  1.0631
  170SAPS   H7R19262   6.665   6.699   5.130 -0.7860 -2.1765  1.3758
  170SAPS   H7S19263   6.774   6.571   5.078  0.3118 -0.4669  3.1879
  170SAPS   C2819264   6.848   6.777   5.061  0.0439 -0.3850 -0.2858
  170SAPS   H8R19265   6.875   6.852   5.136 -1.2069  0.2697 -0.4749
  170SAPS   C2919266   6.873   6.783   4.925 -0.0450  0.0679  0.4294
  170SAPS   H9R19267   6.915   6.874   4.879 -1.3069 -0.0681 -1.0044
  170SAPS  C21019268   6.821   6.685   4.822 -0.5838 -0.4976 -0.4193
  170SAPS  H10R19269   6.714   6.667   4.845  0.2735 -2.7121  2.0957
  170SAPS  H10S19270   6.862   6.584   4.841 -2.0199 -1.1379 -0.7483
  170SAPS  C21119271   6.825   6.715   4.669  0.2794  0.0403  0.7534
  170SAPS  H11R19272   6.875   6.643   4.604  1.5680 -0.1551  1.9318
  170SAPS  C21219273   6.780   6.821   4.606  0.2370  0.6401  0.1424
  170SAPS  H12R19274   6.792   6.834   4.498  2.6475  1.0447  0.4430
  170SAPS  C21319275   6.711   6.941   4.674 -0.1499  0.1686  0.5462
  170SAPS  H13R19276   6.766   6.971   4.766 -1.7243  1.5355  1.0656
  170SAPS  H13S19277   6.607   6.914   4.701 -0.7943  0.8872 -1.1766
  170SAPS  C21419278   6.710   7.063   4.582  0.1690 -0.6084 -0.3500
  170SAPS  H14R19279   6.809   7.093   4.545  0.4325 -0.9449  0.0758
  170SAPS  C21519280   6.598   7.144   4.559 -0.9697 -0.0948 -0.3312
  170SAPS  H15R19281   6.602   7.221   4.481 -4.0624  0.6026  0.1183
  170SAPS  C21619282   6.463   7.146   4.617 -0.3605 -0.0803  0.0493
  170SAPS  H16R19283   6.452   7.073   4.700  1.1897  0.3268  0.6269
  170SAPS  H16S19284   6.384   7.108   4.548  0.8231  0.7969 -1.8347
  170SAPS  C21719285   6.422   7.279   4.676 -0.5811  0.2093  0.1883
  170SAPS  H17R19286   6.486   7.314   4.760 -0.6790  0.2030  0.2660
  170SAPS  H17S19287   6.324   7.254   4.722 -0.9512 -0.0735 -0.7381
  170SAPS  C21819288   6.386   7.391   4.573 -0.6184 -0.4004 -0.2386
  170SAPS  H18R19289   6.352   7.327   4.489 -0.3721 -1.2828  0.3219
  170SAPS  H18S19290   6.478   7.444   4.539 -0.8038  0.0726 -0.0074
  170SAPS  C21919291   6.287   7.497   4.617  0.2700 -0.8306  0.0933
  170SAPS  H19R19292   6.318   7.554   4.706  0.7182 -0.1819 -0.4760
  170SAPS  H19S19293   6.200   7.442   4.660  1.7081 -3.7617 -0.6131
  170SAPS  C22019294   6.236   7.585   4.506  0.0595  0.7886  0.3441
  170SAPS  H20R19295   6.324   7.619   4.447 -0.8788  1.9083 -0.4117
  170SAPS  H20S19296   6.181   7.672   4.547 -1.3859 -0.4988  1.1816
  170SAPS  H20T19297   6.161   7.544   4.435  0.4887  1.0056 -0.2372
  170SAPS   C3319298   6.948   6.177   5.656 -0.4110  0.3205  0.1720
  170SAPS   H3X19299   6.847   6.197   5.699  0.9258  1.7746  2.7827
  170SAPS   H3Y19300   6.953   6.068   5.676  3.8065  0.6634  1.5733
  170SAPS   C3419301   6.947   6.199   5.502 -0.0806 -0.1815  0.2478
  170SAPS   H4X19302   7.045   6.173   5.456  0.8435  1.7284  1.0999
  170SAPS   H4Y19303   6.925   6.305   5.478 -1.3028 -0.1402  1.4733
  170SAPS   C3519304   6.830   6.115   5.442  0.2272  0.2312 -0.0330
  170SAPS   H5X19305   6.738   6.127   5.504 -0.0417 -0.6245 -0.2540
  170SAPS   H5Y19306   6.843   6.005   5.436  0.5037  0.3655 -2.0905
  170SAPS   C3619307   6.791   6.153   5.296 -0.9216  0.2929  0.1099
  170SAPS   H6X19308   6.776   6.263   5.292  1.9299  0.6976  0.0491
  170SAPS   H6Y19309   6.699   6.101   5.261  0.2699 -2.4195  0.8994
  170SAPS   C3719310   6.883   6.117   5.177  0.2779  0.2360  0.0475
  170SAPS   H7X19311   6.916   6.013   5.194 -0.1507  0.4196  2.1296
  170SAPS   H7Y19312   6.969   6.186   5.168 -0.3961  0.9851 -0.7723
  170SAPS   C3819313   6.816   6.126   5.038  0.0977  0.0742 -0.0662
  170SAPS   H8X19314   6.773   6.227   5.019 -1.1580 -1.2062 -4.8341
  170SAPS   H8Y19315   6.729   6.057   5.026 -0.2376  0.4839 -0.0165
  170SAPS   C3919316   6.900   6.078   4.925  0.6659 -0.3596 -0.3719
  170SAPS   H9X19317   6.927   5.971   4.911  2.0320 -0.2756  1.4610
  170SAPS   H9Y19318   6.993   6.136   4.945  0.1489  0.2865  0.1621
  170SAPS  C31019319   6.855   6.109   4.783 -0.2773 -0.0354 -0.4004
  170SAPS  H10X19320   6.819   6.214   4.777  3.3935  1.3910  0.9100
  170SAPS  H10Y19321   6.761   6.058   4.753 -0.5195 -0.7317  1.4374
  170SAPS  C31119322   6.966   6.076   4.681  0.1409  0.2199 -0.3540
  170SAPS  H11X19323   7.023   5.983   4.702  1.5823  1.3524  0.9687
  170SAPS  H11Y19324   7.046   6.153   4.687 -1.4587  1.7598  2.3525
  170SAPS  C31219325   6.913   6.053   4.539 -0.5611 -0.0763  0.3604
  170SAPS  H12X19326   6.835   5.975   4.529  1.5827 -2.4928  1.7287
  170SAPS  H12Y19327   6.999   6.027   4.474 -0.0054  0.8227  0.7274
  170SAPS  C31319328   6.856   6.189   4.493 -0.7057 -0.3318 -0.3285
  170SAPS  H13X19329   6.929   6.270   4.515 -0.4052 -0.5804 -0.4072
  170SAPS  H13Y19330   6.771   6.230   4.552 -0.2193 -2.7379  2.1732
  170SAPS  C31419331   6.828   6.197   4.342 -0.0272 -0.0815 -0.7819
  170SAPS  H14X19332   6.744   6.128   4.320 -0.7357 -0.1740  1.9515
  170SAPS  H14Y19333   6.909   6.142   4.289 -0.6735 -2.6962  0.8493
  170SAPS  C31519334   6.799   6.339   4.286 -0.4495 -0.3777  0.6633
  170SAPS  H15X19335   6.895   6.394   4.274 -0.7039 -0.6493 -3.4410
  170SAPS  H15Y19336   6.734   6.399   4.353 -0.3042  1.7452 -1.0219
  170SAPS  C31619337   6.734   6.310   4.155  0.4111 -0.0992  0.0419
  170SAPS  H16X19338   6.645   6.246   4.172  1.4689 -1.6135  0.1001
  170SAPS  H16Y19339   6.807   6.270   4.080  1.0656  0.5626  0.3158
  170SAPS  C31719340   6.681   6.442   4.089 -0.0858 -0.1157 -0.0824
  170SAPS  H17X19341   6.600   6.472   4.159  0.7920  0.3332  0.7528
  170SAPS  H17Y19342   6.626   6.420   3.995  1.4615 -0.8032 -0.8557
  170SAPS  C31819343   6.782   6.556   4.076 -0.4155 -0.0990  0.5802
  170SAPS  H18X19344   6.877   6.511   4.039 -0.6255  0.3712 -0.5633
  170SAPS  H18Y19345   6.805   6.608   4.171 -4.2418 -0.5645  1.8312
  170SAPS  H18Z19346   6.756   6.637   4.004  1.1305  0.3749  0.5235
  171SAPS     N19347   0.706   6.235   6.152 -0.0136 -0.0988 -0.0130
  171SAPS   HN119348   0.764   6.151   6.135  0.7684  0.7182 -1.3795
  171SAPS   HN219349   0.669   6.271   6.062  2.6049  1.3904 -0.5416
  171SAPS   HN319350   0.778   6.302   6.185 -0.3727  0.9022 -1.1975
  171SAPS   C1219351   0.595   6.188   6.236 -0.3965  0.2532 -0.2427
  171SAPS  H12A19352   0.633   6.153   6.331 -1.5253  0.4170  0.2769
  171SAPS   C1319353   0.484   6.294   6.264  0.2003 -0.7123 -0.0637
  171SAPS  O13A19354   0.498   6.410   6.218  0.1343 -0.1178 -0.1759
  171SAPS  O13B19355   0.369   6.253   6.293  0.3338  0.3481  0.1434
  171SAPS   C1119356   0.528   6.074   6.156  0.5519  0.5434 -0.3260
  171SAPS  H11A19357   0.468   6.098   6.066  0.8483  0.9665 -0.4108
  171SAPS  H11B19358   0.460   6.027   6.231 -0.1331  1.7762 -0.1571
  171SAPS     P19359   0.570   5.839   6.068  0.3319 -0.1240 -0.2855
  171SAPS   O1319360   0.684   5.758   6.020 -0.5391 -0.0600  0.1277
  171SAPS   O1419361   0.496   5.773   6.178  1.2085 -0.4681 -0.3130
  171SAPS   O1219362   0.630   5.977   6.125  0.0379  0.1978 -0.6807
  171SAPS   O1119363   0.478   5.886   5.950  0.4470 -0.1489 -0.1497
  171SAPS    C119364   0.525   5.899   5.814 -0.1406 -0.2953 -0.2621
  171SAPS    HA19365   0.599   5.820   5.787  1.4596 -0.0305  3.0588
  171SAPS    HB19366   0.439   5.892   5.744  2.1009  0.6081 -3.2019
  171SAPS    C219367   0.583   6.038   5.783  0.4278  0.0165  0.3038
  171SAPS    HS19368   0.646   6.055   5.874  1.6084 -0.7448 -0.3545
  171SAPS   O2119369   0.476   6.134   5.767 -0.2136 -0.1413 -0.2382
  171SAPS   C2119370   0.494   6.253   5.817  1.1565  0.9967  0.0816
  171SAPS   O2219371   0.581   6.283   5.901  0.2230 -0.1097  0.4247
  171SAPS   C2219372   0.392   6.355   5.765 -0.0305  0.0532 -0.9850
  171SAPS   H2R19373   0.308   6.300   5.718 -0.9073  0.4830  0.0651
  171SAPS   H2S19374   0.342   6.406   5.850 -1.8859  0.1469 -2.0941
  171SAPS    C319375   0.675   6.033   5.659  0.6724  0.0914 -0.0998
  171SAPS    HX19376   0.758   5.960   5.667  1.1484  0.8792  2.5962
  171SAPS    HY19377   0.732   6.129   5.657 -0.2130  0.6234 -0.2219
  171SAPS   O3119378   0.598   6.009   5.541  0.4184  0.9458 -0.1446
  171SAPS   C3119379   0.592   6.102   5.449 -0.5048 -0.1654 -0.5300
  171SAPS   O3219380   0.664   6.205   5.445  0.4014  0.2170 -0.1112
  171SAPS   C3219381   0.483   6.068   5.347 -0.5030  0.4420  0.8706
  171SAPS   H2X19382   0.551   6.039   5.264 -0.7164  0.3116  0.7413
  171SAPS   H2Y19383   0.446   6.170   5.324  3.8677  1.6703 -1.2558
  171SAPS   C2319384   0.464   6.454   5.667  0.5140 -0.1416 -0.4278
  171SAPS   H3R19385   0.527   6.394   5.597  1.5196  0.1625  0.2103
  171SAPS   H3S19386   0.542   6.519   5.711  1.2328 -0.4622 -1.2110
  171SAPS   C2419387   0.365   6.551   5.593 -0.1568 -0.5605  0.1095
  171SAPS   H4R19388   0.320   6.613   5.674 -2.9765  0.1054 -1.8826
  171SAPS   H4S19389   0.293   6.491   5.534  1.3687 -1.4811 -0.8441
  171SAPS   C2519390   0.445   6.654   5.509  0.2488  0.0586  0.2450
  171SAPS   H5R19391   0.501   6.730   5.565  1.4587 -0.4868 -0.2021
  171SAPS   C2619392   0.447   6.658   5.370 -0.2132 -0.3534  0.6262
  171SAPS   H6R19393   0.506   6.732   5.314 -2.5338 -0.3678 -1.9301
  171SAPS   C2719394   0.388   6.551   5.282 -0.2340 -0.2227 -0.1493
  171SAPS   H7R19395   0.339   6.602   5.196  0.6396  0.7659 -0.0699
  171SAPS   H7S19396   0.305   6.502   5.338 -0.2696  0.3471  0.3038
  171SAPS   C2819397   0.497   6.451   5.241 -0.0427  0.5354  0.1887
  171SAPS   H8R19398   0.579   6.440   5.314 -1.5116  2.1991  2.1527
  171SAPS   C2919399   0.500   6.373   5.131 -0.6949 -0.0707 -0.1176
  171SAPS   H9R19400   0.587   6.306   5.119  1.2167  2.0389  1.5073
  171SAPS  C21019401   0.394   6.381   5.025  0.2672 -0.6401  1.2119
  171SAPS  H10R19402   0.431   6.435   4.936  1.2411 -2.6259  0.3933
  171SAPS  H10S19403   0.302   6.433   5.061  0.5056  0.1259  0.7303
  171SAPS  C21119404   0.350   6.242   4.972  0.1738  0.5298 -0.0453
  171SAPS  H11R19405   0.403   6.156   5.016  0.4877 -0.5053 -2.3931
  171SAPS  C21219406   0.242   6.213   4.896  0.1301 -0.2421 -0.0668
  171SAPS  H12R19407   0.217   6.112   4.860  2.7400 -0.8294 -0.3688
  171SAPS  C21319408   0.149   6.313   4.842  0.1540  0.3627  0.2421
  171SAPS  H13R19409   0.160   6.316   4.731  0.8012 -0.5938  0.2768
  171SAPS  H13S19410   0.166   6.418   4.872 -2.4556  1.2137 -1.0544
  171SAPS  C21419411   0.007   6.275   4.865 -0.7054  0.5349  0.2980
  171SAPS  H14R19412  -0.013   6.209   4.951  1.2926  1.4716  1.4988
  171SAPS  C21519413  -0.098   6.347   4.814  0.3082  1.4358 -0.2075
  171SAPS  H15R19414  -0.200   6.310   4.829  1.6993 -2.0525  1.0861
  171SAPS  C21619415  -0.089   6.471   4.730 -0.1414  0.6555  0.1388
  171SAPS  H16R19416   0.017   6.502   4.725  0.1807 -0.6210 -1.2826
  171SAPS  H16S19417  -0.137   6.556   4.783  0.0970  1.5754 -1.0955
  171SAPS  C21719418  -0.155   6.464   4.589 -0.6899  0.6680  0.2451
  171SAPS  H17R19419  -0.173   6.561   4.537 -0.4222 -0.6244 -2.3624
  171SAPS  H17S19420  -0.260   6.428   4.593 -0.9152  1.4843  1.7310
  171SAPS  C21819421  -0.071   6.378   4.492  0.5979  0.2302 -0.6788
  171SAPS  H18R19422  -0.023   6.299   4.552 -2.7618 -0.9398  0.5873
  171SAPS  H18S19423  -0.002   6.449   4.441 -1.0376  1.8204 -0.7818
  171SAPS  C21919424  -0.143   6.307   4.370 -0.4381  0.5808 -0.3007
  171SAPS  H19R19425  -0.201   6.386   4.318 -0.5993  0.3434 -0.4838
  171SAPS  H19S19426  -0.222   6.244   4.416 -1.3454  2.3176  0.5512
  171SAPS  C22019427  -0.055   6.240   4.264  0.1658 -0.3694 -0.3770
  171SAPS  H20R19428  -0.028   6.139   4.302  3.3628 -0.6930 -3.2855
  171SAPS  H20S19429   0.033   6.307   4.256 -0.1046 -0.1437 -1.6816
  171SAPS  H20T19430  -0.104   6.235   4.164 -1.3715 -0.0568  0.3468
  171SAPS   C3319431   0.370   5.971   5.390  0.1213  0.4373 -0.3703
  171SAPS   H3X19432   0.408   5.880   5.440 -2.0030 -0.6188 -0.6353
  171SAPS   H3Y19433   0.335   5.944   5.288 -0.6800 -0.5438  0.1634
  171SAPS   C3419434   0.254   6.043   5.463 -0.9919 -0.6967  0.8760
  171SAPS   H4X19435   0.296   6.068   5.563  0.5382  0.9859 -0.1550
  171SAPS   H4Y19436   0.180   5.966   5.491  0.9231 -2.6964  0.6045
  171SAPS   C3519437   0.193   6.176   5.401  0.8865  0.4590  0.2513
  171SAPS   H5X19438   0.197   6.160   5.292  0.0110 -2.0378  0.5530
  171SAPS   H5Y19439   0.251   6.269   5.420 -1.0131  1.6140  0.5955
  171SAPS   C3619440   0.045   6.190   5.448  0.3965  0.3370 -0.1650
  171SAPS   H6X19441   0.044   6.196   5.559  0.1398  0.4963 -0.1766
  171SAPS   H6Y19442  -0.013   6.100   5.419 -1.6954  0.2256  4.1015
  171SAPS   C3719443  -0.025   6.307   5.388  0.1354 -0.5607 -0.0511
  171SAPS   H7X19444   0.015   6.396   5.440 -2.0309 -0.8273  2.1607
  171SAPS   H7Y19445  -0.135   6.303   5.406 -0.0243 -0.6599 -0.9966
  171SAPS   C3819446  -0.005   6.328   5.233 -0.3712  0.8332  0.2466
  171SAPS   H8X19447  -0.043   6.238   5.182 -0.7781  0.5044  1.1264
  171SAPS   H8Y19448   0.097   6.337   5.190 -1.0588  1.0889 -1.3601
  171SAPS   C3919449  -0.076   6.455   5.180 -0.3135  1.0276 -0.5817
  171SAPS   H9X19450  -0.181   6.454   5.218 -0.4377  0.5273 -0.9228
  171SAPS   H9Y19451  -0.085   6.450   5.070 -1.2965 -1.5248 -0.4187
  171SAPS  C31019452  -0.007   6.585   5.221 -0.1948 -0.2877 -0.2814
  171SAPS  H10X19453   0.094   6.582   5.175 -0.0099 -0.2059  0.1204
  171SAPS  H10Y19454   0.016   6.588   5.329  0.2066  4.9726 -0.3898
  171SAPS  C31119455  -0.077   6.713   5.170  0.2143  0.4902  0.9840
  171SAPS  H11X19456  -0.023   6.799   5.216  1.0969  1.4708 -1.7957
  171SAPS  H11Y19457  -0.184   6.704   5.198  0.4125 -1.4745  1.1550
  171SAPS  C31219458  -0.068   6.725   5.017  0.2759  0.4747  0.1182
  171SAPS  H12X19459  -0.147   6.661   4.973  1.6471 -0.8097 -0.5224
  171SAPS  H12Y19460   0.031   6.693   4.978  0.1624  0.2852 -0.0107
  171SAPS  C31319461  -0.092   6.866   4.965  0.4196 -0.4912  0.0685
  171SAPS  H13X19462  -0.033   6.940   5.022 -0.0323  0.7817 -1.0783
  171SAPS  H13Y19463  -0.196   6.895   4.992  0.9241  0.9164  0.5520
  171SAPS  C31419464  -0.077   6.887   4.815  0.4424  0.9159  0.2810
  171SAPS  H14X19465  -0.157   6.835   4.758  0.1270  0.5556  1.0342
  171SAPS  H14Y19466   0.024   6.843   4.799  0.1560  0.1110  0.6293
  171SAPS  C31519467  -0.067   7.031   4.782 -0.3933  0.2019  0.4420
  171SAPS  H15X19468  -0.060   7.043   4.672 -1.4857  4.4350  0.7407
  171SAPS  H15Y19469   0.003   7.092   4.842 -0.4577  1.6170 -0.9034
  171SAPS  C31619470  -0.204   7.100   4.814  0.7731  0.2934 -0.3180
  171SAPS  H16X19471  -0.208   7.117   4.924  1.3534  0.7122 -0.3569
  171SAPS  H16Y19472  -0.288   7.032   4.788  1.5496  0.1444 -2.5350
  171SAPS  C31719473  -0.210   7.238   4.750  0.2317 -0.3220  0.4790
  171SAPS  H17X19474  -0.316   7.269   4.763  0.0337 -0.7663 -0.0565
  171SAPS  H17Y19475  -0.187   7.221   4.643 -2.9539  4.2042 -1.0479
  171SAPS  C31819476  -0.115   7.335   4.812 -0.3502 -0.2655 -0.1208
  171SAPS  H18X19477  -0.112   7.339   4.923  2.6020 -3.2722 -0.0324
  171SAPS  H18Y19478  -0.114   7.440   4.776  0.4264 -0.1752  0.1630
  171SAPS  H18Z19479  -0.009   7.309   4.796  0.3020  1.4496  1.1934
  172SAPS     N19480   6.887   6.595   6.370 -0.4602 -0.0951 -0.2502
  172SAPS   HN119481   6.898   6.555   6.465  1.5018 -0.3801 -0.5907
  172SAPS   HN219482   6.818   6.674   6.372  1.9699  2.0975 -0.6075
  172SAPS   HN319483   6.867   6.523   6.297 -1.7367 -0.6212  0.5857
  172SAPS   C1219484   7.025   6.648   6.349 -0.3375 -0.1263 -0.0897
  172SAPS  H12A19485   7.050   6.720   6.425  0.4895  1.9384 -2.2462
  172SAPS   C1319486   7.141   6.546   6.357  0.1421  0.2440 -0.4748
  172SAPS  O13A19487   7.127   6.442   6.419  0.2916 -0.4851 -0.0661
  172SAPS  O13B19488   7.259   6.583   6.329  0.0855 -0.2949  0.2013
  172SAPS   C1119489   7.015   6.726   6.212 -0.0461  0.3657 -0.2338
  172SAPS  H11A19490   6.994   6.656   6.128 -0.0599  0.3222 -0.1939
  172SAPS  H11B19491   7.117   6.760   6.188 -0.5267  0.6668 -1.8863
  172SAPS     P19492   6.849   6.894   6.094  0.4285  0.0735 -0.1599
  172SAPS   O1319493   6.726   6.813   6.070 -0.1757  0.0917 -0.4739
  172SAPS   O1419494   6.817   7.038   6.117 -0.2852 -0.6320  0.4587
  172SAPS   O1219495   6.932   6.840   6.216 -0.2365  0.2575 -0.3641
  172SAPS   O1119496   6.942   6.882   5.968  0.4355  0.2364  0.4968
  172SAPS    C119497   7.064   6.956   5.960 -0.7401  0.2980  0.9066
  172SAPS    HA19498   7.042   7.065   5.962  0.0204  0.6056 -3.1642
  172SAPS    HB19499   7.143   6.931   6.034 -1.1056  1.0496  1.5605
  172SAPS    C219500   7.131   6.934   5.814  0.1282  0.1042 -0.0027
  172SAPS    HS19501   7.199   7.020   5.794  1.3151 -0.4497  1.5628
  172SAPS   O2119502   7.035   6.923   5.710 -0.2931 -0.1182  0.2320
  172SAPS   C2119503   6.950   7.023   5.692  0.1486  0.7259  0.4649
  172SAPS   O2219504   6.954   7.133   5.743  1.1476  0.0009 -0.1353
  172SAPS   C2219505   6.853   6.981   5.587  0.2467  0.0771 -0.0061
  172SAPS   H2R19506   6.852   6.873   5.560 -2.6833 -0.1105  0.6011
  172SAPS   H2S19507   6.749   6.976   5.626  1.0604 -2.4096  1.9846
  172SAPS    C319508   7.218   6.803   5.813 -0.1023  0.4018 -0.2730
  172SAPS    HX19509   7.143   6.723   5.831 -1.6980  2.2052  1.2999
  172SAPS    HY19510   7.289   6.799   5.898  0.6177 -0.5171 -0.9156
  172SAPS   O3119511   7.291   6.777   5.689  0.0205 -0.6448  0.4150
  172SAPS   C3119512   7.391   6.864   5.669  0.8137 -0.1195 -0.1134
  172SAPS   O3219513   7.432   6.939   5.753  0.1557  0.0703 -0.6003
  172SAPS   C3219514   7.453   6.838   5.533  0.0989  0.7093  0.0194
  172SAPS   H2X19515   7.403   6.753   5.482 -1.5898  1.4321  0.4484
  172SAPS   H2Y19516   7.558   6.805   5.549 -0.5639 -1.0660  0.8903
  172SAPS   C2319517   6.854   7.069   5.462  0.2106  0.0728 -0.1804
  172SAPS   H3R19518   6.852   7.176   5.493  0.5364 -0.2612  1.0015
  172SAPS   H3S19519   6.754   7.057   5.414 -0.0721  1.0349  0.1563
  172SAPS   C2419520   6.972   7.050   5.365 -1.0014  0.3408 -0.3725
  172SAPS   H4R19521   6.978   6.941   5.345  0.5876 -0.0531  2.0603
  172SAPS   H4S19522   7.063   7.077   5.424 -1.5930  1.4789  0.0344
  172SAPS   C2519523   6.963   7.140   5.247 -0.0762 -0.1688 -0.0366
  172SAPS   H5R19524   6.892   7.102   5.172 -0.4186  2.2906 -0.9929
  172SAPS   C2619525   7.039   7.248   5.226  0.1368 -0.4166 -0.5570
  172SAPS   H6R19526   7.038   7.279   5.121 -1.0692 -1.3718 -0.8359
  172SAPS   C2719527   7.143   7.319   5.316  0.1374  0.4679 -0.0647
  172SAPS   H7R19528   7.218   7.369   5.251  0.0019  1.5743  0.6195
  172SAPS   H7S19529   7.202   7.235   5.360  1.7658  1.2158 -0.7760
  172SAPS   C2819530   7.088   7.417   5.421  0.6510 -0.5890 -0.3657
  172SAPS   H8R19531   7.091   7.375   5.523 -0.0431  0.2413  0.0044
  172SAPS   C2919532   7.032   7.539   5.398  0.3459  0.3898 -0.6448
  172SAPS   H9R19533   6.975   7.584   5.480  1.3669 -0.3165  0.4614
  172SAPS  C21019534   7.006   7.606   5.262  0.2730 -0.0162 -0.2817
  172SAPS  H10R19535   6.962   7.541   5.184  2.2932  0.4319 -1.8152
  172SAPS  H10S19536   7.106   7.640   5.230  0.7220 -0.0297  1.0500
  172SAPS  C21119537   6.910   7.730   5.273 -0.0461  0.0699 -0.1715
  172SAPS  H11R19538   6.819   7.716   5.335 -0.0614 -1.3090 -0.4767
  172SAPS  C21219539   6.921   7.847   5.215 -0.2435  0.6773 -0.5682
  172SAPS  H12R19540   6.839   7.919   5.230  0.6134  1.1791  1.9457
  172SAPS  C21319541   7.031   7.881   5.117  0.6828  0.0420 -0.9487
  172SAPS  H13R19542   7.125   7.844   5.164  0.1316  1.7069  1.5761
  172SAPS  H13S19543   7.039   7.992   5.125 -1.4583  0.1875 -0.6866
  172SAPS  C21419544   7.007   7.831   4.973  0.0188 -0.7435  0.0324
  172SAPS  H14R19545   6.909   7.859   4.930  1.1228 -1.0498 -2.7935
  172SAPS  C21519546   7.086   7.755   4.896 -1.1982 -0.2071 -0.0596
  172SAPS  H15R19547   7.055   7.720   4.797  1.0795 -1.6286 -0.2928
  172SAPS  C21619548   7.219   7.708   4.935  0.8365  0.1284 -0.0431
  172SAPS  H16R19549   7.196   7.610   4.982 -1.0248  0.3608 -0.4389
  172SAPS  H16S19550   7.253   7.778   5.015 -0.0910  0.6155 -0.0694
  172SAPS  C21719551   7.312   7.710   4.808 -0.0367 -0.5863 -0.1507
  172SAPS  H17R19552   7.328   7.813   4.770  1.1920  0.0158  1.9173
  172SAPS  H17S19553   7.260   7.662   4.722  0.9359 -0.4415 -0.8252
  172SAPS  C21819554   7.446   7.649   4.838 -1.1751  0.1638 -0.9331
  172SAPS  H18R19555   7.430   7.553   4.891  0.8968 -0.4296 -1.3553
  172SAPS  H18S19556   7.499   7.699   4.922 -1.3594 -1.6916  0.3095
  172SAPS  C21919557   7.532   7.622   4.714 -0.1365 -0.3977  0.2630
  172SAPS  H19R19558   7.470   7.651   4.626 -3.4400 -1.3523  2.1837
  172SAPS  H19S19559   7.544   7.514   4.693  0.4303 -0.3232  0.2152
  172SAPS  C22019560   7.663   7.701   4.705 -0.2790  0.2988 -0.7230
  172SAPS  H20R19561   7.719   7.675   4.612 -1.4398 -1.7271 -0.8983
  172SAPS  H20S19562   7.713   7.681   4.802 -1.9722 -0.8767 -0.0555
  172SAPS  H20T19563   7.646   7.810   4.698 -0.1307  0.3102 -0.9014
  172SAPS   C3319564   7.469   6.962   5.441  0.1432  0.5605 -0.1984
  172SAPS   H3X19565   7.513   7.041   5.505  0.2107  0.9755 -0.7449
  172SAPS   H3Y19566   7.377   7.009   5.400  0.4304  1.5948  0.3275
  172SAPS   C3419567   7.568   6.930   5.320  0.7809  0.0327  0.4710
  172SAPS   H4X19568   7.542   6.832   5.276  0.8291  0.9910 -1.7229
  172SAPS   H4Y19569   7.667   6.911   5.368  1.4155 -1.9199 -1.5285
  172SAPS   C3519570   7.584   7.029   5.205  0.2316 -0.7598  0.0286
  172SAPS   H5X19571   7.620   7.127   5.242  1.3361 -0.6062 -1.3878
  172SAPS   H5Y19572   7.486   7.054   5.159  0.9275  3.2114  0.5757
  172SAPS   C3619573   7.671   6.982   5.088 -0.0877 -0.2797 -0.1969
  172SAPS   H6X19574   7.779   6.959   5.103 -0.5915 -2.7901 -0.2770
  172SAPS   H6Y19575   7.667   7.061   5.009 -0.2573 -0.0362  0.0555
  172SAPS   C3719576   7.614   6.858   5.017  0.0481  0.0091 -0.5083
  172SAPS   H7X19577   7.509   6.885   4.996 -0.1642 -0.4862 -0.0872
  172SAPS   H7Y19578   7.609   6.770   5.085 -0.1734 -1.5565 -2.5023
  172SAPS   C3819579   7.680   6.830   4.883  0.3734 -0.1974 -0.7367
  172SAPS   H8X19580   7.788   6.849   4.896  0.4889 -0.5771 -1.1188
  172SAPS   H8Y19581   7.654   6.902   4.802  0.2470  2.6615  1.7645
  172SAPS   C3919582   7.678   6.682   4.848  0.6891  0.0996  0.3735
  172SAPS   H9X19583   7.571   6.655   4.832  1.2202 -1.4876 -0.6411
  172SAPS   H9Y19584   7.715   6.638   4.943  0.1054  2.2207  1.6161
  172SAPS  C31019585   7.771   6.640   4.724  0.0339  0.0978 -0.7094
  172SAPS  H10X19586   7.777   6.529   4.719 -1.3069  0.1137 -2.9174
  172SAPS  H10Y19587   7.877   6.664   4.749  0.1986 -1.1652 -0.1205
  172SAPS  C31119588   7.740   6.695   4.587  0.2955 -0.0450  0.2322
  172SAPS  H11X19589   7.820   6.658   4.519 -1.1521  0.1851 -1.6378
  172SAPS  H11Y19590   7.742   6.806   4.590 -0.0272 -0.0325  0.0409
  172SAPS  C31219591   7.605   6.651   4.524 -0.4321  0.3065  0.3572
  172SAPS  H12X19592   7.527   6.673   4.599 -0.5931  1.6697 -0.2062
  172SAPS  H12Y19593   7.609   6.542   4.502 -2.0826  0.3630 -0.2694
  172SAPS  C31319594   7.555   6.728   4.398 -0.3121  0.0059  0.1838
  172SAPS  H13X19595   7.635   6.720   4.323 -0.5125 -0.7218  0.0446
  172SAPS  H13Y19596   7.536   6.835   4.421 -1.4177  0.4135 -2.5249
  172SAPS  C31419597   7.418   6.692   4.339  0.3444  0.2699  0.2847
  172SAPS  H14X19598   7.342   6.684   4.420  1.2203 -1.6542  0.9576
  172SAPS  H14Y19599   7.418   6.594   4.286  0.7190  0.7174 -0.5567
  172SAPS  C31519600   7.374   6.803   4.236  0.1785  0.4011 -0.5014
  172SAPS  H15X19601   7.457   6.802   4.161  0.2802  1.3219 -0.4084
  172SAPS  H15Y19602   7.376   6.905   4.280 -1.1821 -0.2066  1.0109
  172SAPS  C31619603   7.237   6.772   4.170 -0.2755 -0.5494 -0.3996
  172SAPS  H16X19604   7.208   6.848   4.094  1.9389  1.5936  0.8296
  172SAPS  H16Y19605   7.253   6.671   4.127  0.9363  0.3248 -2.0564
  172SAPS  C31719606   7.110   6.776   4.262  0.0169 -0.4143  0.3661
  172SAPS  H17X19607   7.146   6.745   4.362  1.8196 -0.2054 -0.2008
  172SAPS  H17Y19608   7.040   6.704   4.214  2.5102 -2.1212 -0.8141
  172SAPS  C31819609   7.053   6.920   4.270 -0.0775 -0.3488  0.5379
  172SAPS  H18X19610   6.951   6.921   4.314 -2.1322 -1.3957 -3.8675
  172SAPS  H18Y19611   7.041   6.976   4.175  0.0442 -0.2745  0.5645
  172SAPS  H18Z19612   7.117   6.981   4.337 -0.2862  0.2069  0.2294
  173SAPS     N19613   5.061   3.503   2.033 -0.3278 -0.5048  0.5735
  173SAPS   HN119614   5.029   3.564   2.111 -3.0314  0.7065 -1.4348
  173SAPS   HN219615   5.007   3.554   1.960  0.2964 -2.6040 -1.4218
  173SAPS   HN319616   5.026   3.405   2.046 -0.1795 -0.8979 -1.7748
  173SAPS   C1219617   5.209   3.525   2.010  0.3898  0.4593 -0.1147
  173SAPS  H12A19618   5.272   3.488   2.089 -2.0553 -3.9745 -0.0969
  173SAPS   C1319619   5.262   3.456   1.877  0.3625  0.4871 -0.5429
  173SAPS  O13A19620   5.194   3.369   1.814 -0.0826 -0.6998 -0.0674
  173SAPS  O13B19621   5.386   3.458   1.871 -0.4487 -0.3471  0.1718
  173SAPS   C1119622   5.227   3.677   1.989 -0.3402  0.3674  0.0006
  173SAPS  H11A19623   5.185   3.698   1.888  2.2905 -3.3273 -1.9765
  173SAPS  H11B19624   5.334   3.704   1.979  0.0155 -1.6796 -2.1462
  173SAPS     P19625   5.123   3.907   2.045 -0.0269 -0.4641  0.0724
  173SAPS   O1319626   5.244   3.988   2.014  0.4141  0.2330 -0.1809
  173SAPS   O1419627   5.013   3.902   1.946 -0.0746  0.0661 -0.7031
  173SAPS   O1219628   5.169   3.758   2.082 -0.2066 -0.4192 -0.5177
  173SAPS   O1119629   5.067   3.956   2.179  0.1319 -0.2779 -0.1349
  173SAPS    C119630   4.968   3.869   2.235 -0.4548 -0.0833 -0.1998
  173SAPS    HA19631   4.906   3.810   2.164 -2.5055  1.3746  0.3576
  173SAPS    HB19632   5.033   3.791   2.280  2.1150  1.3427 -1.3627
  173SAPS    C219633   4.888   3.946   2.352  0.1373  0.0958  0.2203
  173SAPS    HS19634   4.835   4.032   2.305  0.9829  1.8377  2.3305
  173SAPS   O2119635   4.984   3.999   2.442  0.5680 -0.6334  0.5649
  173SAPS   C2119636   4.944   4.087   2.527  0.7562  0.6573  0.0586
  173SAPS   O2219637   4.834   4.137   2.530 -0.3835  1.0966 -0.0219
  173SAPS   C2219638   5.059   4.126   2.618 -0.3552 -0.0775  0.2447
  173SAPS   H2R19639   5.103   4.030   2.653 -1.4483 -0.7698 -0.2488
  173SAPS   H2S19640   5.131   4.186   2.557 -1.2080  1.6875  0.9609
  173SAPS    C319641   4.796   3.854   2.437 -0.6717 -0.0716 -0.5593
  173SAPS    HX19642   4.735   3.802   2.360 -1.8695  0.7019 -0.1390
  173SAPS    HY19643   4.731   3.914   2.504 -0.7062 -1.2419  0.4923
  173SAPS   O3119644   4.872   3.752   2.505  0.2509 -0.4494 -0.1948
  173SAPS   C3119645   4.859   3.746   2.632 -0.3568 -0.0243  0.1980
  173SAPS   O3219646   4.811   3.831   2.706 -0.2974  0.0128 -0.0161
  173SAPS   C3219647   4.876   3.604   2.679 -0.8715 -0.1806  0.2554
  173SAPS   H2X19648   4.858   3.536   2.594  0.6021  1.5183 -1.4616
  173SAPS   H2Y19649   4.793   3.583   2.750 -0.4602 -2.6201  0.0569
  173SAPS   C2319650   5.016   4.204   2.741 -1.2812  0.2606 -0.1318
  173SAPS   H3R19651   4.968   4.133   2.812  2.1615 -0.7880  1.2701
  173SAPS   H3S19652   4.947   4.289   2.727 -1.2787  0.3061  0.1358
  173SAPS   C2419653   5.136   4.266   2.820 -0.2237  0.2734  0.4362
  173SAPS   H4R19654   5.084   4.324   2.900  0.4025  0.8550  0.4215
  173SAPS   H4S19655   5.196   4.329   2.751 -0.9352  1.1466  0.5891
  173SAPS   C2519656   5.216   4.148   2.875  0.2503  0.6111 -0.2788
  173SAPS   H5R19657   5.273   4.089   2.802  0.3346 -0.1852  0.4249
  173SAPS   C2619658   5.214   4.118   3.005  0.8595 -0.3500 -0.1604
  173SAPS   H6R19659   5.268   4.026   3.034 -1.2048 -1.2271  1.0623
  173SAPS   C2719660   5.128   4.184   3.108 -0.3398 -0.3527  0.2585
  173SAPS   H7R19661   5.020   4.159   3.107  0.0065 -1.9161 -2.5843
  173SAPS   H7S19662   5.130   4.293   3.090  2.0761 -0.4045  0.1064
  173SAPS   C2819663   5.188   4.159   3.245 -0.3196 -0.3323  0.7321
  173SAPS   H8R19664   5.298   4.162   3.250 -0.2704  1.5820 -0.8567
  173SAPS   C2919665   5.108   4.120   3.348 -0.2631 -0.1950 -0.2739
  173SAPS   H9R19666   5.155   4.115   3.447  0.1628  0.7412 -0.4220
  173SAPS  C21019667   4.961   4.101   3.353  0.1941  0.4268  0.2428
  173SAPS  H10R19668   4.900   4.138   3.268  2.4012 -0.0789 -1.6200
  173SAPS  H10S19669   4.923   4.155   3.442  0.8354  1.3438 -0.0227
  173SAPS  C21119670   4.930   3.953   3.356 -0.8132 -0.2592 -0.1803
  173SAPS  H11R19671   4.980   3.907   3.442  0.3096 -0.3024 -0.8378
  173SAPS  C21219672   4.849   3.884   3.273  0.4125 -0.2930  0.0646
  173SAPS  H12R19673   4.834   3.778   3.299 -0.5293  0.4547  2.6836
  173SAPS  C21319674   4.773   3.932   3.152 -0.4412 -0.0334  0.7854
  173SAPS  H13R19675   4.834   4.011   3.102  0.5209 -1.4198 -0.2551
  173SAPS  H13S19676   4.680   3.981   3.189  0.4383 -0.7160  4.0744
  173SAPS  C21419677   4.740   3.815   3.066 -0.0759 -0.2879  0.0274
  173SAPS  H14R19678   4.809   3.798   2.982 -1.1229  0.9423 -1.1058
  173SAPS  C21519679   4.622   3.746   3.057  0.8083 -0.6322 -0.5975
  173SAPS  H15R19680   4.613   3.653   2.999  2.3632 -0.1285 -1.6811
  173SAPS  C21619681   4.501   3.772   3.141 -0.4096  0.3160  0.1031
  173SAPS  H16R19682   4.518   3.850   3.218 -0.2532  0.6254 -0.2417
  173SAPS  H16S19683   4.485   3.681   3.203  2.4818 -1.3438 -1.4788
  173SAPS  C21719684   4.384   3.788   3.050  0.3914  0.2887  0.2204
  173SAPS  H17R19685   4.375   3.699   2.985 -1.7532  2.0068 -1.9108
  173SAPS  H17S19686   4.401   3.877   2.987  0.2782  0.1619  0.0078
  173SAPS  C21819687   4.243   3.788   3.123 -0.4381 -0.1813  0.3202
  173SAPS  H18R19688   4.236   3.875   3.193  1.4635  0.0635  0.2569
  173SAPS  H18S19689   4.249   3.689   3.173  1.7058 -1.4643 -2.3501
  173SAPS  C21919690   4.118   3.767   3.037 -0.5002  0.1734 -0.9413
  173SAPS  H19R19691   4.138   3.687   2.963 -0.4022  0.5742 -1.3509
  173SAPS  H19S19692   4.096   3.854   2.970 -0.3681 -0.1267 -1.3797
  173SAPS  C22019693   3.997   3.735   3.127  0.3353  0.1074 -0.4277
  173SAPS  H20R19694   3.989   3.810   3.209  1.8605  0.7169 -0.8169
  173SAPS  H20S19695   4.022   3.641   3.180 -0.9566 -0.5555 -0.9684
  173SAPS  H20T19696   3.906   3.725   3.064 -1.2193 -1.1419  1.9456
  173SAPS   C3319697   5.022   3.566   2.737  1.0658  0.2043  0.0242
  173SAPS   H3X19698   5.085   3.609   2.657  1.3819  0.2568  0.3012
  173SAPS   H3Y19699   5.036   3.456   2.723 -2.8857 -0.1655 -1.6011
  173SAPS   C3419700   5.045   3.580   2.890 -0.1962 -0.3166 -0.8349
  173SAPS   H4X19701   5.044   3.685   2.926 -1.7700 -0.5847 -0.0370
  173SAPS   H4Y19702   5.141   3.532   2.918 -0.8722 -0.5769  1.1152
  173SAPS   C3519703   4.946   3.498   2.972  0.1271 -0.1628  0.7956
  173SAPS   H5X19704   4.945   3.394   2.934 -1.3336 -1.0035  2.9835
  173SAPS   H5Y19705   4.847   3.544   2.950  0.4913  0.0202 -0.4926
  173SAPS   C3619706   4.952   3.514   3.120 -0.3621 -0.2430  0.2018
  173SAPS   H6X19707   4.969   3.622   3.140  2.2463 -0.2680 -1.6811
  173SAPS   H6Y19708   5.048   3.465   3.149 -0.6700 -0.6259  0.5906
  173SAPS   C3719709   4.849   3.436   3.201  0.4200  0.2376  0.3141
  173SAPS   H7X19710   4.856   3.327   3.179 -0.5467  0.2508 -0.1030
  173SAPS   H7Y19711   4.748   3.470   3.168 -0.5675 -2.0757  0.8521
  173SAPS   C3819712   4.848   3.451   3.350  0.4487 -0.0855  0.7327
  173SAPS   H8X19713   4.842   3.556   3.386 -0.3126 -0.6939  2.4754
  173SAPS   H8Y19714   4.938   3.404   3.397  0.9765  0.9887  0.8048
  173SAPS   C3919715   4.728   3.372   3.409  0.2549  0.4367 -0.4679
  173SAPS   H9X19716   4.725   3.267   3.374  1.7733  0.7475 -1.5961
  173SAPS   H9Y19717   4.639   3.430   3.377 -0.3244  1.5284  2.8920
  173SAPS  C31019718   4.727   3.369   3.561 -0.0761  0.0269 -0.2952
  173SAPS  H10X19719   4.738   3.474   3.596  1.5080  0.0681 -0.8799
  173SAPS  H10Y19720   4.820   3.313   3.586 -0.7523 -0.7689  0.5150
  173SAPS  C31119721   4.603   3.298   3.623 -0.7343 -0.0297  0.2158
  173SAPS  H11X19722   4.567   3.226   3.547 -0.2579 -1.7667  1.6063
  173SAPS  H11Y19723   4.528   3.379   3.641 -1.5423 -1.2698  2.6100
  173SAPS  C31219724   4.614   3.213   3.750 -0.4885  0.1725  0.0607
  173SAPS  H12X19725   4.656   3.273   3.834  1.7317  0.9534 -1.5657
  173SAPS  H12Y19726   4.679   3.126   3.727  1.0823  0.6845  2.3861
  173SAPS  C31319727   4.477   3.164   3.787  0.2518 -0.2824  0.0372
  173SAPS  H13X19728   4.436   3.118   3.695  2.1532 -0.7498 -0.6017
  173SAPS  H13Y19729   4.408   3.248   3.811 -0.3194 -0.5295 -0.7275
  173SAPS  C31419730   4.478   3.055   3.896  0.1077  0.3126  1.1091
  173SAPS  H14X19731   4.543   2.974   3.856 -0.0586 -0.4793  2.4120
  173SAPS  H14Y19732   4.378   3.008   3.909 -0.2354 -0.2876 -2.8871
  173SAPS  C31519733   4.520   3.096   4.037 -0.3795 -0.3961  0.1409
  173SAPS  H15X19734   4.453   3.179   4.066 -0.8875 -1.2277  1.3726
  173SAPS  H15Y19735   4.627   3.125   4.033 -0.1463 -1.0925  1.2211
  173SAPS  C31619736   4.508   2.979   4.140 -0.5985  0.0278  0.3657
  173SAPS  H16X19737   4.577   2.895   4.119 -0.6382 -0.0368  0.4970
  173SAPS  H16Y19738   4.404   2.941   4.134 -1.3435  1.8823  1.1741
  173SAPS  C31719739   4.530   3.040   4.277 -0.5718 -0.4767  0.2117
  173SAPS  H17X19740   4.458   3.121   4.303 -0.5563  0.6486 -3.0345
  173SAPS  H17Y19741   4.628   3.092   4.282 -0.0187 -1.3415 -1.6177
  173SAPS  C31819742   4.533   2.932   4.381  0.1372 -0.3185 -0.9029
  173SAPS  H18X19743   4.440   2.871   4.382  1.3582 -2.2289  0.2770
  173SAPS  H18Y19744   4.547   2.957   4.488  0.3237  0.3532 -1.0805
  173SAPS  H18Z19745   4.617   2.860   4.365 -0.1048 -0.6299 -0.7622
  174SAPS     N19746   1.775   3.449   2.219  0.4459 -0.3734 -0.3805
  174SAPS   HN119747   1.697   3.510   2.186  1.2633 -0.9699 -3.6179
  174SAPS   HN219748   1.762   3.427   2.319 -0.2689 -2.9234 -1.0069
  174SAPS   HN319749   1.863   3.503   2.204  0.8185 -1.4502 -2.3209
  174SAPS   C1219750   1.773   3.319   2.150 -0.3993 -0.2326  0.6029
  174SAPS  H12A19751   1.748   3.347   2.049  0.0958  0.6790  0.7232
  174SAPS   C1319752   1.907   3.241   2.153 -0.5983  0.2952 -0.8991
  174SAPS  O13A19753   2.002   3.288   2.217  0.3180  0.3566 -0.0668
  174SAPS  O13B19754   1.912   3.123   2.097  0.0814  0.4342  0.1273
  174SAPS   C1119755   1.670   3.224   2.208 -0.5046 -0.0018  0.2150
  174SAPS  H11A19756   1.685   3.200   2.315  1.3051  3.5338  0.8343
  174SAPS  H11B19757   1.677   3.128   2.153  0.1514 -0.2558  0.7395
  174SAPS     P19758   1.401   3.217   2.228  0.2086  0.1763  0.1706
  174SAPS   O1319759   1.298   3.312   2.271  0.0312 -0.0704  0.2096
  174SAPS   O1419760   1.374   3.130   2.115  0.1823 -0.1784  0.1689
  174SAPS   O1219761   1.539   3.289   2.195 -0.2531 -0.0899 -0.4525
  174SAPS   O1119762   1.446   3.116   2.338 -0.1674  0.0735  0.2512
  174SAPS    C119763   1.450   2.977   2.336 -1.0383 -0.0346 -0.1076
  174SAPS    HA19764   1.350   2.936   2.309  0.0728 -3.4794  0.6431
  174SAPS    HB19765   1.525   2.947   2.259 -0.2732 -0.8153  0.9116
  174SAPS    C219766   1.485   2.915   2.478 -0.2559  0.9263  0.4858
  174SAPS    HS19767   1.453   2.809   2.486  1.1302  0.4208 -0.4609
  174SAPS   O2119768   1.436   2.995   2.584  0.5000 -0.2878  0.3929
  174SAPS   C2119769   1.298   2.987   2.584 -0.0146  0.4889  0.2209
  174SAPS   O2219770   1.233   2.905   2.523  0.0856 -0.0892 -0.2250
  174SAPS   C2219771   1.243   3.090   2.677  0.3709  0.2889  0.2013
  174SAPS   H2R19772   1.135   3.073   2.693  0.0894  0.8524 -1.0096
  174SAPS   H2S19773   1.279   3.071   2.780 -0.7206  0.5197  0.6357
  174SAPS    C319774   1.642   2.910   2.493 -0.4150 -0.5658 -0.7517
  174SAPS    HX19775   1.687   3.011   2.495  0.3511 -0.8887 -1.3568
  174SAPS    HY19776   1.683   2.868   2.398 -0.5861 -1.6618 -0.3546
  174SAPS   O3119777   1.685   2.822   2.603  0.2644 -0.0699 -1.0094
  174SAPS   C3119778   1.812   2.840   2.631  0.0506  0.7553  1.1516
  174SAPS   O3219779   1.902   2.884   2.559 -0.7361 -0.4226  0.2424
  174SAPS   C3219780   1.836   2.791   2.772 -0.6776  0.2268  0.0260
  174SAPS   H2X19781   1.791   2.864   2.842  0.1956  2.9365 -2.1343
  174SAPS   H2Y19782   1.947   2.787   2.783 -0.8169  0.6121  1.5809
  174SAPS   C2319783   1.266   3.233   2.647 -0.0545  0.7367 -0.8607
  174SAPS   H3R19784   1.257   3.247   2.537 -1.9638 -1.6582 -1.0567
  174SAPS   H3S19785   1.370   3.262   2.672 -0.6250  0.7005  1.6301
  174SAPS   C2419786   1.179   3.333   2.726  0.6255 -0.3958 -0.8531
  174SAPS   H4R19787   1.200   3.330   2.835  0.4542  0.1000 -0.8066
  174SAPS   H4S19788   1.072   3.310   2.705  0.5859  0.5458 -1.7169
  174SAPS   C2519789   1.200   3.479   2.684 -0.1600 -0.2966  0.1175
  174SAPS   H5R19790   1.170   3.508   2.582 -0.8753 -1.9670 -0.1791
  174SAPS   C2619791   1.251   3.580   2.764 -0.3959  0.0365  0.0085
  174SAPS   H6R19792   1.275   3.683   2.736  1.9786 -0.5920 -0.3781
  174SAPS   C2719793   1.304   3.564   2.901  0.7427 -0.2881  0.4297
  174SAPS   H7R19794   1.402   3.617   2.901 -0.1384  1.4105 -1.5240
  174SAPS   H7S19795   1.322   3.458   2.929  1.4261  0.2082  1.9015
  174SAPS   C2819796   1.221   3.637   3.005  0.6023  0.1222  0.1951
  174SAPS   H8R19797   1.113   3.637   2.988  0.5272 -1.6389  0.5249
  174SAPS   C2919798   1.266   3.715   3.106  0.2626 -0.2456 -0.3914
  174SAPS   H9R19799   1.192   3.766   3.169  1.2460 -0.3972  0.8996
  174SAPS  C21019800   1.412   3.743   3.140 -0.0399  0.4771 -0.1244
  174SAPS  H10R19801   1.393   3.804   3.231  0.1106  0.9839 -0.4297
  174SAPS  H10S19802   1.455   3.814   3.066  2.1067 -1.5705 -0.8754
  174SAPS  C21119803   1.497   3.627   3.165  0.2482  0.5824 -0.8013
  174SAPS  H11R19804   1.506   3.550   3.086  0.5135  0.9272 -1.1107
  174SAPS  C21219805   1.563   3.594   3.281  0.3203 -0.1721  0.4930
  174SAPS  H12R19806   1.636   3.511   3.284 -0.5077 -0.8889  1.1062
  174SAPS  C21319807   1.562   3.676   3.408 -0.8795 -0.1935 -0.7327
  174SAPS  H13R19808   1.541   3.785   3.399 -0.6680 -0.0609  0.3788
  174SAPS  H13S19809   1.664   3.666   3.449 -1.0968  1.1011  0.1799
  174SAPS  C21419810   1.478   3.616   3.514  0.2040  0.3936  0.5587
  174SAPS  H14R19811   1.371   3.636   3.500  1.0229  2.5324 -3.2258
  174SAPS  C21519812   1.506   3.523   3.614  0.3389 -0.3904 -0.0759
  174SAPS  H15R19813   1.419   3.487   3.672 -1.1203  2.4125 -0.4116
  174SAPS  C21619814   1.637   3.459   3.657  0.1527 -0.4748  0.1519
  174SAPS  H16R19815   1.713   3.465   3.576 -1.0501  1.4815 -0.8580
  174SAPS  H16S19816   1.605   3.356   3.683 -0.4162 -0.2826  0.2180
  174SAPS  C21719817   1.704   3.535   3.776  0.2538  0.1050  0.8100
  174SAPS  H17R19818   1.744   3.628   3.730 -0.3281  0.5736  1.2325
  174SAPS  H17S19819   1.790   3.478   3.816 -0.0053 -0.6604  0.2873
  174SAPS  C21819820   1.615   3.581   3.889 -0.2819  0.2950 -0.2339
  174SAPS  H18R19821   1.572   3.490   3.935  0.1593  0.4972  0.5931
  174SAPS  H18S19822   1.526   3.639   3.857 -1.0299  0.1762  1.5333
  174SAPS  C21919823   1.689   3.669   3.990  0.1144  0.4315  0.0376
  174SAPS  H19R19824   1.781   3.612   4.015  0.1957  0.7398  0.4531
  174SAPS  H19S19825   1.617   3.682   4.074 -1.8615 -0.6952 -1.4386
  174SAPS  C22019826   1.740   3.805   3.937  0.1468 -0.3009 -0.2992
  174SAPS  H20R19827   1.806   3.844   4.016  0.1243  0.2642 -0.5594
  174SAPS  H20S19828   1.663   3.877   3.903  1.0233  0.0845 -1.4880
  174SAPS  H20T19829   1.809   3.798   3.850  0.5488  1.9401 -0.1734
  174SAPS   C3319830   1.774   2.654   2.796  0.4476 -0.2293 -0.2987
  174SAPS   H3X19831   1.814   2.577   2.726 -1.9159 -1.1563 -0.6817
  174SAPS   H3Y19832   1.668   2.651   2.763  1.0717  0.5428 -2.4797
  174SAPS   C3419833   1.793   2.604   2.937  1.0475 -0.9214 -0.1944
  174SAPS   H4X19834   1.753   2.500   2.939  0.3272 -0.7230 -2.2953
  174SAPS   H4Y19835   1.726   2.662   3.004  2.2051  2.2264 -1.6413
  174SAPS   C3519836   1.932   2.604   2.999  0.0093 -0.1926 -0.3845
  174SAPS   H5X19837   1.969   2.708   3.013 -1.2935  0.2032  0.1925
  174SAPS   H5Y19838   2.007   2.555   2.933  1.4356  1.7257 -0.2249
  174SAPS   C3619839   1.944   2.529   3.127 -0.3384  0.4515 -0.0907
  174SAPS   H6X19840   2.054   2.533   3.143  0.4232 -0.7858 -4.5770
  174SAPS   H6Y19841   1.907   2.425   3.118 -2.2078  1.0090  0.8949
  174SAPS   C3719842   1.877   2.597   3.247 -0.3648 -0.9012  0.0434
  174SAPS   H7X19843   1.769   2.578   3.261  0.1773 -2.1037  2.9303
  174SAPS   H7Y19844   1.885   2.708   3.241  2.4396 -1.0503  0.4196
  174SAPS   C3819845   1.946   2.567   3.383 -0.2621  0.1689 -0.8195
  174SAPS   H8X19846   2.051   2.602   3.380 -0.4728  0.6846 -3.0840
  174SAPS   H8Y19847   1.952   2.458   3.405 -0.0309  0.5331  0.9437
  174SAPS   C3919848   1.861   2.633   3.495 -0.0221  0.6729  0.6057
  174SAPS   H9X19849   1.756   2.597   3.492  1.1530 -2.9404 -0.3221
  174SAPS   H9Y19850   1.859   2.744   3.493  0.3906  0.6562 -0.7366
  174SAPS  C31019851   1.909   2.585   3.634  0.2718 -0.0056 -0.7186
  174SAPS  H10X19852   2.018   2.602   3.629  0.3989 -0.8164 -0.7976
  174SAPS  H10Y19853   1.897   2.475   3.637  2.0695 -0.1824  0.2698
  174SAPS  C31119854   1.842   2.651   3.754  0.1462 -0.0486  0.4213
  174SAPS  H11X19855   1.737   2.617   3.758  0.1230  0.0718  0.9834
  174SAPS  H11Y19856   1.856   2.762   3.755 -3.1245  0.3935  1.5393
  174SAPS  C31219857   1.920   2.617   3.874  0.1669 -0.3918  0.0300
  174SAPS  H12X19858   2.026   2.644   3.856 -0.6236  1.9223 -1.2477
  174SAPS  H12Y19859   1.908   2.509   3.901 -0.4549  0.2438  2.4338
  174SAPS  C31319860   1.879   2.690   4.000  0.2223  0.2470 -0.3264
  174SAPS  H13X19861   1.771   2.669   4.020  0.6594  1.8926  4.3332
  174SAPS  H13Y19862   1.889   2.801   3.994  2.5499 -0.0052 -1.4751
  174SAPS  C31419863   1.973   2.659   4.123  0.0925 -0.0129  0.2715
  174SAPS  H14X19864   2.058   2.726   4.096 -0.5677 -0.1681 -2.3812
  174SAPS  H14Y19865   2.004   2.553   4.126 -0.2847 -0.1488 -0.4343
  174SAPS  C31519866   1.916   2.688   4.264 -0.0433  0.6952  0.5401
  174SAPS  H15X19867   1.997   2.659   4.334  0.4301  0.1273 -0.2291
  174SAPS  H15Y19868   1.831   2.619   4.280  0.4629 -0.3253 -1.0363
  174SAPS  C31619869   1.858   2.824   4.296 -0.0967  0.0302  0.8508
  174SAPS  H16X19870   1.769   2.851   4.234  0.5956 -0.0423 -0.1839
  174SAPS  H16Y19871   1.935   2.898   4.267  0.7087 -1.1074  0.0365
  174SAPS  C31719872   1.834   2.844   4.449 -0.3567  0.7101  0.2718
  174SAPS  H17X19873   1.819   2.744   4.494 -0.1164  1.1375  1.3139
  174SAPS  H17Y19874   1.741   2.904   4.462  0.8394  2.0290  3.1543
  174SAPS  C31819875   1.948   2.913   4.516 -0.3117  0.1538  0.2833
  174SAPS  H18X19876   2.044   2.866   4.486 -1.3806 -0.7523 -1.8399
  174SAPS  H18Y19877   1.935   2.928   4.626  3.9091  4.2705  0.3748
  174SAPS  H18Z19878   1.961   3.015   4.473 -3.9454 -0.9401 -3.8019
  175SAPS     N19879   5.289   2.025   2.361  0.3908  0.2083 -0.6232
  175SAPS   HN119880   5.185   2.022   2.370  0.3276 -0.8691 -1.6740
  175SAPS   HN219881   5.323   1.927   2.366 -0.6878 -0.1579 -0.3320
  175SAPS   HN319882   5.322   2.093   2.433 -0.4607 -0.5203  0.4916
  175SAPS   C1219883   5.316   2.093   2.234 -0.5758 -0.2791 -0.7844
  175SAPS  H12A19884   5.416   2.068   2.203 -1.6566 -1.7534 -3.2336
  175SAPS   C1319885   5.231   2.036   2.116  0.1694 -0.2616  0.7516
  175SAPS  O13A19886   5.132   1.973   2.150 -0.0136  0.2642 -1.0619
  175SAPS  O13B19887   5.248   2.085   2.006  0.8560  0.0367  0.3549
  175SAPS   C1119888   5.308   2.249   2.262  0.2282 -0.2944  0.2713
  175SAPS  H11A19889   5.200   2.266   2.280 -0.2171 -3.1412  0.5857
  175SAPS  H11B19890   5.331   2.309   2.172 -0.0370 -2.6610 -1.4317
  175SAPS     P19891   5.376   2.415   2.447  0.0954  0.0728  0.1057
  175SAPS   O1319892   5.481   2.436   2.548  0.1027 -0.0045  0.3790
  175SAPS   O1419893   5.349   2.514   2.346 -0.0268  0.3580 -0.1098
  175SAPS   O1219894   5.396   2.281   2.377  0.2335 -0.5795 -0.1576
  175SAPS   O1119895   5.240   2.378   2.520 -0.2447  0.2114  0.4849
  175SAPS    C119896   5.250   2.334   2.654 -0.1923 -0.3329  0.6180
  175SAPS    HA19897   5.320   2.247   2.661  0.5888  0.2206 -0.1783
  175SAPS    HB19898   5.303   2.407   2.719  0.6637 -0.5869  0.2136
  175SAPS    C219899   5.122   2.294   2.721  0.2209 -0.5989 -0.6026
  175SAPS    HS19900   5.058   2.384   2.711  1.3627  0.3673  0.6041
  175SAPS   O2119901   5.150   2.269   2.859 -0.0674  0.2423 -0.0681
  175SAPS   C2119902   5.031   2.261   2.928 -0.3442  0.8463 -0.1231
  175SAPS   O2219903   4.920   2.281   2.884  0.1341  0.1254 -0.4616
  175SAPS   C2219904   5.058   2.203   3.071 -0.2468  0.7359 -0.3382
  175SAPS   H2R19905   5.022   2.098   3.058  1.1371  0.2082 -0.0896
  175SAPS   H2S19906   5.168   2.204   3.086 -0.1290 -3.7119 -0.0598
  175SAPS    C319907   5.061   2.177   2.640 -0.6268 -0.0388 -0.8405
  175SAPS    HX19908   5.050   2.206   2.533  0.1913 -4.1561 -2.1361
  175SAPS    HY19909   4.956   2.161   2.674  0.0055  0.6018  1.4645
  175SAPS   O3119910   5.149   2.065   2.656  0.1220  0.2668  0.4479
  175SAPS   C3119911   5.107   1.984   2.751 -0.1403 -0.0453  0.2251
  175SAPS   O3219912   5.006   1.990   2.815  0.2635  0.1861  0.2427
  175SAPS   C3219913   5.216   1.874   2.773 -0.1998 -0.7603 -0.3531
  175SAPS   H2X19914   5.297   1.883   2.698  0.5418  1.4381  0.6934
  175SAPS   H2Y19915   5.159   1.781   2.751 -1.1507 -0.6641  1.6199
  175SAPS   C2319916   4.979   2.272   3.191 -0.3969  0.2283  0.4257
  175SAPS   H3R19917   4.875   2.288   3.155 -0.0253  0.6454 -0.4829
  175SAPS   H3S19918   5.023   2.374   3.203 -0.5904  0.8439 -3.3496
  175SAPS   C2419919   4.989   2.195   3.333  0.1944 -0.3425  0.4950
  175SAPS   H4R19920   4.904   2.125   3.321  0.4031 -0.4224 -0.6053
  175SAPS   H4S19921   4.975   2.267   3.416  0.5358 -0.1234  0.3676
  175SAPS   C2519922   5.119   2.118   3.353 -0.5581 -0.3866 -0.0918
  175SAPS   H5R19923   5.179   2.089   3.266 -0.3582 -2.8671  0.8350
  175SAPS   C2619924   5.170   2.082   3.478 -0.5403  0.3149  0.1704
  175SAPS   H6R19925   5.263   2.023   3.481 -0.3258  0.6419  0.0742
  175SAPS   C2719926   5.108   2.101   3.617  0.0986  0.4104  0.6531
  175SAPS   H7R19927   5.053   2.007   3.639  1.6531 -0.7602 -0.3897
  175SAPS   H7S19928   5.032   2.183   3.625 -0.8391 -0.3391 -0.3179
  175SAPS   C2819929   5.206   2.135   3.729 -0.0472 -0.6124  0.0705
  175SAPS   H8R19930   5.284   2.205   3.696  0.1070 -0.2570  1.1434
  175SAPS   C2919931   5.223   2.084   3.851  0.2241 -0.3148  1.0789
  175SAPS   H9R19932   5.297   2.122   3.924 -0.3781 -0.3304  1.7026
  175SAPS  C21019933   5.136   1.977   3.913  0.4665 -0.0187  0.2462
  175SAPS  H10R19934   5.031   1.975   3.877  0.1864 -1.8146  1.1219
  175SAPS  H10S19935   5.132   2.000   4.022 -1.5869  0.8346  0.0130
  175SAPS  C21119936   5.207   1.845   3.885  0.4099 -0.6778  0.1609
  175SAPS  H11R19937   5.192   1.805   3.784  0.5166 -0.9087  0.2365
  175SAPS  C21219938   5.274   1.769   3.977 -0.4930 -0.3836 -0.2680
  175SAPS  H12R19939   5.346   1.696   3.937 -1.3296 -1.6371  0.4782
  175SAPS  C21319940   5.301   1.784   4.124 -0.2577  0.4105  0.3831
  175SAPS  H13R19941   5.217   1.752   4.189 -0.8180 -0.4375 -0.7432
  175SAPS  H13S19942   5.300   1.891   4.155 -0.9842  1.2102 -2.2528
  175SAPS  C21419943   5.429   1.720   4.163 -0.1007 -0.0795  0.5497
  175SAPS  H14R19944   5.488   1.670   4.086 -0.9885  1.5529 -1.2466
  175SAPS  C21519945   5.479   1.724   4.286 -0.7854 -0.3588  0.3791
  175SAPS  H15R19946   5.575   1.672   4.299 -1.4520 -1.9812 -1.0397
  175SAPS  C21619947   5.413   1.785   4.408  0.1335  0.3103 -0.0151
  175SAPS  H16R19948   5.407   1.705   4.484 -0.1677  1.3763  1.1014
  175SAPS  H16S19949   5.305   1.812   4.403  0.6139  2.5252  1.0298
  175SAPS  C21719950   5.505   1.909   4.454  0.0582 -0.3007  0.4043
  175SAPS  H17R19951   5.606   1.864   4.443 -0.2767 -1.2215  0.9792
  175SAPS  H17S19952   5.487   1.936   4.560 -0.9986  2.2483 -0.3898
  175SAPS  C21819953   5.504   2.042   4.372  0.0950  0.0808  0.6057
  175SAPS  H18R19954   5.536   2.025   4.268  0.1377 -2.2730  0.9859
  175SAPS  H18S19955   5.587   2.101   4.417  0.2869  0.5013 -0.2956
  175SAPS  C21919956   5.371   2.116   4.368 -0.0083 -0.2952  0.3462
  175SAPS  H19R19957   5.301   2.067   4.297  1.1099 -0.7694 -0.4367
  175SAPS  H19S19958   5.400   2.216   4.330 -0.0121 -0.5636 -0.3713
  175SAPS  C22019959   5.304   2.131   4.509 -0.0834 -0.2612  0.0792
  175SAPS  H20R19960   5.255   2.040   4.550 -0.9372  0.1093 -0.1128
  175SAPS  H20S19961   5.227   2.211   4.515 -0.2105 -0.5616  2.6162
  175SAPS  H20T19962   5.386   2.154   4.580 -0.7420  2.4538  0.0159
  175SAPS   C3319963   5.272   1.885   2.913  0.2315 -0.6382  0.2461
  175SAPS   H3X19964   5.193   1.917   2.983  0.3067  0.1921 -0.0485
  175SAPS   H3Y19965   5.353   1.959   2.930 -0.0006 -0.3227 -0.0182
  175SAPS   C3419966   5.335   1.747   2.959  0.1314  0.0264 -0.8284
  175SAPS   H4X19967   5.402   1.764   3.047 -0.0842 -0.7768 -0.5085
  175SAPS   H4Y19968   5.404   1.715   2.878  3.1625  1.9353  0.8905
  175SAPS   C3519969   5.243   1.629   2.995  0.0827 -1.1310 -0.1102
  175SAPS   H5X19970   5.161   1.618   2.920 -1.4254  1.2557  1.1113
  175SAPS   H5Y19971   5.188   1.652   3.089  0.2744  2.3304 -0.7774
  175SAPS   C3619972   5.313   1.496   3.034  0.1693 -0.2863  0.3956
  175SAPS   H6X19973   5.350   1.455   2.938 -0.7440  1.1220 -0.5873
  175SAPS   H6Y19974   5.236   1.426   3.073 -2.3332  2.4049  0.4723
  175SAPS   C3719975   5.428   1.504   3.136 -0.5732 -0.0288  0.3820
  175SAPS   H7X19976   5.396   1.537   3.237  0.3444  0.7469  0.4260
  175SAPS   H7Y19977   5.502   1.578   3.099  0.2442 -0.9858  0.0783
  175SAPS   C3819978   5.504   1.368   3.145  0.5645  0.6076  0.2559
  175SAPS   H8X19979   5.565   1.348   3.054  1.8420 -3.2058  1.8503
  175SAPS   H8Y19980   5.437   1.280   3.147  0.1245  0.8864 -1.4747
  175SAPS   C3919981   5.597   1.371   3.265 -0.1594  0.8691 -0.0405
  175SAPS   H9X19982   5.540   1.371   3.360  0.2544 -0.6815  0.2090
  175SAPS   H9Y19983   5.670   1.455   3.269  1.0414 -0.0733 -1.6540
  175SAPS  C31019984   5.677   1.238   3.269  0.1299  1.2848  0.4026
  175SAPS  H10X19985   5.755   1.235   3.189  0.4069 -2.8554  0.7387
  175SAPS  H10Y19986   5.602   1.158   3.252 -0.5420  1.8711  0.5662
  175SAPS  C31119987   5.750   1.207   3.403  0.1669 -0.4804 -0.0773
  175SAPS  H11X19988   5.672   1.198   3.481 -1.6734  3.4457 -1.2923
  175SAPS  H11Y19989   5.824   1.287   3.424 -2.0724  0.9861  2.5021
  175SAPS  C31219990   5.814   1.065   3.388 -0.0525  0.1087 -0.5260
  175SAPS  H12X19991   5.881   1.067   3.300 -0.8694  1.8000 -1.1253
  175SAPS  H12Y19992   5.726   1.001   3.362  0.1436 -0.1671 -0.5128
  175SAPS  C31319993   5.873   0.993   3.515  0.3550  0.2920  0.0436
  175SAPS  H13X19994   5.939   1.069   3.563 -0.2326  1.1741 -0.5359
  175SAPS  H13Y19995   5.934   0.908   3.477  1.7151  1.3875 -0.2615
  175SAPS  C31419996   5.757   0.935   3.609  0.8650 -0.0842  0.6077
  175SAPS  H14X19997   5.713   0.852   3.549  1.9510 -1.3309  1.5165
  175SAPS  H14Y19998   5.681   1.016   3.616 -0.1544 -0.9115 -0.6894
  175SAPS  C31519999   5.804   0.887   3.749  0.1870 -0.2262  0.4840
  175SAPS  H15X20000   5.836   0.978   3.804 -0.8348  1.3763 -1.5554
  175SAPS  H15Y20001   5.890   0.817   3.748 -0.2966 -0.8242  0.0525
  175SAPS  C31620002   5.691   0.818   3.828  0.0719  0.2859 -0.0105
  175SAPS  H16X20003   5.643   0.736   3.770 -0.8612  2.0191 -1.7630
  175SAPS  H16Y20004   5.616   0.893   3.862 -0.8993  0.3366 -2.1565
  175SAPS  C31720005   5.736   0.760   3.962 -0.1905 -0.4674 -0.1990
  175SAPS  H17X20006   5.801   0.829   4.021  2.1509 -2.7164 -0.0636
  175SAPS  H17Y20007   5.794   0.669   3.936 -2.4411 -1.6581 -1.1965
  175SAPS  C31820008   5.619   0.713   4.049  0.0003  0.9383 -0.3506
  175SAPS  H18X20009   5.652   0.696   4.154  1.2923  0.4689 -0.8202
  175SAPS  H18Y20010   5.581   0.623   3.997  1.5267  0.8315 -1.3367
  175SAPS  H18Z20011   5.538   0.789   4.053  1.1502  2.1521  0.2670
  176SAPS     N20012   3.490   0.985   2.175 -0.1471 -0.2834 -0.5860
  176SAPS   HN120013   3.547   0.963   2.260  0.7378  0.6127 -0.9355
  176SAPS   HN220014   3.475   0.890   2.135  0.0336  0.2305 -1.8842
  176SAPS   HN320015   3.556   1.033   2.111 -0.0441 -1.4089 -1.3381
  176SAPS   C1220016   3.370   1.059   2.210  0.0340 -0.9980 -0.4236
  176SAPS  H12A20017   3.389   1.123   2.294 -0.4864 -0.2153 -0.8974
  176SAPS   C1320018   3.294   1.143   2.103  0.0285 -0.2391  0.3073
  176SAPS  O13A20019   3.352   1.155   1.990  0.8065  0.3141 -0.6054
  176SAPS  O13B20020   3.203   1.218   2.144 -0.3266  0.1092 -0.3489
  176SAPS   C1120021   3.269   0.960   2.276 -0.6921  0.4768  0.8748
  176SAPS  H11A20022   3.175   1.014   2.303 -0.3187 -0.0139  3.2564
  176SAPS  H11B20023   3.311   0.931   2.375 -0.2253  2.7524  1.3719
  176SAPS     P20024   3.301   0.711   2.191  0.0288  0.0174  0.2805
  176SAPS   O1320025   3.208   0.611   2.131 -0.0454  0.0210 -0.2244
  176SAPS   O1420026   3.438   0.722   2.137 -0.0392  0.3480 -0.2587
  176SAPS   O1220027   3.237   0.855   2.181  0.2437 -0.0842  0.3569
  176SAPS   O1120028   3.318   0.683   2.342  0.7212 -0.0350  0.6895
  176SAPS    C120029   3.217   0.656   2.434  0.4513 -0.5789 -0.6125
  176SAPS    HA20030   3.247   0.683   2.538 -1.5370 -0.3407 -0.0797
  176SAPS    HB20031   3.123   0.711   2.410  0.1663 -0.0248  1.6321
  176SAPS    C220032   3.183   0.500   2.430 -0.0441 -0.1588  0.5538
  176SAPS    HS20033   3.131   0.473   2.335 -3.8560  0.2757  2.4283
  176SAPS   O2120034   3.103   0.474   2.546 -0.1859 -0.1286  0.0452
  176SAPS   C2120035   2.973   0.505   2.539  0.5276  0.2471 -0.0484
  176SAPS   O2220036   2.916   0.539   2.435  0.5373  0.0542 -0.1140
  176SAPS   C2220037   2.906   0.506   2.669 -0.2217  0.1815  0.3505
  176SAPS   H2R20038   2.963   0.449   2.745 -0.0417 -1.3212 -0.8888
  176SAPS   H2S20039   2.901   0.610   2.707 -1.2147  0.6917 -1.1434
  176SAPS    C320040   3.307   0.400   2.430 -0.3041  0.7586  0.2191
  176SAPS    HX20041   3.374   0.436   2.349 -0.9648 -2.6060 -1.9312
  176SAPS    HY20042   3.270   0.296   2.411  2.4589 -0.2796  0.2985
  176SAPS   O3120043   3.388   0.410   2.546 -0.3454 -0.3993 -0.0056
  176SAPS   C3120044   3.435   0.291   2.587  0.2439  0.4130  0.5395
  176SAPS   O3220045   3.452   0.197   2.514  0.0477 -0.2496  0.2451
  176SAPS   C3220046   3.456   0.292   2.736 -0.1858 -0.1305  0.1239
  176SAPS   H2X20047   3.434   0.391   2.779  0.1577  0.2398 -0.5339
  176SAPS   H2Y20048   3.565   0.276   2.751 -0.2248  0.5844  1.2145
  176SAPS   C2320049   2.765   0.433   2.666 -0.4582  0.0300  0.4592
  176SAPS   H3R20050   2.791   0.325   2.673 -0.8950  0.0040  1.6658
  176SAPS   H3S20051   2.719   0.439   2.565  0.4056 -2.2669 -0.1170
  176SAPS   C2420052   2.674   0.482   2.781 -1.4710 -0.0752  0.4918
  176SAPS   H4R20053   2.575   0.438   2.755 -2.2722  0.5124  2.4670
  176SAPS   H4S20054   2.635   0.586   2.774 -2.2616 -0.4142 -0.2618
  176SAPS   C2520055   2.707   0.468   2.926  0.0722  0.0720 -0.1733
  176SAPS   H5R20056   2.749   0.370   2.954  0.4206 -0.2609 -1.8415
  176SAPS   C2620057   2.702   0.563   3.022  0.1092  0.2490 -0.1776
  176SAPS   H6R20058   2.743   0.536   3.121 -1.7089 -0.6150  0.3694
  176SAPS   C2720059   2.666   0.707   3.004 -0.1375  0.2500  0.0786
  176SAPS   H7R20060   2.556   0.720   3.007 -0.3534 -1.2652 -0.7366
  176SAPS   H7S20061   2.697   0.745   2.905 -1.6569 -0.9618 -0.8900
  176SAPS   C2820062   2.743   0.787   3.107  0.0992 -0.3681 -0.5052
  176SAPS   H8R20063   2.828   0.831   3.052 -0.8979  1.4484 -0.6435
  176SAPS   C2920064   2.713   0.838   3.229  0.2345  0.1133  0.3575
  176SAPS   H9R20065   2.786   0.898   3.285  1.2229  1.6829 -2.5357
  176SAPS  C21020066   2.577   0.827   3.299  0.1513  0.0956  0.6380
  176SAPS  H10R20067   2.508   0.881   3.231 -0.5875  2.4913  3.1936
  176SAPS  H10S20068   2.588   0.895   3.386  0.3318  0.4117  0.3706
  176SAPS  C21120069   2.534   0.689   3.345 -0.0775  0.2790  0.2998
  176SAPS  H11R20070   2.549   0.621   3.261  0.9696  2.8340 -1.6555
  176SAPS  C21220071   2.471   0.659   3.464  0.2442 -0.6106 -0.8066
  176SAPS  H12R20072   2.433   0.561   3.497  0.5552  0.2292  2.2207
  176SAPS  C21320073   2.445   0.750   3.588 -0.2385  0.0955 -0.0143
  176SAPS  H13R20074   2.337   0.755   3.615 -0.2251  1.4593 -0.2108
  176SAPS  H13S20075   2.476   0.856   3.579  1.1974 -0.1872  1.4329
  176SAPS  C21420076   2.506   0.686   3.712  0.3867  0.2924  0.1014
  176SAPS  H14R20077   2.583   0.610   3.692  0.5457  0.6031 -0.4932
  176SAPS  C21520078   2.497   0.734   3.835  0.1838  0.0663  0.6735
  176SAPS  H15R20079   2.544   0.692   3.925 -1.8814 -1.1308  1.2279
  176SAPS  C21620080   2.407   0.854   3.862 -0.4407  0.1945  1.2767
  176SAPS  H16R20081   2.308   0.808   3.883 -1.7936  3.0958  1.5379
  176SAPS  H16S20082   2.412   0.931   3.782 -0.7384 -2.3778 -1.2703
  176SAPS  C21720083   2.464   0.913   3.992 -0.0085  0.4371 -0.2750
  176SAPS  H17R20084   2.573   0.932   3.978  0.0423 -0.0048 -0.5095
  176SAPS  H17S20085   2.455   0.843   4.078  1.6615  0.4558 -0.0613
  176SAPS  C21820086   2.390   1.044   4.028 -0.0912 -0.2864 -0.3233
  176SAPS  H18R20087   2.283   1.033   4.056 -0.3403  1.4220 -0.5741
  176SAPS  H18S20088   2.383   1.117   3.944  0.1634  0.3617  0.2135
  176SAPS  C21920089   2.464   1.111   4.155  0.4998  0.2425 -0.1975
  176SAPS  H19R20090   2.575   1.108   4.147  0.4565  1.6027 -1.4710
  176SAPS  H19S20091   2.435   1.059   4.249  0.4336  2.7094  1.1634
  176SAPS  C22020092   2.419   1.255   4.184  0.1668 -0.3306  0.3301
  176SAPS  H20R20093   2.458   1.323   4.104 -0.7936 -0.3694 -0.1726
  176SAPS  H20S20094   2.469   1.275   4.281 -2.0908  2.8840  0.9444
  176SAPS  H20T20095   2.309   1.270   4.186 -0.5231 -4.2259 -2.5490
  176SAPS   C3320096   3.383   0.170   2.806 -0.0937 -0.3023  0.4846
  176SAPS   H3X20097   3.418   0.080   2.750 -1.1092  1.1609 -2.5774
  176SAPS   H3Y20098   3.273   0.174   2.797 -0.0228 -1.6342 -1.2519
  176SAPS   C3420099   3.429   0.158   2.955 -0.7049  0.1542  0.4408
  176SAPS   H4X20100   3.539   0.139   2.959 -0.0130  3.9101  0.8571
  176SAPS   H4Y20101   3.381   0.066   2.995  1.2475 -0.5026  1.3252
  176SAPS   C3520102   3.394   0.273   3.048 -0.0639  0.3949  0.7200
  176SAPS   H5X20103   3.286   0.296   3.039 -0.6539 -2.1013  1.0007
  176SAPS   H5Y20104   3.451   0.365   3.024  0.1061  0.8462  2.6951
  176SAPS   C3620105   3.439   0.243   3.197  0.6389 -0.5631  0.5167
  176SAPS   H6X20106   3.535   0.193   3.171  1.4479  1.8882 -1.3400
  176SAPS   H6Y20107   3.368   0.170   3.241  0.3916 -0.6178  0.0334
  176SAPS   C3720108   3.455   0.372   3.275  0.6228 -0.5794  0.1097
  176SAPS   H7X20109   3.351   0.413   3.279  1.0679  0.4980  1.3208
  176SAPS   H7Y20110   3.511   0.455   3.226  0.1361  1.9733  3.6577
  176SAPS   C3820111   3.486   0.350   3.421  0.1582  0.1273  0.2715
  176SAPS   H8X20112   3.574   0.284   3.413  0.1689  0.3076 -1.1672
  176SAPS   H8Y20113   3.409   0.285   3.467 -0.0503  1.1920  1.4567
  176SAPS   C3920114   3.504   0.471   3.509  0.4932 -0.4568 -0.7684
  176SAPS   H9X20115   3.578   0.543   3.468 -0.1161  0.1100 -0.8970
  176SAPS   H9Y20116   3.545   0.442   3.608 -0.9081 -0.9431 -0.3205
  176SAPS  C31020117   3.373   0.554   3.524 -0.3896  0.2686 -0.6869
  176SAPS  H10X20118   3.300   0.488   3.575 -1.7333  0.8506 -1.8219
  176SAPS  H10Y20119   3.342   0.556   3.418  0.6265  2.4403 -0.9728
  176SAPS  C31120120   3.395   0.690   3.596 -0.4167 -0.5342  0.0161
  176SAPS  H11X20121   3.296   0.733   3.625 -0.7978 -2.3735  1.5641
  176SAPS  H11Y20122   3.434   0.760   3.519 -0.2619 -0.6300  0.0072
  176SAPS  C31220123   3.497   0.684   3.710 -0.5381 -0.1229  0.6981
  176SAPS  H12X20124   3.591   0.636   3.674  0.4019  1.9685  0.3352
  176SAPS  H12Y20125   3.448   0.629   3.793  0.8418 -2.7094 -0.1366
  176SAPS  C31320126   3.532   0.821   3.762 -0.4521  0.0327  0.0289
  176SAPS  H13X20127   3.559   0.892   3.682  1.1361  0.4260  0.8914
  176SAPS  H13Y20128   3.622   0.815   3.827 -0.2600 -2.7121 -0.4234
  176SAPS  C31420129   3.421   0.896   3.852  0.4072  0.6065 -0.2823
  176SAPS  H14X20130   3.333   0.921   3.789  0.5954 -0.2983 -0.9147
  176SAPS  H14Y20131   3.448   0.998   3.887  1.5328  0.8077 -1.7180
  176SAPS  C31520132   3.353   0.809   3.970 -0.1299 -0.7551  0.1585
  176SAPS  H15X20133   3.301   0.723   3.924  0.5753 -0.1103 -1.8975
  176SAPS  H15Y20134   3.289   0.874   4.034  0.3530  1.8451 -1.9207
  176SAPS  C31620135   3.462   0.758   4.069 -0.3896  0.4262 -0.5334
  176SAPS  H16X20136   3.548   0.713   4.014  1.5817  1.9655  1.2036
  176SAPS  H16Y20137   3.419   0.672   4.123  0.2967 -0.1433 -0.8854
  176SAPS  C31720138   3.522   0.846   4.172  0.7264 -0.0806  0.1857
  176SAPS  H17X20139   3.560   0.937   4.120 -0.4528 -0.8521 -2.0836
  176SAPS  H17Y20140   3.605   0.790   4.220  2.8645  1.0710 -2.1172
  176SAPS  C31820141   3.435   0.910   4.281  0.6539 -0.4909  0.2039
  176SAPS  H18X20142   3.402   0.841   4.362 -0.7864 -1.6600 -1.3262
  176SAPS  H18Y20143   3.345   0.960   4.239  0.0446 -0.3262  1.6821
  176SAPS  H18Z20144   3.495   0.990   4.327 -2.0262  1.1521  0.9193
  177SAPS     N20145   0.120   2.638   2.390  0.4092  0.7408  0.0462
  177SAPS   HN120146   0.137   2.736   2.420 -0.0140  0.4280  1.3133
  177SAPS   HN220147   0.019   2.613   2.392  0.6209 -0.3480 -1.9055
  177SAPS   HN320148   0.160   2.574   2.462 -0.0020 -0.0502 -0.4186
  177SAPS   C1220149   0.182   2.605   2.260  0.9635  0.1017  0.2537
  177SAPS  H12A20150   0.127   2.655   2.182  0.2669  1.3215  1.4981
  177SAPS   C1320151   0.324   2.648   2.249 -0.7894 -0.1301 -0.5037
  177SAPS  O13A20152   0.389   2.690   2.351  0.1472  0.0777  0.2178
  177SAPS  O13B20153   0.383   2.629   2.142 -0.7014 -0.8919  0.1715
  177SAPS   C1120154   0.158   2.454   2.237  0.6439  0.1032  0.6272
  177SAPS  H11A20155   0.220   2.399   2.312  0.4001 -0.6142  0.3104
  177SAPS  H11B20156   0.199   2.421   2.139  0.9591  0.2596  0.7066
  177SAPS     P20157  -0.027   2.268   2.218  0.2663  0.1172  0.4124
  177SAPS   O1320158  -0.176   2.258   2.246 -0.2452 -0.1712 -0.0314
  177SAPS   O1420159   0.011   2.223   2.078  0.1840  0.7443  0.2565
  177SAPS   O1220160   0.021   2.415   2.255  0.0991  0.1174  0.2989
  177SAPS   O1120161   0.056   2.181   2.322 -0.3668 -0.9478 -0.1660
  177SAPS    C120162   0.032   2.210   2.457 -0.2341  0.0123  0.1765
  177SAPS    HA20163   0.125   2.229   2.514 -0.8474 -0.2491  1.2945
  177SAPS    HB20164  -0.034   2.298   2.472  0.4837  0.4972  0.4656
  177SAPS    C220165  -0.052   2.096   2.518 -0.6031  0.0659  0.5882
  177SAPS    HS20166  -0.137   2.065   2.454  0.3901  0.5331 -0.9603
  177SAPS   O2120167  -0.102   2.131   2.652  0.9921  0.2143  0.1735
  177SAPS   C2120168  -0.205   2.057   2.697  0.4758  0.0476 -0.1958
  177SAPS   O2220169  -0.242   1.954   2.638 -0.4396 -0.1325  0.2187
  177SAPS   C2220170  -0.248   2.108   2.834  0.0002  0.5334 -0.0824
  177SAPS   H2R20171  -0.156   2.112   2.896 -1.1618  2.3444  1.5721
  177SAPS   H2S20172  -0.287   2.212   2.828  0.3557  0.7407  1.1154
  177SAPS    C320173   0.046   1.971   2.540 -0.2297  0.0084 -0.0842
  177SAPS    HX20174   0.074   1.932   2.440 -1.0982  0.6633 -0.5931
  177SAPS    HY20175  -0.023   1.891   2.575 -0.0862  0.1055  0.4248
  177SAPS   O3120176   0.169   2.001   2.615  0.1625  0.0655 -0.3231
  177SAPS   C3120177   0.147   2.002   2.740 -0.0642 -0.1820  0.5031
  177SAPS   O3220178   0.057   1.945   2.801 -0.0061 -0.2274  0.0426
  177SAPS   C3220179   0.249   2.099   2.796  0.2857  0.1829 -0.1685
  177SAPS   H2X20180   0.216   2.201   2.767  1.3624  0.2241 -1.2481
  177SAPS   H2Y20181   0.348   2.092   2.748 -0.4772 -0.5332 -1.6678
  177SAPS   C2320182  -0.363   2.021   2.893 -0.1749  0.0148 -0.4095
  177SAPS   H3R20183  -0.446   2.009   2.820  1.9610 -2.2030 -2.5916
  177SAPS   H3S20184  -0.400   2.091   2.971  0.8788  1.7472 -1.4334
  177SAPS   C2420185  -0.314   1.895   2.968 -0.0682  0.5663  0.1018
  177SAPS   H4R20186  -0.275   1.819   2.896  0.8847  0.3920  0.7885
  177SAPS   H4S20187  -0.406   1.850   3.011  1.3587 -1.2825  1.2755
  177SAPS   C2520188  -0.211   1.908   3.077  0.1147 -0.1609  0.2743
  177SAPS   H5R20189  -0.114   1.933   3.034 -0.3643  0.4586 -0.4617
  177SAPS   C2620190  -0.224   1.870   3.202  0.0597 -0.0209  0.3130
  177SAPS   H6R20191  -0.145   1.892   3.276 -0.7531  0.8959  0.9192
  177SAPS   C2720192  -0.350   1.810   3.267 -0.6358  0.4081  0.7395
  177SAPS   H7R20193  -0.366   1.710   3.221  1.3164 -0.0759  1.0692
  177SAPS   H7S20194  -0.433   1.880   3.242  0.1723  1.1753  0.1720
  177SAPS   C2820195  -0.347   1.796   3.416 -0.1373  0.0963 -0.5558
  177SAPS   H8R20196  -0.279   1.869   3.462  0.9033 -0.8928 -0.4975
  177SAPS   C2920197  -0.426   1.716   3.486  0.0047  0.2003 -0.1862
  177SAPS   H9R20198  -0.424   1.712   3.596  0.6066  1.0004 -0.1616
  177SAPS  C21020199  -0.527   1.623   3.428 -0.3914  0.2088 -0.3083
  177SAPS  H10R20200  -0.520   1.530   3.489 -1.5149 -0.9225 -1.8373
  177SAPS  H10S20201  -0.499   1.589   3.326 -0.0223 -1.1305  0.2218
  177SAPS  C21120202  -0.665   1.684   3.443  0.4800  0.2871 -0.4459
  177SAPS  H11R20203  -0.709   1.730   3.353 -1.2354  0.6390  0.5398
  177SAPS  C21220204  -0.749   1.659   3.545 -0.0569  0.3011 -0.0036
  177SAPS  H12R20205  -0.853   1.695   3.534  0.0259  0.7743  0.7245
  177SAPS  C21320206  -0.725   1.565   3.661 -0.3445  0.3559  0.9362
  177SAPS  H13R20207  -0.621   1.565   3.700  0.3948  2.3025 -0.8999
  177SAPS  H13S20208  -0.749   1.465   3.620 -0.2816  1.0901 -0.9096
  177SAPS  C21420209  -0.817   1.592   3.776 -0.1051 -0.2177 -0.5079
  177SAPS  H14R20210  -0.780   1.683   3.825  0.5617  0.4500 -2.2250
  177SAPS  C21520211  -0.916   1.514   3.824 -0.0765 -0.2993  0.3237
  177SAPS  H15R20212  -0.979   1.551   3.906 -1.6638  0.4376 -1.2067
  177SAPS  C21620213  -0.953   1.378   3.774  0.1617  0.7649 -0.7318
  177SAPS  H16R20214  -0.886   1.325   3.702 -0.8023 -3.7051  1.4556
  177SAPS  H16S20215  -1.054   1.382   3.728 -0.4874 -0.1892  0.5828
  177SAPS  C21720216  -0.953   1.291   3.895  0.0552 -0.2929 -0.6069
  177SAPS  H17R20217  -1.038   1.308   3.964  0.9274  0.1887  0.3586
  177SAPS  H17S20218  -0.862   1.301   3.958 -0.4692  1.7078 -0.1335
  177SAPS  C21820219  -0.961   1.138   3.866  1.2805 -0.6069 -0.0792
  177SAPS  H18R20220  -0.973   1.072   3.955  0.9708  1.2959  1.3442
  177SAPS  H18S20221  -0.859   1.110   3.832  2.6693 -0.6046  3.8410
  177SAPS  C21920222  -1.065   1.104   3.765 -0.1812  0.3007 -0.3184
  177SAPS  H19R20223  -1.040   1.165   3.676 -0.9838  0.9398 -0.1075
  177SAPS  H19S20224  -1.165   1.141   3.795  0.0338  0.9356 -0.3779
  177SAPS  C22020225  -1.095   0.955   3.727  0.2869 -0.1304 -0.1417
  177SAPS  H20R20226  -1.005   0.909   3.680 -0.3712  0.7635 -2.3097
  177SAPS  H20S20227  -1.179   0.951   3.655  1.0002  0.4775 -1.0106
  177SAPS  H20T20228  -1.130   0.897   3.815  1.3321  0.2954  0.5642
  177SAPS   C3320229   0.259   2.075   2.950 -0.3569  0.2197  0.4886
  177SAPS   H3X20230   0.360   2.109   2.979  0.1958 -1.0296  0.0708
  177SAPS   H3Y20231   0.249   1.967   2.976 -0.0715 -0.3046 -1.4771
  177SAPS   C3420232   0.157   2.148   3.032  0.4107  0.6058  0.2930
  177SAPS   H4X20233   0.069   2.080   3.036  1.2387 -0.6298 -1.6216
  177SAPS   H4Y20234   0.118   2.239   2.981 -0.8543 -0.1568 -0.1256
  177SAPS   C3520235   0.199   2.182   3.172  0.6570  0.0414  0.6422
  177SAPS   H5X20236   0.273   2.261   3.150  0.7648  0.2303  1.6320
  177SAPS   H5Y20237   0.236   2.088   3.220  0.0610 -0.9760 -0.8704
  177SAPS   C3620238   0.081   2.251   3.244  0.2092 -0.5535 -0.1196
  177SAPS   H6X20239   0.117   2.262   3.349 -0.2193 -2.3990  0.2397
  177SAPS   H6Y20240  -0.001   2.176   3.246  1.0867 -1.5884 -1.4914
  177SAPS   C3720241   0.039   2.396   3.199 -0.0646  0.9390  0.2498
  177SAPS   H7X20242  -0.021   2.390   3.106 -0.3479 -0.1117  0.4922
  177SAPS   H7Y20243   0.129   2.458   3.178  0.0124  0.4764 -0.8030
  177SAPS   C3820244  -0.032   2.468   3.308 -0.2978 -0.7063  0.2265
  177SAPS   H8X20245   0.030   2.485   3.399  1.7899 -1.1250 -1.0740
  177SAPS   H8Y20246  -0.113   2.403   3.348 -1.9934  1.4928  0.3891
  177SAPS   C3920247  -0.106   2.590   3.270 -0.5066 -0.6216 -0.4006
  177SAPS   H9X20248  -0.183   2.571   3.192 -0.2281  0.3547 -0.9205
  177SAPS   H9Y20249  -0.032   2.662   3.229 -0.5670  0.0191  0.5858
  177SAPS  C31020250  -0.181   2.656   3.388 -0.0438 -0.3552 -0.2754
  177SAPS  H10X20251  -0.226   2.749   3.345 -1.0226 -0.5045  0.4159
  177SAPS  H10Y20252  -0.104   2.686   3.462 -0.1304 -2.2763  0.6062
  177SAPS  C31120253  -0.282   2.575   3.473  0.6674 -0.0836  0.1778
  177SAPS  H11X20254  -0.248   2.479   3.518 -0.8922 -0.8264 -0.1607
  177SAPS  H11Y20255  -0.367   2.547   3.407 -0.1783 -0.7821  1.5259
  177SAPS  C31220256  -0.345   2.662   3.588  0.6064 -0.4515 -0.4229
  177SAPS  H12X20257  -0.383   2.756   3.544 -0.2733 -0.6524 -0.0879
  177SAPS  H12Y20258  -0.265   2.672   3.665  0.1802  1.6069 -0.2335
  177SAPS  C31320259  -0.464   2.581   3.636 -0.1324 -0.0422 -0.2159
  177SAPS  H13X20260  -0.434   2.486   3.685 -1.6534  0.9834  2.8557
  177SAPS  H13Y20261  -0.512   2.539   3.545  2.1475  1.2145 -2.0620
  177SAPS  C31420262  -0.566   2.636   3.730  0.3032  0.7430 -0.1345
  177SAPS  H14X20263  -0.632   2.551   3.756  0.2343  1.2282  1.3358
  177SAPS  H14Y20264  -0.631   2.715   3.687 -1.5839 -2.1548 -2.7905
  177SAPS  C31520265  -0.506   2.685   3.862  0.2800  0.2415  0.3209
  177SAPS  H15X20266  -0.427   2.749   3.817  0.6055 -0.9786 -0.8884
  177SAPS  H15Y20267  -0.468   2.598   3.920 -2.2355 -1.2707 -0.2197
  177SAPS  C31620268  -0.620   2.753   3.942 -0.3978  0.0640  0.7452
  177SAPS  H16X20269  -0.599   2.754   4.052  3.1854 -0.3231  0.1479
  177SAPS  H16Y20270  -0.710   2.690   3.926 -1.0042  0.9919  0.5114
  177SAPS  C31720271  -0.659   2.904   3.913  0.3849  0.3592 -0.0805
  177SAPS  H17X20272  -0.759   2.907   3.865 -1.1155 -0.8570  2.8742
  177SAPS  H17Y20273  -0.581   2.939   3.842  1.2728 -0.5957  0.3964
  177SAPS  C31820274  -0.656   2.978   4.042 -0.1902 -0.2756 -0.2463
  177SAPS  H18X20275  -0.668   3.088   4.036 -0.2391 -0.3560 -1.6945
  177SAPS  H18Y20276  -0.558   2.966   4.092 -0.5204  1.1075  0.7580
  177SAPS  H18Z20277  -0.740   2.947   4.108 -0.4239  1.6087  0.3800
  178SAPS     N20278   4.683   6.859   2.136 -0.3779 -0.4064 -0.0049
  178SAPS   HN120279   4.709   6.788   2.207 -0.2757 -2.5708 -2.1748
  178SAPS   HN220280   4.611   6.926   2.169 -0.2369 -0.3249  0.1404
  178SAPS   HN320281   4.649   6.800   2.057 -1.2362 -2.2130  1.6837
  178SAPS   C1220282   4.790   6.940   2.083  0.1483 -0.5028  0.3288
  178SAPS  H12A20283   4.879   6.878   2.087  1.2900  0.9841 -0.9233
  178SAPS   C1320284   4.782   7.000   1.940 -0.8423 -0.2052 -0.1395
  178SAPS  O13A20285   4.673   6.998   1.878 -0.0281 -0.5728  0.1117
  178SAPS  O13B20286   4.879   7.068   1.904  0.0547  0.0133 -0.2490
  178SAPS   C1120287   4.818   7.062   2.181  0.0287  0.1329  0.2081
  178SAPS  H11A20288   4.723   7.120   2.188 -0.9345 -1.2512 -1.1149
  178SAPS  H11B20289   4.898   7.124   2.135 -0.8550  1.5128  0.4855
  178SAPS     P20290   4.994   6.978   2.348  0.3696 -0.1900 -0.5127
  178SAPS   O1320291   5.014   6.837   2.306  0.1586 -1.0268 -0.1894
  178SAPS   O1420292   5.095   7.072   2.287 -0.0748 -0.6774  0.2420
  178SAPS   O1220293   4.844   7.028   2.314  0.0491  0.3892 -0.3196
  178SAPS   O1120294   5.015   6.986   2.507  0.5848 -0.4292 -0.6451
  178SAPS    C120295   4.982   7.097   2.590 -0.3305  0.3830 -0.3882
  178SAPS    HA20296   4.876   7.125   2.572 -0.3373  0.6837  0.1075
  178SAPS    HB20297   4.985   7.064   2.696 -0.0061  1.3801 -0.0784
  178SAPS    C220298   5.075   7.222   2.587  0.3831  0.6316  0.1904
  178SAPS    HS20299   5.175   7.183   2.557  0.0106  0.2404 -0.5671
  178SAPS   O2120300   5.081   7.282   2.707  0.5971 -0.1687  0.5495
  178SAPS   C2120301   5.194   7.358   2.707 -0.5671  0.3421  0.0244
  178SAPS   O2220302   5.274   7.370   2.617 -0.4348 -0.0804 -0.6254
  178SAPS   C2220303   5.201   7.427   2.844 -0.0220 -0.0301 -0.2119
  178SAPS   H2R20304   5.131   7.513   2.850  1.6219  1.3401 -0.1781
  178SAPS   H2S20305   5.169   7.360   2.927 -4.0068  0.3302 -1.3608
  178SAPS    C320306   5.017   7.325   2.483  0.0078  0.6566 -0.8895
  178SAPS    HX20307   4.990   7.274   2.387  0.0580 -2.3737  0.6622
  178SAPS    HY20308   5.099   7.392   2.449  0.1979  0.6324 -0.4743
  178SAPS   O3120309   4.896   7.397   2.537 -0.3376 -0.3720 -0.0596
  178SAPS   C3120310   4.927   7.516   2.582  0.2945  0.2886  0.5560
  178SAPS   O3220311   5.038   7.560   2.597  0.1248  0.4262 -0.3827
  178SAPS   C3220312   4.799   7.588   2.619  0.8474  0.0373 -0.2257
  178SAPS   H2X20313   4.767   7.648   2.531 -0.6239  0.9043  0.8781
  178SAPS   H2Y20314   4.818   7.657   2.704  0.9975  0.8030 -0.8826
  178SAPS   C2320315   5.344   7.481   2.869  0.1994  0.0687  0.0826
  178SAPS   H3R20316   5.386   7.538   2.783  0.9668  0.6904  0.8612
  178SAPS   H3S20317   5.418   7.398   2.878  0.9651  0.8651  1.1617
  178SAPS   C2420318   5.348   7.572   2.994 -0.3502  1.2283  0.3679
  178SAPS   H4R20319   5.271   7.650   2.975  1.1835  3.0995  1.6208
  178SAPS   H4S20320   5.445   7.621   3.016 -0.8487  2.7311 -0.7132
  178SAPS   C2520321   5.313   7.482   3.113 -1.0605 -0.3015 -0.5171
  178SAPS   H5R20322   5.383   7.399   3.122  2.1249  2.4651  1.4401
  178SAPS   C2620323   5.214   7.498   3.196 -0.7743  0.3623  0.3851
  178SAPS   H6R20324   5.206   7.419   3.272 -3.6652  0.3117  0.0937
  178SAPS   C2720325   5.101   7.607   3.211 -0.1962  0.8722 -0.0834
  178SAPS   H7R20326   5.000   7.563   3.227 -0.0018  0.6003  0.4258
  178SAPS   H7S20327   5.088   7.659   3.114 -0.5774  1.4076  0.2561
  178SAPS   C2820328   5.135   7.695   3.328 -0.2919  0.0904  0.7682
  178SAPS   H8R20329   5.189   7.786   3.300  0.5935 -0.7451 -0.2748
  178SAPS   C2920330   5.084   7.669   3.455 -0.2933  0.3743  0.3244
  178SAPS   H9R20331   5.101   7.745   3.533 -2.2882  0.9469  0.2289
  178SAPS  C21020332   4.993   7.554   3.497 -0.2207 -0.1300  0.4247
  178SAPS  H10R20333   5.006   7.536   3.606  0.1696  0.7034  0.5176
  178SAPS  H10S20334   5.026   7.460   3.447 -0.5122 -0.7473  1.3773
  178SAPS  C21120335   4.847   7.591   3.477 -0.4361 -0.0944  0.3333
  178SAPS  H11R20336   4.795   7.568   3.383  0.3950 -0.4448 -0.0535
  178SAPS  C21220337   4.765   7.640   3.572 -0.3051 -0.0570  0.1131
  178SAPS  H12R20338   4.659   7.656   3.549  0.3172  0.9284 -2.1974
  178SAPS  C21320339   4.797   7.672   3.712  0.1166  0.7579 -0.9360
  178SAPS  H13R20340   4.852   7.767   3.728 -1.5086  1.4739  0.6390
  178SAPS  H13S20341   4.870   7.603   3.760 -0.8884 -0.5069 -1.2012
  178SAPS  C21420342   4.679   7.670   3.807  0.1196 -0.6876 -0.7645
  178SAPS  H14R20343   4.621   7.577   3.807 -1.0317  0.0254  0.0213
  178SAPS  C21520344   4.625   7.771   3.885  0.2976  0.0944 -0.9717
  178SAPS  H15R20345   4.538   7.748   3.949  1.1392  0.2625  0.2380
  178SAPS  C21620346   4.674   7.914   3.897  0.2353  0.2115  0.0137
  178SAPS  H16R20347   4.768   7.935   3.843  0.4075  0.9812  0.6135
  178SAPS  H16S20348   4.694   7.932   4.005  0.4398 -0.3739  0.0733
  178SAPS  C21720349   4.565   8.012   3.847  0.0061 -0.4362 -0.2178
  178SAPS  H17R20350   4.542   7.984   3.742  1.1345  0.6502 -0.7572
  178SAPS  H17S20351   4.611   8.112   3.858 -4.4668  1.7648 -0.2081
  178SAPS  C21820352   4.431   8.001   3.934 -1.2455  0.4669 -0.2747
  178SAPS  H18R20353   4.388   7.902   3.958  1.3293 -0.8263 -0.7332
  178SAPS  H18S20354   4.346   8.055   3.888 -2.1478 -1.8285 -1.3960
  178SAPS  C21920355   4.459   8.066   4.070 -0.0982 -0.0641 -0.2079
  178SAPS  H19R20356   4.522   8.156   4.053  2.2022 -0.7699  3.8897
  178SAPS  H19S20357   4.520   8.001   4.136 -0.2758  0.8821  0.9117
  178SAPS  C22020358   4.328   8.098   4.146 -0.1854  0.4271 -0.7332
  178SAPS  H20R20359   4.272   8.003   4.155 -0.2444  0.4023 -1.3535
  178SAPS  H20S20360   4.275   8.169   4.079  1.1305  0.9840 -1.2157
  178SAPS  H20T20361   4.351   8.148   4.243 -3.5631  1.0427 -0.1836
  178SAPS   C3320362   4.677   7.494   2.662  0.7020 -0.1153 -0.4821
  178SAPS   H3X20363   4.676   7.396   2.609 -0.5842  0.3732 -1.3769
  178SAPS   H3Y20364   4.588   7.551   2.629  0.7943  1.4496  1.8258
  178SAPS   C3420365   4.679   7.472   2.818 -0.4284 -0.0112 -0.2510
  178SAPS   H4X20366   4.592   7.415   2.858 -1.9605  0.5639 -2.6612
  178SAPS   H4Y20367   4.680   7.578   2.853 -1.7030  0.4196 -1.4771
  178SAPS   C3520368   4.805   7.393   2.865 -0.2012 -0.8411  0.1954
  178SAPS   H5X20369   4.896   7.455   2.877 -1.3920  0.6779  1.6813
  178SAPS   H5Y20370   4.824   7.304   2.802  1.9785 -1.8494  2.2080
  178SAPS   C3620371   4.785   7.339   3.006  0.0834  0.5233  0.9711
  178SAPS   H6X20372   4.689   7.283   3.007 -1.4082  2.9833  0.8370
  178SAPS   H6Y20373   4.771   7.422   3.079 -1.1778  0.8694  0.3485
  178SAPS   C3720374   4.897   7.258   3.063 -0.3490  0.0911  0.5319
  178SAPS   H7X20375   4.977   7.326   3.100 -0.8038  0.7348  0.3522
  178SAPS   H7Y20376   4.931   7.197   2.977  0.9190  1.8021 -0.2055
  178SAPS   C3820377   4.860   7.161   3.183  0.2437 -0.6286  0.1821
  178SAPS   H8X20378   4.954   7.108   3.206  1.9904  2.5610  0.7285
  178SAPS   H8Y20379   4.789   7.089   3.138  0.2174 -0.7357  0.3971
  178SAPS   C3920380   4.804   7.240   3.303  0.2560  0.4691 -0.5707
  178SAPS   H9X20381   4.709   7.295   3.282  0.4091  0.9935  0.0930
  178SAPS   H9Y20382   4.880   7.312   3.340 -0.2868  0.6094  0.2742
  178SAPS  C31020383   4.781   7.153   3.424  1.0656 -0.6005 -0.0399
  178SAPS  H10X20384   4.866   7.081   3.422  1.8815  0.3204  1.0355
  178SAPS  H10Y20385   4.692   7.087   3.420  0.1896  0.5979 -0.5835
  178SAPS  C31120386   4.784   7.224   3.559  0.2164  0.3236  0.5666
  178SAPS  H11X20387   4.679   7.254   3.579 -0.2953 -0.5357 -0.7963
  178SAPS  H11Y20388   4.838   7.321   3.555 -0.8418  1.0295  2.9092
  178SAPS  C31220389   4.847   7.141   3.669  0.4378 -0.0187 -0.0945
  178SAPS  H12X20390   4.953   7.134   3.637  0.0582  0.6296 -1.5558
  178SAPS  H12Y20391   4.801   7.040   3.677  0.1877 -0.1227 -2.4556
  178SAPS  C31320392   4.844   7.209   3.806  0.5026  0.5061 -0.3219
  178SAPS  H13X20393   4.873   7.316   3.795 -1.1092  1.0709  0.7144
  178SAPS  H13Y20394   4.917   7.164   3.876 -0.0337 -0.0452 -0.1146
  178SAPS  C31420395   4.709   7.219   3.869 -0.3373 -0.2540  0.9497
  178SAPS  H14X20396   4.679   7.113   3.886 -0.0476 -0.7833 -1.6964
  178SAPS  H14Y20397   4.632   7.260   3.800  2.6093  1.3204 -1.4647
  178SAPS  C31520398   4.705   7.306   3.997  0.0839 -0.0708 -0.6055
  178SAPS  H15X20399   4.738   7.407   3.963 -2.3420  0.5128 -1.3021
  178SAPS  H15Y20400   4.782   7.273   4.070  1.1377  0.5984 -1.3984
  178SAPS  C31620401   4.557   7.322   4.044  0.0703  0.4269 -0.3477
  178SAPS  H16X20402   4.499   7.377   3.967  1.0690  1.4739 -0.3571
  178SAPS  H16Y20403   4.562   7.390   4.132 -1.9868  0.7194 -0.4317
  178SAPS  C31720404   4.497   7.189   4.089 -0.3175 -0.0419 -0.4654
  178SAPS  H17X20405   4.524   7.102   4.025  0.9086  0.5452 -0.7572
  178SAPS  H17Y20406   4.386   7.201   4.095 -0.1499  1.6177 -0.2840
  178SAPS  C31820407   4.544   7.143   4.224  0.1632 -0.1174  0.2805
  178SAPS  H18X20408   4.550   7.208   4.314  3.3181 -1.1925  0.8856
  178SAPS  H18Y20409   4.651   7.113   4.220  0.2723  0.2925  0.0587
  178SAPS  H18Z20410   4.481   7.058   4.257 -0.6910  0.2262 -0.4219
  179SAPS     N20411   0.734   0.968   2.105 -0.0482  0.6739  0.5846
  179SAPS   HN120412   0.818   0.912   2.132  0.9567  2.1905  0.6335
  179SAPS   HN220413   0.768   1.033   2.031 -0.5507  0.3086  0.0290
  179SAPS   HN320414   0.724   1.028   2.190 -1.1874  1.6140 -0.1999
  179SAPS   C1220415   0.635   0.868   2.072  0.0930  0.4432 -0.0501
  179SAPS  H12A20416   0.540   0.918   2.059 -1.1695 -1.6162  0.9934
  179SAPS   C1320417   0.668   0.774   1.946 -0.2834 -0.0376  0.0326
  179SAPS  O13A20418   0.772   0.810   1.883 -0.1162  0.2085  0.6073
  179SAPS  O13B20419   0.588   0.696   1.899  0.2381 -0.1945  0.2797
  179SAPS   C1120420   0.621   0.766   2.195  0.0029  0.5651 -0.6479
  179SAPS  H11A20421   0.724   0.736   2.224  0.3399  1.2127 -1.1752
  179SAPS  H11B20422   0.555   0.679   2.173  0.7626 -0.8636  2.4112
  179SAPS     P20423   0.543   0.767   2.443  0.4942 -0.3794  0.0411
  179SAPS   O1320424   0.443   0.661   2.415 -0.1599  0.7174  0.5928
  179SAPS   O1420425   0.672   0.719   2.496  0.3799  0.4386 -0.3149
  179SAPS   O1220426   0.561   0.849   2.301  0.3302 -0.2660  0.0251
  179SAPS   O1120427   0.471   0.879   2.529 -0.2247  0.8176 -0.5493
  179SAPS    C120428   0.520   0.995   2.587 -0.0105  0.3199  0.0096
  179SAPS    HA20429   0.574   1.061   2.515 -1.9372 -0.8074 -2.5537
  179SAPS    HB20430   0.437   1.049   2.637 -0.9949 -0.8558 -0.3259
  179SAPS    C220431   0.617   0.963   2.703 -0.0349 -0.3637 -0.6270
  179SAPS    HS20432   0.694   0.898   2.657  2.0871 -0.0533  2.4091
  179SAPS   O2120433   0.541   0.892   2.800 -0.1340  0.1910  0.8883
  179SAPS   C2120434   0.613   0.808   2.874  0.3154  0.1383 -0.4955
  179SAPS   O2220435   0.731   0.773   2.857 -0.3937  0.4318  0.6979
  179SAPS   C2220436   0.537   0.759   2.995  0.4634 -0.6711 -0.2416
  179SAPS   H2R20437   0.481   0.846   3.036  1.5201  0.6128 -1.4596
  179SAPS   H2S20438   0.461   0.684   2.966  0.0785 -0.0100 -0.9397
  179SAPS    C320439   0.677   1.092   2.755  0.1190 -0.7034 -0.2987
  179SAPS    HX20440   0.599   1.170   2.739 -0.9831 -1.4429  1.3508
  179SAPS    HY20441   0.764   1.122   2.692 -0.5196  0.7229 -0.5332
  179SAPS   O3120442   0.715   1.083   2.896  0.2660 -0.1721  0.1616
  179SAPS   C3120443   0.835   1.043   2.934 -0.1184 -0.3204 -0.1086
  179SAPS   O3220444   0.923   1.006   2.857  0.1557  0.3056  0.0117
  179SAPS   C3220445   0.851   1.064   3.087 -0.0032  0.5348 -0.3418
  179SAPS   H2X20446   0.760   1.010   3.120  2.9571 -2.9622  2.5670
  179SAPS   H2Y20447   0.839   1.173   3.102  2.9377  0.8595 -0.0976
  179SAPS   C2320448   0.630   0.701   3.110 -0.1167 -0.4381 -0.4530
  179SAPS   H3R20449   0.585   0.723   3.210  1.0299 -0.8867  0.1732
  179SAPS   H3S20450   0.730   0.748   3.105  0.6341 -1.5360  2.9397
  179SAPS   C2420451   0.656   0.547   3.100  0.5420 -0.3449 -0.5818
  179SAPS   H4R20452   0.734   0.514   3.172 -0.7204 -0.4070  0.7699
  179SAPS   H4S20453   0.688   0.528   2.995  0.0408  0.1700 -0.8252
  179SAPS   C2520454   0.537   0.470   3.141  0.0168  0.0006  0.6680
  179SAPS   H5R20455   0.475   0.446   3.053  0.7483 -1.3686  0.5066
  179SAPS   C2620456   0.491   0.460   3.268 -0.6652  0.3908  0.3898
  179SAPS   H6R20457   0.390   0.420   3.286 -0.1721 -0.2214  1.8504
  179SAPS   C2720458   0.543   0.515   3.401 -0.1559 -1.4500 -0.1670
  179SAPS   H7R20459   0.551   0.624   3.419  2.2176 -1.3225 -1.7550
  179SAPS   H7S20460   0.647   0.478   3.414 -0.0343 -0.3220  2.3267
  179SAPS   C2820461   0.471   0.460   3.519  0.5132 -0.1309  0.2450
  179SAPS   H8R20462   0.516   0.372   3.568  2.2418 -0.0739 -1.2185
  179SAPS   C2920463   0.350   0.511   3.571  0.0544 -0.7608  0.5955
  179SAPS   H9R20464   0.292   0.458   3.649  1.5526 -1.9727  0.9100
  179SAPS  C21020465   0.273   0.628   3.514 -0.3258  0.0620 -0.0893
  179SAPS  H10R20466   0.168   0.609   3.485 -0.1092 -1.0899 -0.1291
  179SAPS  H10S20467   0.319   0.652   3.416 -1.9012  0.9784 -0.6146
  179SAPS  C21120468   0.289   0.746   3.607 -0.3791 -0.0669 -0.5043
  179SAPS  H11R20469   0.385   0.767   3.658 -0.9684 -0.4484  0.7877
  179SAPS  C21220470   0.191   0.825   3.657  0.1340 -0.0739 -0.1558
  179SAPS  H12R20471   0.206   0.906   3.730  0.3147 -0.6930  0.4971
  179SAPS  C21320472   0.053   0.807   3.615 -0.7598 -0.5386  0.2392
  179SAPS  H13R20473   0.016   0.716   3.668  1.2252 -0.4923  1.7443
  179SAPS  H13S20474   0.051   0.799   3.504  0.5019  0.3307  0.1454
  179SAPS  C21420475  -0.038   0.912   3.670  0.4178 -0.2784  0.2278
  179SAPS  H14R20476  -0.012   0.947   3.771  3.9132  0.3598 -0.8251
  179SAPS  C21520477  -0.154   0.960   3.622  1.0325  0.2237  0.0616
  179SAPS  H15R20478  -0.209   1.039   3.676  2.8998  0.2295  2.0728
  179SAPS  C21620479  -0.222   0.912   3.493  0.2358  0.1867  1.1684
  179SAPS  H16R20480  -0.332   0.917   3.507 -0.0624 -2.9077  0.3750
  179SAPS  H16S20481  -0.187   0.807   3.477 -1.2400  0.0359 -1.4552
  179SAPS  C21720482  -0.191   0.965   3.353 -0.1889  0.0334 -0.0038
  179SAPS  H17R20483  -0.083   0.962   3.329 -0.6196 -0.3906 -1.9969
  179SAPS  H17S20484  -0.210   1.072   3.329  2.9091  0.0731 -2.5464
  179SAPS  C21820485  -0.269   0.894   3.248 -1.2725 -0.0806 -0.0237
  179SAPS  H18R20486  -0.375   0.926   3.262 -1.3520  0.1677 -1.1791
  179SAPS  H18S20487  -0.263   0.786   3.273 -1.0092  0.3281  1.7373
  179SAPS  C21920488  -0.217   0.911   3.106  0.7435  0.6056 -0.4376
  179SAPS  H19R20489  -0.237   0.806   3.077 -0.4187  1.1821 -1.8393
  179SAPS  H19S20490  -0.110   0.936   3.098  0.6147  1.8242  1.3519
  179SAPS  C22020491  -0.291   1.012   3.019  0.3022  0.3487  0.6635
  179SAPS  H20R20492  -0.275   1.108   3.072  1.5066 -0.0887  1.1176
  179SAPS  H20S20493  -0.399   0.984   3.019  0.5688 -0.7370 -0.2486
  179SAPS  H20T20494  -0.242   1.010   2.919 -3.5992 -1.0316 -1.3441
  179SAPS   C3320495   0.973   0.993   3.156 -0.6635  0.5736  0.4298
  179SAPS   H3X20496   1.067   1.038   3.118  0.3847 -1.6721  0.2841
  179SAPS   H3Y20497   0.955   0.884   3.146 -2.5580  0.8786  0.2718
  179SAPS   C3420498   0.959   1.014   3.307 -0.4837  0.8220  0.4349
  179SAPS   H4X20499   1.040   0.949   3.348 -0.9104  0.2157  0.3253
  179SAPS   H4Y20500   0.866   0.965   3.344 -0.1204  0.2684  0.6162
  179SAPS   C3520501   0.958   1.161   3.360  0.9836 -0.5123  0.3256
  179SAPS   H5X20502   0.858   1.205   3.342 -0.0219 -2.0027  2.2011
  179SAPS   H5Y20503   1.029   1.222   3.299 -2.1103  1.1800 -1.7125
  179SAPS   C3620504   0.991   1.163   3.511  0.6832  0.3070  0.0729
  179SAPS   H6X20505   1.061   1.247   3.534  2.4001 -1.2111  0.5239
  179SAPS   H6Y20506   1.035   1.066   3.541 -0.0583 -0.6952 -2.0396
  179SAPS   C3720507   0.871   1.170   3.607  0.2882  0.5707 -0.2230
  179SAPS   H7X20508   0.809   1.078   3.598 -0.3796  1.1712 -2.0479
  179SAPS   H7Y20509   0.802   1.253   3.578 -3.0052 -1.8084  0.5289
  179SAPS   C3820510   0.911   1.177   3.753 -0.3536 -0.8535  0.2639
  179SAPS   H8X20511   0.984   1.255   3.785 -1.2023 -1.2745  3.3591
  179SAPS   H8Y20512   0.961   1.082   3.782  0.6476 -0.5199 -0.3377
  179SAPS   C3920513   0.791   1.210   3.840 -0.5169 -0.0233  0.0762
  179SAPS   H9X20514   0.707   1.168   3.780 -0.8571  1.0060 -0.1659
  179SAPS   H9Y20515   0.771   1.319   3.847  1.1324  0.2715  0.3307
  179SAPS  C31020516   0.799   1.152   3.976 -0.0862 -0.0568  0.2271
  179SAPS  H10X20517   0.846   1.051   3.979  2.1686  1.0242  1.8204
  179SAPS  H10Y20518   0.692   1.149   4.007 -0.7284 -1.2988 -1.9746
  179SAPS  C31120519   0.865   1.247   4.079  0.0272  0.0135  0.2255
  179SAPS  H11X20520   0.908   1.335   4.028 -3.7625  0.6777 -2.0233
  179SAPS  H11Y20521   0.947   1.191   4.129  0.2235 -3.4007 -3.6237
  179SAPS  C31220522   0.754   1.299   4.178 -0.2634 -0.0652  0.1285
  179SAPS  H12X20523   0.720   1.216   4.243  3.4552 -1.3071  0.5730
  179SAPS  H12Y20524   0.672   1.344   4.117  0.6348 -0.5827 -1.4800
  179SAPS  C31320525   0.813   1.398   4.279 -0.1687  0.4667  0.1300
  179SAPS  H13X20526   0.736   1.472   4.309 -0.8399  0.3488 -1.2671
  179SAPS  H13Y20527   0.888   1.455   4.219  0.0562 -1.7317 -1.7255
  179SAPS  C31420528   0.896   1.337   4.391 -0.2221 -0.1656 -0.0009
  179SAPS  H14X20529   0.963   1.260   4.348 -2.1319 -1.6691 -0.3132
  179SAPS  H14Y20530   0.827   1.283   4.459  1.7141 -1.5159  0.9444
  179SAPS  C31520531   0.981   1.450   4.460  0.0628 -0.0801 -0.2905
  179SAPS  H15X20532   1.037   1.505   4.382 -0.9104  1.2467 -0.0779
  179SAPS  H15Y20533   1.066   1.407   4.516  0.7173  3.2040  1.3572
  179SAPS  C31620534   0.900   1.551   4.544  0.0024  0.1167 -0.4661
  179SAPS  H16X20535   0.883   1.505   4.644  1.5243 -2.1734 -1.2418
  179SAPS  H16Y20536   0.809   1.596   4.499 -2.7383 -3.6550  1.1077
  179SAPS  C31720537   0.989   1.673   4.587 -0.9838  0.3228  0.6571
  179SAPS  H17X20538   0.936   1.756   4.637 -0.7026 -0.2470  1.9275
  179SAPS  H17Y20539   1.023   1.718   4.491 -3.7783  1.6308  0.2503
  179SAPS  C31820540   1.106   1.633   4.676 -0.1998 -0.9563 -0.2688
  179SAPS  H18X20541   1.068   1.581   4.767  0.1704 -0.6301  0.0716
  179SAPS  H18Y20542   1.160   1.724   4.711 -1.9099  0.7171 -1.8561
  179SAPS  H18Z20543   1.178   1.567   4.624 -0.4599 -0.1535 -1.6643
  180SAPS     N20544   7.127   6.643   1.900  0.2867 -0.4362  0.1736
  180SAPS   HN120545   7.054   6.570   1.891  0.4602 -0.5361 -0.4473
  180SAPS   HN220546   7.179   6.639   1.810 -0.6762  0.6580 -0.4426
  180SAPS   HN320547   7.180   6.614   1.985  0.3988  0.0830  0.2823
  180SAPS   C1220548   7.064   6.775   1.914 -0.5734  0.7721 -0.1243
  180SAPS  H12A20549   7.142   6.849   1.926 -1.3201  1.0846  3.5485
  180SAPS   C1320550   6.969   6.805   1.797  0.3287  0.4893 -0.3821
  180SAPS  O13A20551   6.960   6.725   1.700 -0.0803  0.0534 -0.3135
  180SAPS  O13B20552   6.940   6.929   1.786  0.1552 -0.0427 -0.0438
  180SAPS   C1120553   6.980   6.777   2.043  0.0572  0.0552 -0.2653
  180SAPS  H11A20554   6.897   6.703   2.035 -0.5238  0.8875 -2.2483
  180SAPS  H11B20555   6.930   6.875   2.051 -1.1299 -0.5746  0.1808
  180SAPS     P20556   7.165   6.853   2.225  0.4929 -0.1613  0.1152
  180SAPS   O1320557   7.205   6.796   2.359  0.1714  0.3401 -0.0769
  180SAPS   O1420558   7.276   6.871   2.136 -0.2536  0.5817 -0.4693
  180SAPS   O1220559   7.065   6.752   2.159 -0.1721  0.0661 -0.6156
  180SAPS   O1120560   7.095   6.994   2.247 -0.0531  0.5153  0.1429
  180SAPS    C120561   6.955   7.026   2.277  0.1007 -0.2466 -0.0740
  180SAPS    HA20562   6.915   7.103   2.208 -0.5304 -0.4546  0.0569
  180SAPS    HB20563   6.896   6.932   2.273  1.2507 -1.0748  1.8705
  180SAPS    C220564   6.946   7.080   2.427  0.5679  0.2199  0.5258
  180SAPS    HS20565   6.946   7.191   2.425  2.0212  0.2042 -2.0021
  180SAPS   O2120566   7.059   7.026   2.500  0.5943 -0.1982  0.3195
  180SAPS   C2120567   7.149   7.114   2.534  0.3144  0.0411 -0.0085
  180SAPS   O2220568   7.153   7.229   2.503 -0.1938 -0.8405  0.6338
  180SAPS   C2220569   7.258   7.046   2.612  0.6050  0.1354  0.2130
  180SAPS   H2R20570   7.235   6.943   2.647 -0.2534  0.4371  0.5444
  180SAPS   H2S20571   7.346   7.037   2.546 -0.8573 -1.0909 -1.6178
  180SAPS    C320572   6.806   7.039   2.486 -0.3743 -0.4177 -0.0930
  180SAPS    HX20573   6.809   6.928   2.493 -1.5412 -0.5034 -0.9035
  180SAPS    HY20574   6.728   7.059   2.410  2.0020 -0.8838 -2.6904
  180SAPS   O3120575   6.777   7.092   2.618  0.2362  0.3582  0.4961
  180SAPS   C3120576   6.734   7.210   2.634  0.8328 -0.1016  0.0806
  180SAPS   O3220577   6.733   7.303   2.554  0.7966 -0.7096 -0.0404
  180SAPS   C3220578   6.722   7.234   2.781 -0.3633 -0.2804 -0.6226
  180SAPS   H2X20579   6.792   7.159   2.824  0.5318  0.9897  0.1710
  180SAPS   H2Y20580   6.619   7.216   2.820 -0.0621 -0.9911 -0.1343
  180SAPS   C2320581   7.307   7.121   2.733  0.4672 -0.2287  0.4602
  180SAPS   H3R20582   7.344   7.223   2.707 -0.6422 -0.6085 -2.9441
  180SAPS   H3S20583   7.387   7.059   2.777  0.8018  0.2247  0.4903
  180SAPS   C2420584   7.212   7.135   2.846 -0.0389  0.6253 -0.2057
  180SAPS   H4R20585   7.204   7.033   2.888  0.6714 -0.0513 -1.6781
  180SAPS   H4S20586   7.108   7.162   2.817 -0.5658  0.4070  1.4192
  180SAPS   C2520587   7.255   7.229   2.954  0.3127 -0.0287 -0.0220
  180SAPS   H5R20588   7.268   7.334   2.923 -1.4325  0.9136  2.2426
  180SAPS   C2620589   7.277   7.198   3.083 -0.1888  0.4457 -0.3298
  180SAPS   H6R20590   7.317   7.277   3.148  0.3447 -2.1250  2.5869
  180SAPS   C2720591   7.266   7.063   3.155 -0.4375 -0.1050  0.5481
  180SAPS   H7R20592   7.356   7.062   3.221 -0.3427 -0.3115  0.4146
  180SAPS   H7S20593   7.292   6.982   3.083  0.4628  2.0892 -1.6507
  180SAPS   C2820594   7.134   7.042   3.234  0.2075  0.0457  0.1002
  180SAPS   H8R20595   7.046   7.015   3.174  1.6637 -1.2446 -1.4835
  180SAPS   C2920596   7.130   7.048   3.372 -0.1933 -0.2194 -0.0012
  180SAPS   H9R20597   7.029   7.036   3.416  0.0916 -0.4231  0.6026
  180SAPS  C21020598   7.248   7.079   3.465 -0.4265 -0.5340  0.3519
  180SAPS  H10R20599   7.215   7.138   3.553 -0.4608  0.0492 -0.0544
  180SAPS  H10S20600   7.313   7.150   3.410  0.2720 -2.4124 -1.3126
  180SAPS  C21120601   7.334   6.963   3.519 -0.4465 -0.3932 -0.3358
  180SAPS  H11R20602   7.342   6.886   3.442 -1.8586 -0.8172 -0.0826
  180SAPS  C21220603   7.383   6.949   3.646 -0.3738 -0.0170  0.2260
  180SAPS  H12R20604   7.445   6.859   3.660 -2.2261 -1.8147 -2.5395
  180SAPS  C21320605   7.363   7.051   3.760  0.0554 -0.2643  0.4495
  180SAPS  H13R20606   7.259   7.089   3.754  0.2440  0.3395  1.0309
  180SAPS  H13S20607   7.423   7.139   3.729  1.5395 -0.9068  1.4441
  180SAPS  C21420608   7.396   7.003   3.900 -0.1087  0.0775  0.2831
  180SAPS  H14R20609   7.376   6.895   3.915  0.0596  0.4291  3.3860
  180SAPS  C21520610   7.444   7.069   4.012  0.0997 -0.3039  0.5355
  180SAPS  H15R20611   7.474   7.014   4.103 -0.8452  0.0316  1.0653
  180SAPS  C21620612   7.471   7.217   4.035 -0.3181 -0.3632  0.2398
  180SAPS  H16R20613   7.484   7.263   3.935  0.4014  1.2819  1.0545
  180SAPS  H16S20614   7.564   7.221   4.097  0.0161  1.0644 -0.3370
  180SAPS  C21720615   7.351   7.302   4.092  0.5268 -0.4865 -0.4977
  180SAPS  H17R20616   7.269   7.292   4.017  2.2726 -1.0210 -2.3983
  180SAPS  H17S20617   7.380   7.409   4.096  1.3109 -0.7669  1.7194
  180SAPS  C21820618   7.300   7.253   4.230 -0.0586 -0.1231 -0.2550
  180SAPS  H18R20619   7.252   7.158   4.201  0.0841 -0.0528 -0.7152
  180SAPS  H18S20620   7.212   7.317   4.253 -0.8458 -1.2347 -0.1265
  180SAPS  C21920621   7.402   7.226   4.338  0.6159  0.2154 -0.0378
  180SAPS  H19R20622   7.481   7.163   4.292 -0.5012  0.7576 -2.7765
  180SAPS  H19S20623   7.350   7.178   4.424 -0.9804 -0.4048 -1.3150
  180SAPS  C22020624   7.478   7.352   4.387  0.6883 -0.2151  0.4787
  180SAPS  H20R20625   7.473   7.419   4.298 -3.2100 -2.3407 -1.0408
  180SAPS  H20S20626   7.431   7.415   4.465 -2.8756 -0.3950 -1.4334
  180SAPS  H20T20627   7.582   7.323   4.415  1.3995  2.7266  1.0214
  180SAPS   C3320628   6.779   7.376   2.829 -0.1339  0.4847  0.3976
  180SAPS   H3X20629   6.719   7.448   2.769 -2.1784 -0.9085  0.7278
  180SAPS   H3Y20630   6.885   7.375   2.796  0.3981  0.6798  2.0716
  180SAPS   C3420631   6.748   7.399   2.976  0.0236 -0.1659 -0.6133
  180SAPS   H4X20632   6.639   7.388   2.996 -0.1097  2.4948  0.3387
  180SAPS   H4Y20633   6.780   7.504   2.995 -0.5524  0.3462 -2.3896
  180SAPS   C3520634   6.801   7.300   3.081  0.0397  0.0154  0.1229
  180SAPS   H5X20635   6.912   7.298   3.083  0.0692  1.8021  2.4268
  180SAPS   H5Y20636   6.767   7.195   3.068  0.4410  0.0121 -0.9475
  180SAPS   C3620637   6.764   7.352   3.225  0.0450  0.0964  0.2844
  180SAPS   H6X20638   6.670   7.411   3.221  0.4462  0.6578 -0.9040
  180SAPS   H6Y20639   6.848   7.422   3.247  1.6636 -0.7189 -3.0097
  180SAPS   C3720640   6.777   7.254   3.342  0.4055  0.1793  0.2083
  180SAPS   H7X20641   6.820   7.159   3.304 -0.8675 -0.3051 -0.0711
  180SAPS   H7Y20642   6.678   7.228   3.386  0.5852 -0.2615  0.3509
  180SAPS   C3820643   6.865   7.310   3.461  0.1485  0.1422 -0.5903
  180SAPS   H8X20644   6.819   7.401   3.504 -2.7669 -1.1340 -0.9087
  180SAPS   H8Y20645   6.966   7.314   3.415 -0.7245 -0.0359 -2.5721
  180SAPS   C3920646   6.869   7.207   3.572  0.0660  0.4323  0.6078
  180SAPS   H9X20647   6.954   7.214   3.643 -0.7145 -0.7007  1.6947
  180SAPS   H9Y20648   6.872   7.109   3.521  2.1040  0.6744  0.2351
  180SAPS  C31020649   6.759   7.230   3.679 -0.3460  0.9015  0.0635
  180SAPS  H10X20650   6.659   7.232   3.631  0.0832 -1.7649 -0.9944
  180SAPS  H10Y20651   6.769   7.326   3.734 -0.0934  0.8502  0.1076
  180SAPS  C31120652   6.752   7.114   3.779 -0.4146 -0.2185  0.5373
  180SAPS  H11X20653   6.848   7.134   3.832  0.5259  1.4634 -1.7238
  180SAPS  H11Y20654   6.745   7.021   3.719  0.7985 -0.2084  0.3529
  180SAPS  C31220655   6.631   7.119   3.869  0.3939  0.1434 -0.5750
  180SAPS  H12X20656   6.536   7.110   3.812 -0.7656 -0.8083  1.4362
  180SAPS  H12Y20657   6.627   7.214   3.927 -0.5008  0.5123 -1.2354
  180SAPS  C31320658   6.639   7.001   3.963  0.0495 -0.6054 -0.3043
  180SAPS  H13X20659   6.739   7.019   4.007 -1.1868  2.6640  1.3984
  180SAPS  H13Y20660   6.647   6.908   3.904  2.0721 -1.4187  1.2064
  180SAPS  C31420661   6.521   6.988   4.065 -0.5149  0.2498  0.5400
  180SAPS  H14X20662   6.422   6.977   4.017 -0.3555 -0.6719  0.4218
  180SAPS  H14Y20663   6.516   7.081   4.126 -2.7569 -0.1618  1.0282
  180SAPS  C31520664   6.561   6.866   4.159 -0.2938  0.0411 -0.1095
  180SAPS  H15X20665   6.663   6.876   4.201 -0.0937 -0.0444 -0.5725
  180SAPS  H15Y20666   6.564   6.783   4.086 -2.3321  0.0322 -0.2030
  180SAPS  C31620667   6.470   6.845   4.283 -0.1356 -0.0417 -0.0603
  180SAPS  H16X20668   6.373   6.888   4.250  0.3374 -0.0666 -1.5325
  180SAPS  H16Y20669   6.512   6.872   4.382  0.3077 -1.8395  0.2529
  180SAPS  C31720670   6.437   6.694   4.297  0.3764  0.7739 -0.6390
  180SAPS  H17X20671   6.420   6.637   4.204  2.1024 -0.6505 -0.1159
  180SAPS  H17Y20672   6.337   6.691   4.347  0.1441 -1.4870 -1.1768
  180SAPS  C31820673   6.529   6.615   4.394 -0.2025  0.3557  0.1794
  180SAPS  H18X20674   6.510   6.662   4.494  1.3737 -1.7969  1.5259
  180SAPS  H18Y20675   6.639   6.618   4.378  0.2033 -3.6305  1.6453
  180SAPS  H18Z20676   6.504   6.508   4.405  2.4085 -0.6930 -3.2629
  181POPC     N20677   5.940   3.043   6.051  0.0565 -0.1346 -0.3362
  181POPC   C1220678   5.963   2.897   6.027 -0.2775  0.4467  0.2601
  181POPC  H12A20679   6.067   2.883   6.054 -0.5519 -0.8101  0.6698
  181POPC  H12B20680   5.961   2.871   5.922  2.8450 -1.9878  0.7254
  181POPC   C1320681   5.803   3.078   6.008  0.2172 -0.1244 -0.6133
  181POPC  H13A20682   5.730   3.031   6.072  0.6290 -0.3255 -0.2834
  181POPC  H13B20683   5.778   3.183   6.007  1.8327  0.2837 -2.6201
  181POPC  H13C20684   5.778   3.052   5.906  1.1423 -0.0766 -0.8633
  181POPC   C1420685   5.946   3.076   6.197  0.6655  0.0800  0.3484
  181POPC  H14A20686   5.871   3.020   6.251 -2.4448  1.1668 -2.6707
  181POPC  H14B20687   6.040   3.045   6.238  0.5654  1.3695  1.6055
  181POPC  H14C20688   5.928   3.180   6.219 -1.5891 -0.4768  1.2812
  181POPC   C1520689   6.038   3.127   5.973 -0.6382 -0.9095 -0.6673
  181POPC  H15A20690   6.018   3.231   5.993 -3.2799 -1.8785  2.1473
  181POPC  H15B20691   6.046   3.108   5.867  1.1931 -0.7277 -0.5713
  181POPC  H15C20692   6.135   3.100   6.011 -0.1274 -2.2419 -2.8268
  181POPC   C1120693   5.875   2.795   6.103  0.1773 -0.6455  0.1386
  181POPC  H11A20694   5.866   2.814   6.212 -3.2327 -0.2869 -0.1664
  181POPC  H11B20695   5.925   2.697   6.088 -2.0863 -1.7779 -0.2886
  181POPC     P20696   5.611   2.757   6.097 -0.2124 -0.0707 -0.2839
  181POPC   O1320697   5.501   2.762   5.998 -0.2691  0.0376  0.4244
  181POPC   O1420698   5.596   2.840   6.221  0.0915  0.2420 -0.5931
  181POPC   O1220699   5.753   2.788   6.022  0.2960  0.0723  0.4979
  181POPC   O1120700   5.645   2.610   6.147 -0.7207 -0.8618 -0.2481
  181POPC    C120701   5.702   2.503   6.068 -0.3477  0.6734  0.7108
  181POPC    HA20702   5.765   2.444   6.137 -0.4526 -0.9718 -0.5772
  181POPC    HB20703   5.773   2.536   5.989  0.3996 -2.2538  0.0899
  181POPC    C220704   5.590   2.413   6.002  0.2492  0.6230  0.1408
  181POPC    HS20705   5.635   2.319   5.963 -1.3698 -0.0107 -0.2134
  181POPC   O2120706   5.523   2.483   5.901 -0.1218 -0.2499  0.0249
  181POPC   C2120707   5.576   2.504   5.787 -0.1391 -0.3908 -0.2642
  181POPC   O2220708   5.696   2.490   5.757 -0.1353  0.3686 -0.3166
  181POPC   C2220709   5.477   2.567   5.693  0.4418  0.2089  0.5189
  181POPC   H2R20710   5.532   2.634   5.623  1.8269 -1.0133  0.4288
  181POPC   H2S20711   5.416   2.634   5.758  0.9758  0.8072  0.4108
  181POPC    C320712   5.487   2.362   6.112 -0.4005 -0.4499 -0.4845
  181POPC    HX20713   5.447   2.453   6.163 -0.2164  0.2471 -1.5608
  181POPC    HY20714   5.541   2.287   6.174  1.0155  0.6900 -0.3115
  181POPC   O3120715   5.373   2.285   6.061 -0.7461 -0.2694  0.2909
  181POPC   C3120716   5.266   2.367   6.017  1.1652 -0.7281  0.2553
  181POPC   O3220717   5.258   2.484   6.045 -0.4396 -0.3617  0.2819
  181POPC   C3220718   5.155   2.294   5.932 -0.6705  0.5154 -0.2967
  181POPC   H2X20719   5.106   2.218   5.997  3.2710 -1.2329  0.7926
  181POPC   H2Y20720   5.203   2.230   5.855 -0.7395 -0.6181  0.6005
  181POPC   C2320721   5.401   2.468   5.599  0.2024  0.0829 -0.1148
  181POPC   H3R20722   5.299   2.513   5.592 -0.4802 -1.0188  2.1876
  181POPC   H3S20723   5.390   2.368   5.646 -0.6178 -0.0850 -0.6552
  181POPC   C2420724   5.461   2.449   5.457 -0.3815  0.2662  0.3059
  181POPC   H4R20725   5.559   2.396   5.463 -1.1858 -1.2380  0.1801
  181POPC   H4S20726   5.481   2.547   5.408  0.6141 -0.3146 -0.4767
  181POPC   C2520727   5.353   2.382   5.367  0.0276 -0.2525  0.1891
  181POPC   H5R20728   5.255   2.434   5.370 -0.0366 -0.3399 -0.4557
  181POPC   H5S20729   5.341   2.275   5.397  1.9275 -0.0280  1.8573
  181POPC   C2620730   5.406   2.375   5.217  0.4515 -0.8735 -0.0308
  181POPC   H6R20731   5.435   2.481   5.207  0.1450 -0.6326  1.6106
  181POPC   H6S20732   5.313   2.358   5.159  1.5372 -2.0313 -1.5028
  181POPC   C2720733   5.525   2.281   5.185 -0.0810 -0.6591 -0.3210
  181POPC   H7R20734   5.486   2.180   5.213  0.4098 -0.7473  0.0446
  181POPC   H7S20735   5.619   2.292   5.243  0.4268  1.7046 -1.5668
  181POPC   C2820736   5.565   2.282   5.034 -0.2158 -0.3027  0.0442
  181POPC   H8R20737   5.638   2.200   5.019  0.3079 -0.2939  2.4096
  181POPC   H8S20738   5.631   2.369   5.014 -1.3160  0.5205 -0.0386
  181POPC   C2920739   5.457   2.255   4.930  0.8907  0.0920  0.6253
  181POPC   H9120740   5.442   2.149   4.903 -0.9626  0.7271 -0.9873
  181POPC  C21020741   5.408   2.354   4.861 -0.6879 -0.4177 -0.3068
  181POPC  H10120742   5.353   2.325   4.770  1.0535 -0.4404 -1.3723
  181POPC  C21120743   5.438   2.504   4.874 -0.6380 -0.2384  0.2580
  181POPC  H11R20744   5.491   2.536   4.781  0.6797 -1.8170  0.4410
  181POPC  H11S20745   5.492   2.529   4.968 -0.3760  0.8016 -0.1543
  181POPC  C21220746   5.299   2.573   4.888 -0.3815 -0.0022 -0.2261
  181POPC  H12R20747   5.321   2.674   4.929  1.4995 -1.2098  1.8983
  181POPC  H12S20748   5.248   2.536   4.979  1.1659  0.3399  0.8128
  181POPC  C21320749   5.231   2.578   4.756  0.1887  0.0256  0.0197
  181POPC  H13R20750   5.173   2.483   4.746  1.5441 -0.6833 -1.2177
  181POPC  H13S20751   5.308   2.578   4.676 -0.9384  0.4727 -1.0910
  181POPC  C21420752   5.124   2.677   4.731 -0.2868 -0.3003  0.2534
  181POPC  H14R20753   5.098   2.671   4.623  0.5958 -2.0417  0.1173
  181POPC  H14S20754   5.169   2.778   4.744 -0.2341 -0.5947  2.5648
  181POPC  C21520755   5.003   2.661   4.816  0.2237  0.4600 -0.3499
  181POPC  H15R20756   5.032   2.664   4.923  0.7150 -1.1622 -0.4295
  181POPC  H15S20757   4.951   2.568   4.785 -2.6437  1.5296  1.0834
  181POPC  C21620758   4.910   2.783   4.801 -0.2698  0.3271  0.6741
  181POPC  H16R20759   4.962   2.868   4.849  0.7064 -0.0310  0.2552
  181POPC  H16S20760   4.815   2.762   4.855 -1.1867 -1.8963 -1.6972
  181POPC  C21720761   4.884   2.820   4.651  0.4165 -0.0625 -0.2103
  181POPC  H17R20762   4.843   2.734   4.593 -1.4254  0.6152  0.0704
  181POPC  H17S20763   4.979   2.852   4.603  0.6232  0.4089  0.5023
  181POPC  C21820764   4.776   2.927   4.637  0.1429  0.7439  0.3487
  181POPC  H18R20765   4.680   2.885   4.674  0.4654  0.9926  1.4805
  181POPC  H18S20766   4.770   2.961   4.531 -1.3074 -0.7606 -0.0768
  181POPC  H18T20767   4.815   3.017   4.689 -0.0481  0.0522  1.7020
  181POPC   C3320768   5.049   2.386   5.854 -0.2952 -0.4820 -0.4646
  181POPC   H3X20769   5.096   2.470   5.798  0.9968 -0.7780  0.1578
  181POPC   H3Y20770   4.978   2.425   5.931 -1.0786 -0.1899 -1.3300
  181POPC   C3420771   4.973   2.312   5.748  0.0794  0.0515 -0.2724
  181POPC   H4X20772   4.889   2.371   5.708 -0.9280 -0.5991  0.8617
  181POPC   H4Y20773   4.937   2.212   5.781 -0.5184  0.6377  0.8388
  181POPC   C3520774   5.064   2.300   5.627 -0.0466  0.0106 -0.3500
  181POPC   H5X20775   5.145   2.235   5.665  1.6028  2.1799 -0.0526
  181POPC   H5Y20776   5.112   2.399   5.614 -0.2855  0.0126 -1.2564
  181POPC   C3620777   5.002   2.251   5.498 -0.0644 -0.0770 -0.7055
  181POPC   H6X20778   4.924   2.175   5.520 -3.7074  3.1405 -1.9588
  181POPC   H6Y20779   5.074   2.192   5.437  0.7956  1.4165 -1.1431
  181POPC   C3720780   4.935   2.361   5.418  0.2230 -0.0364  0.3127
  181POPC   H7X20781   5.005   2.447   5.407  0.5407 -0.1526  1.3828
  181POPC   H7Y20782   4.856   2.408   5.482 -1.1147  2.9572 -3.3664
  181POPC   C3820783   4.881   2.315   5.274  0.0458 -0.1187  0.2952
  181POPC   H8X20784   4.839   2.405   5.225  2.0611  0.0641 -1.1430
  181POPC   H8Y20785   4.807   2.232   5.285  1.2062 -1.0247  1.3909
  181POPC   C3920786   4.997   2.268   5.185  0.5526 -0.0562 -0.0668
  181POPC   H9X20787   5.047   2.176   5.222  2.9788  1.5838  0.8542
  181POPC   H9Y20788   5.066   2.355   5.186 -2.9730  2.8230  0.4153
  181POPC  C31020789   4.956   2.233   5.041  0.3070 -0.4705  0.5815
  181POPC  H10X20790   4.895   2.314   4.996  1.8650  0.0467 -0.6675
  181POPC  H10Y20791   4.885   2.149   5.056 -1.1257  0.1986 -2.0921
  181POPC  C31120792   5.076   2.190   4.955 -0.6855  0.2774 -0.7811
  181POPC  H11X20793   5.110   2.089   4.988 -0.5371  0.4772 -0.3218
  181POPC  H11Y20794   5.163   2.253   4.985 -1.1513 -0.2440  1.7662
  181POPC  C31220795   5.052   2.197   4.807  0.2664  0.4422 -0.1948
  181POPC  H12X20796   5.148   2.213   4.753  1.7825 -2.7688  1.3713
  181POPC  H12Y20797   4.993   2.289   4.793 -0.1639  0.1666 -0.1959
  181POPC  C31320798   4.962   2.087   4.745 -0.4352  0.2853 -0.4458
  181POPC  H13X20799   4.867   2.080   4.803  0.0609 -3.3033  0.0405
  181POPC  H13Y20800   5.018   1.993   4.763 -2.3937 -0.4763  2.0773
  181POPC  C31420801   4.932   2.113   4.600  0.1781  0.6232 -0.6812
  181POPC  H14X20802   5.022   2.148   4.546 -0.4071  1.6753 -0.9878
  181POPC  H14Y20803   4.861   2.195   4.576 -0.8122  0.5943  1.9679
  181POPC  C31520804   4.873   1.992   4.525  0.1437 -0.9487 -0.1859
  181POPC  H15X20805   4.958   1.920   4.530  1.1510  0.3613  1.9165
  181POPC  H15Y20806   4.866   2.013   4.416 -0.0563 -0.5288 -0.0902
  181POPC  C31620807   4.734   1.942   4.575  1.0050  0.1587 -0.0413
  181POPC  H16X20808   4.738   1.945   4.686  2.2502  1.4878 -0.1185
  181POPC  H16Y20809   4.721   1.837   4.540  2.1063 -0.9071  2.6210
  181POPC  H16Z20810   4.651   1.997   4.527  0.0734 -2.7711 -1.9580
  182POPC     N20811   2.986   1.552   6.368 -0.6021  0.1291 -0.0524
  182POPC   C1220812   2.960   1.637   6.247  0.8353  0.2448 -0.7810
  182POPC  H12A20813   3.026   1.722   6.253  0.8060  0.0454  3.5006
  182POPC  H12B20814   2.856   1.666   6.252  0.6536 -0.3059 -1.3442
  182POPC   C1320815   2.874   1.456   6.400  0.5324  0.3352 -0.4557
  182POPC  H13A20816   2.873   1.379   6.324  0.8970 -1.0642  0.9546
  182POPC  H13B20817   2.902   1.421   6.498 -2.5597 -2.3605 -0.4433
  182POPC  H13C20818   2.780   1.509   6.404  0.4920  0.2383 -0.1351
  182POPC   C1420819   3.113   1.474   6.360  0.4617 -0.0634  0.1041
  182POPC  H14A20820   3.132   1.414   6.272 -0.1624 -1.6696  1.0513
  182POPC  H14B20821   3.196   1.543   6.372 -1.5960  2.7048 -1.0128
  182POPC  H14C20822   3.115   1.403   6.441 -1.5881 -2.1108 -1.5645
  182POPC   C1520823   2.993   1.637   6.497  0.8246 -0.6413 -0.2363
  182POPC  H15A20824   3.021   1.570   6.577  0.0641  2.4460  2.7003
  182POPC  H15B20825   2.896   1.678   6.520  0.4961 -1.9257  0.7048
  182POPC  H15C20826   3.073   1.709   6.495 -1.2150  1.7212  1.2414
  182POPC   C1120827   2.988   1.584   6.100 -0.6353  0.7615 -0.0910
  182POPC  H11A20828   3.097   1.565   6.098 -0.8533 -0.5089 -0.3993
  182POPC  H11B20829   2.976   1.667   6.027  2.5505  0.8367 -0.6024
  182POPC     P20830   2.978   1.317   6.066  0.1571 -0.4992  0.1612
  182POPC   O1320831   2.873   1.235   6.136  0.0242 -0.1348  0.2046
  182POPC   O1420832   3.119   1.311   6.119 -0.0559 -0.1304 -0.1737
  182POPC   O1220833   2.921   1.466   6.054 -0.7216 -0.0326  0.1813
  182POPC   O1120834   2.989   1.270   5.918  0.1168  0.0331 -0.2513
  182POPC    C120835   3.071   1.345   5.829 -0.6613 -0.0829 -0.0785
  182POPC    HA20836   3.170   1.295   5.827  0.0619  1.2359  1.5141
  182POPC    HB20837   3.093   1.450   5.857  1.4787 -0.6405  0.4461
  182POPC    C220838   3.018   1.342   5.682 -0.2260 -0.3530 -0.3217
  182POPC    HS20839   3.101   1.376   5.615 -0.4604  0.2486 -0.3140
  182POPC   O2120840   2.906   1.434   5.672 -0.1930  0.1825  0.1611
  182POPC   C2120841   2.931   1.565   5.670 -0.3061 -0.0456 -0.2167
  182POPC   O2220842   3.041   1.618   5.677  0.6259  0.1384 -0.0449
  182POPC   C2220843   2.796   1.632   5.651 -0.1616  0.0898  0.0147
  182POPC   H2R20844   2.812   1.741   5.633  2.1152 -0.4205 -1.1802
  182POPC   H2S20845   2.730   1.620   5.740 -0.5913  1.9498 -0.0309
  182POPC    C320846   2.981   1.201   5.635  0.3027  0.3967  0.1097
  182POPC    HX20847   2.896   1.168   5.698  1.5653  0.7260  2.0313
  182POPC    HY20848   3.069   1.138   5.658  0.9028  0.0616 -2.7995
  182POPC   O3120849   2.970   1.199   5.490  0.2223 -0.0683 -0.8996
  182POPC   C3120850   2.844   1.169   5.448 -0.4259  0.5447 -0.1776
  182POPC   O3220851   2.749   1.157   5.520  0.0279 -0.2173  0.7025
  182POPC   C3220852   2.836   1.136   5.291  0.3140  0.0935  0.7408
  182POPC   H2X20853   2.730   1.113   5.267  0.6906  1.0518 -2.0897
  182POPC   H2Y20854   2.901   1.047   5.281 -1.1797 -0.6838 -2.7786
  182POPC   C2320855   2.718   1.589   5.525 -0.0850 -0.7683  0.1939
  182POPC   H3R20856   2.614   1.629   5.527 -0.0995 -0.8213  0.5680
  182POPC   H3S20857   2.716   1.479   5.511  1.7743 -0.5348 -2.1275
  182POPC   C2420858   2.776   1.658   5.399 -0.0380 -0.7532 -0.0311
  182POPC   H4R20859   2.879   1.619   5.386 -0.1380 -1.0923  0.1844
  182POPC   H4S20860   2.779   1.769   5.396  0.9287 -0.7492  0.6774
  182POPC   C2520861   2.704   1.611   5.277  0.9165 -0.0802  0.3547
  182POPC   H5R20862   2.595   1.634   5.273  0.6483 -1.5106 -0.9173
  182POPC   H5S20863   2.706   1.501   5.264 -0.9575  0.0638 -1.4728
  182POPC   C2620864   2.759   1.665   5.144 -0.0049  0.5972 -0.4730
  182POPC   H6R20865   2.697   1.610   5.070  0.2767  2.4897 -2.1606
  182POPC   H6S20866   2.867   1.649   5.122  0.0587 -1.4370  1.1759
  182POPC   C2720867   2.726   1.816   5.131  0.1047  0.5874  0.3236
  182POPC   H7R20868   2.787   1.882   5.196 -0.8691 -1.4933  3.4556
  182POPC   H7S20869   2.621   1.827   5.165  0.7055  1.3173  2.0380
  182POPC   C2820870   2.756   1.873   4.992 -0.0994  0.0911  0.0734
  182POPC   H8R20871   2.857   1.841   4.958 -0.2971 -0.6761  0.2143
  182POPC   H8S20872   2.754   1.984   4.988  1.3881  0.1127 -0.7149
  182POPC   C2920873   2.652   1.831   4.899  0.4136 -0.3015 -0.3541
  182POPC   H9120874   2.557   1.882   4.924  1.7411  2.1868 -0.2352
  182POPC  C21020875   2.659   1.726   4.817 -0.1818  0.5021  1.0064
  182POPC  H10120876   2.565   1.711   4.761  0.0536  3.9638 -0.4780
  182POPC  C21120877   2.786   1.633   4.790  0.2419 -0.4376 -0.5589
  182POPC  H11R20878   2.768   1.525   4.810 -2.3064  0.1702  0.6955
  182POPC  H11S20879   2.867   1.662   4.860  0.4082 -0.1470 -0.8717
  182POPC  C21220880   2.846   1.645   4.644  0.1714 -0.0716 -0.3467
  182POPC  H12R20881   2.935   1.579   4.642  0.5509  0.4477 -1.0677
  182POPC  H12S20882   2.874   1.752   4.634  0.3324 -0.1518 -0.7657
  182POPC  C21320883   2.754   1.595   4.533 -0.3231  0.0425 -0.4093
  182POPC  H13R20884   2.652   1.624   4.566  0.5465  0.4179  2.0356
  182POPC  H13S20885   2.749   1.484   4.526 -0.5842 -0.0768  1.4938
  182POPC  C21420886   2.789   1.655   4.397  0.4254 -0.3580 -0.0570
  182POPC  H14R20887   2.852   1.584   4.339  4.0164  0.7149  2.3290
  182POPC  H14S20888   2.845   1.751   4.398 -0.1545 -0.0315  1.1084
  182POPC  C21520889   2.664   1.679   4.305  0.6908  0.2193 -0.2893
  182POPC  H15R20890   2.590   1.745   4.354 -0.2540  0.7951 -2.4300
  182POPC  H15S20891   2.635   1.573   4.287  2.3806 -0.1504 -1.0195
  182POPC  C21620892   2.704   1.746   4.171  0.0939 -0.3234 -0.1757
  182POPC  H16R20893   2.783   1.681   4.128 -0.3448  0.0820 -1.6272
  182POPC  H16S20894   2.743   1.848   4.193 -0.7172 -0.8717  4.2951
  182POPC  C21720895   2.593   1.743   4.054 -0.1878 -0.6147 -0.4204
  182POPC  H17R20896   2.539   1.648   4.071  0.9266 -0.9812  1.1536
  182POPC  H17S20897   2.643   1.748   3.954 -1.1309  2.3601 -0.8064
  182POPC  C21820898   2.496   1.861   4.064 -0.1872  0.7152 -0.4295
  182POPC  H18R20899   2.418   1.842   3.987 -0.4058  0.5667 -0.1697
  182POPC  H18S20900   2.547   1.959   4.049 -0.5726  0.4182 -4.3974
  182POPC  H18T20901   2.449   1.864   4.164 -0.1077 -0.0918 -0.3705
  182POPC   C3320902   2.879   1.247   5.186  0.5634  0.0459  0.0204
  182POPC   H3X20903   2.968   1.302   5.223  2.0954 -0.1207 -3.2787
  182POPC   H3Y20904   2.797   1.323   5.186  1.0016  0.5207 -0.2461
  182POPC   C3420905   2.921   1.201   5.042  0.5459 -0.3346 -0.3605
  182POPC   H4X20906   2.827   1.171   4.991 -0.4393  0.5923  0.8937
  182POPC   H4Y20907   2.991   1.115   5.045 -1.4441 -1.9549  1.3094
  182POPC   C3520908   2.992   1.308   4.955  0.1014 -0.4564 -1.3690
  182POPC   H5X20909   3.076   1.339   5.022 -1.8781  3.3241 -0.5099
  182POPC   H5Y20910   2.937   1.403   4.937 -1.6583 -0.8544  1.6289
  182POPC   C3620911   3.044   1.255   4.825  0.0350 -0.1635 -0.1123
  182POPC   H6X20912   2.956   1.245   4.758 -0.0990 -2.2006  0.3437
  182POPC   H6Y20913   3.072   1.150   4.847 -1.6857 -0.2552  1.7869
  182POPC   C3720914   3.144   1.349   4.753 -0.8498  0.4997  0.1759
  182POPC   H7X20915   3.236   1.358   4.815  0.2832 -1.3534 -1.1665
  182POPC   H7Y20916   3.104   1.452   4.746 -0.0591  0.8095  0.0996
  182POPC   C3820917   3.165   1.305   4.607 -0.0475 -0.9973 -1.3232
  182POPC   H8X20918   3.068   1.289   4.556 -1.3355 -0.7862  0.9885
  182POPC   H8Y20919   3.222   1.210   4.604 -0.0766 -1.0571 -0.3224
  182POPC   C3920920   3.247   1.402   4.527  0.7217  1.1723 -0.5152
  182POPC   H9X20921   3.348   1.409   4.573 -0.3166 -1.8448  2.4497
  182POPC   H9Y20922   3.199   1.500   4.548 -0.0659  0.4461  1.1242
  182POPC  C31020923   3.260   1.367   4.381  0.0888 -0.9707  0.1567
  182POPC  H10X20924   3.174   1.324   4.326 -0.4827  0.4483 -0.0903
  182POPC  H10Y20925   3.333   1.285   4.369  0.8434 -0.1641 -0.8702
  182POPC  C31120926   3.310   1.482   4.298 -0.0513 -0.1348  1.0111
  182POPC  H11X20927   3.381   1.536   4.363  0.1414  0.6444  0.1623
  182POPC  H11Y20928   3.224   1.551   4.282 -0.2526 -0.0875  2.2353
  182POPC  C31220929   3.377   1.428   4.175 -0.5596  0.2179  0.0737
  182POPC  H12X20930   3.300   1.361   4.131  0.7086 -0.8904 -0.5428
  182POPC  H12Y20931   3.466   1.362   4.186 -1.7391 -1.5475 -0.7928
  182POPC  C31320932   3.416   1.531   4.067  0.0513  0.1872  0.2167
  182POPC  H13X20933   3.485   1.479   3.997 -0.7467 -1.8562  0.9066
  182POPC  H13Y20934   3.491   1.600   4.113  2.5705 -1.9644 -0.5237
  182POPC  C31420935   3.314   1.611   3.994 -0.1432 -0.3903 -0.0781
  182POPC  H14X20936   3.267   1.671   4.076  2.6584 -0.1977  1.4346
  182POPC  H14Y20937   3.232   1.548   3.952 -0.3902 -0.2710  0.2146
  182POPC  C31520938   3.374   1.710   3.897 -0.8488 -0.5937  0.4076
  182POPC  H15X20939   3.405   1.647   3.811  1.8231 -0.0759  0.9738
  182POPC  H15Y20940   3.471   1.742   3.940 -0.6902 -0.1095 -0.3117
  182POPC  C31620941   3.281   1.820   3.857  0.1763  0.3319  0.0153
  182POPC  H16X20942   3.267   1.892   3.940  1.1034 -0.4911  0.9081
  182POPC  H16Y20943   3.182   1.779   3.826  1.2249 -1.9176 -0.5109
  182POPC  H16Z20944   3.319   1.880   3.771 -0.5199  0.7611  0.0032
  183POPC     N20945   3.206   0.139   6.448 -0.4695 -0.3233  0.0641
  183POPC   C1220946   3.350   0.126   6.395  0.4719  0.2915  0.5048
  183POPC  H12A20947   3.413   0.065   6.458  1.5821  0.1738 -0.6927
  183POPC  H12B20948   3.395   0.224   6.391 -0.5762  0.8835  2.6940
  183POPC   C1320949   3.140   0.008   6.469  0.4090  0.0699 -0.2214
  183POPC  H13A20950   3.041   0.030   6.507  1.9340 -0.2075  4.2948
  183POPC  H13B20951   3.131  -0.050   6.378 -0.9580 -0.7778  0.4370
  183POPC  H13C20952   3.195  -0.049   6.543  0.8705  1.0138  0.1700
  183POPC   C1420953   3.214   0.210   6.580  0.6631  0.3482  0.2765
  183POPC  H14A20954   3.272   0.300   6.569  0.5560  0.4318  0.3976
  183POPC  H14B20955   3.120   0.247   6.618  1.4329  1.7584  0.8520
  183POPC  H14C20956   3.261   0.146   6.654  0.1421 -0.1927  0.1441
  183POPC   C1520957   3.112   0.211   6.362  0.0230 -0.1405  0.5135
  183POPC  H15A20958   3.014   0.202   6.406 -1.0278  1.6167 -1.3798
  183POPC  H15B20959   3.092   0.168   6.265  1.5428  1.3663 -0.5047
  183POPC  H15C20960   3.138   0.315   6.351 -1.0071  0.1790  1.0726
  183POPC   C1120961   3.364   0.071   6.241  0.1364  0.1682 -0.1303
  183POPC  H11A20962   3.473   0.067   6.223  0.2221  0.2421  0.3612
  183POPC  H11B20963   3.317   0.159   6.192 -1.7519 -0.5672  0.2850
  183POPC     P20964   3.177  -0.072   6.106 -0.1722  0.4310 -0.4336
  183POPC   O1320965   3.178   0.032   6.002 -1.0003  0.5640 -0.2647
  183POPC   O1420966   3.049  -0.093   6.175 -0.7992 -0.0124 -0.2933
  183POPC   O1220967   3.288  -0.048   6.214 -0.3355 -0.2850  0.5026
  183POPC   O1120968   3.230  -0.207   6.032 -0.9060 -0.2780 -0.2374
  183POPC    C120969   3.374  -0.228   6.006  0.5759  0.4184  0.9664
  183POPC    HA20970   3.400  -0.322   6.059 -1.3906 -0.3196  0.6797
  183POPC    HB20971   3.435  -0.146   6.049 -0.1428  0.8710  1.1342
  183POPC    C220972   3.405  -0.242   5.860 -0.5124  0.0657  0.2665
  183POPC    HS20973   3.516  -0.247   5.852 -0.3741  2.5722  0.2648
  183POPC   O2120974   3.351  -0.133   5.777 -0.2713 -0.0857  0.6975
  183POPC   C2120975   3.390  -0.009   5.799  0.8094 -0.2400  0.0705
  183POPC   O2220976   3.486   0.020   5.869  0.4942 -0.0822  0.5663
  183POPC   C2220977   3.302   0.097   5.732  0.0541 -0.6489  0.0205
  183POPC   H2R20978   3.282   0.180   5.803 -0.6618 -0.1226 -0.7971
  183POPC   H2S20979   3.196   0.067   5.720 -1.0997  3.4665 -0.5673
  183POPC    C320980   3.346  -0.377   5.796 -0.2789 -0.1390  0.4488
  183POPC    HX20981   3.237  -0.357   5.801 -0.5153 -1.7822  2.5202
  183POPC    HY20982   3.373  -0.458   5.867  2.6363  1.8261  1.6712
  183POPC   O3120983   3.373  -0.407   5.657 -0.5277 -0.2074 -0.2818
  183POPC   C3120984   3.505  -0.408   5.638 -0.4384  0.8148  0.3817
  183POPC   O3220985   3.598  -0.428   5.717 -0.2809  0.3111  0.2723
  183POPC   C3220986   3.531  -0.362   5.489 -0.9589  0.4279  0.2269
  183POPC   H2X20987   3.576  -0.260   5.490 -1.5733  0.7184 -0.8621
  183POPC   H2Y20988   3.438  -0.350   5.430 -0.8407  0.4490  0.0454
  183POPC   C2320989   3.364   0.148   5.600  0.0454  0.4347 -0.0089
  183POPC   H3R20990   3.472   0.167   5.619 -0.0622 -1.6643  2.9735
  183POPC   H3S20991   3.308   0.242   5.580 -0.3797 -0.0033 -0.8867
  183POPC   C2420992   3.329   0.059   5.485 -0.1820 -0.1152 -0.2717
  183POPC   H4R20993   3.222   0.068   5.457  0.1563  0.6353 -1.3455
  183POPC   H4S20994   3.327  -0.044   5.527  1.1028  1.4101  3.7872
  183POPC   C2520995   3.417   0.048   5.362 -0.1251  0.0347 -0.2116
  183POPC   H5R20996   3.520   0.035   5.401 -0.9600  1.9945  2.7867
  183POPC   H5S20997   3.417   0.147   5.311 -0.7927 -0.7160 -1.7122
  183POPC   C2620998   3.374  -0.066   5.267  0.2406 -0.4482  0.0308
  183POPC   H6R20999   3.270  -0.051   5.232  1.0396  1.8544 -1.4566
  183POPC   H6S21000   3.380  -0.165   5.318  1.1366 -1.9823 -2.9220
  183POPC   C2721001   3.456  -0.060   5.136 -0.0144  0.2935  0.7341
  183POPC   H7R21002   3.559  -0.083   5.170 -0.3130  0.4117  1.7494
  183POPC   H7S21003   3.455   0.040   5.088 -1.1126 -0.3192 -0.5659
  183POPC   C2821004   3.413  -0.158   5.014 -0.0138 -0.1701 -0.3289
  183POPC   H8R21005   3.305  -0.132   5.011 -0.0462  0.3122  2.7592
  183POPC   H8S21006   3.426  -0.267   5.031  0.1909 -0.1148 -0.1309
  183POPC   C2921007   3.462  -0.114   4.879 -0.0979 -0.5392 -0.1929
  183POPC   H9121008   3.460  -0.004   4.871  0.2184 -0.4722  0.5425
  183POPC  C21021009   3.483  -0.195   4.776  0.0675 -0.6868 -0.8387
  183POPC  H10121010   3.505  -0.151   4.677  1.5796  1.0703  0.2641
  183POPC  C21121011   3.463  -0.344   4.778  0.3043 -0.1840 -0.6843
  183POPC  H11R21012   3.354  -0.350   4.755 -0.2719 -0.3456  1.9217
  183POPC  H11S21013   3.494  -0.369   4.882  3.1644  3.1515 -0.6611
  183POPC  C21221014   3.524  -0.435   4.671  0.0230  0.6073  0.0498
  183POPC  H12R21015   3.475  -0.403   4.577 -0.8990  0.1247  0.3617
  183POPC  H12S21016   3.499  -0.543   4.675  0.5212  0.4224 -1.5848
  183POPC  C21321017   3.675  -0.427   4.667 -0.2139 -0.0526  0.0244
  183POPC  H13R21018   3.710  -0.486   4.755 -1.6554  0.0322  0.6628
  183POPC  H13S21019   3.730  -0.331   4.676 -1.6736  0.7725  0.1880
  183POPC  C21421020   3.738  -0.506   4.548 -0.2064 -0.5974 -0.0168
  183POPC  H14R21021   3.710  -0.450   4.456  1.5974  0.7889  0.2372
  183POPC  H14S21022   3.697  -0.605   4.522  1.3705 -1.3636  0.3594
  183POPC  C21521023   3.892  -0.512   4.547 -0.2910  0.0727  0.2192
  183POPC  H15R21024   3.927  -0.580   4.628 -0.0306  0.8863  0.7961
  183POPC  H15S21025   3.929  -0.408   4.555 -0.3684  0.0599  0.8041
  183POPC  C21621026   3.941  -0.576   4.412 -0.7719  0.0222  0.0000
  183POPC  H16R21027   3.905  -0.522   4.321 -0.7651 -1.7240 -1.0603
  183POPC  H16S21028   3.893  -0.674   4.427  0.6822 -0.5890  0.7447
  183POPC  C21721029   4.096  -0.601   4.399  0.5315 -0.2387 -0.4491
  183POPC  H17R21030   4.118  -0.650   4.302  1.7473 -0.0362 -0.2822
  183POPC  H17S21031   4.132  -0.661   4.485  0.0600 -0.4035 -0.3667
  183POPC  C21821032   4.181  -0.468   4.399  0.3533  0.4205  0.0545
  183POPC  H18R21033   4.287  -0.500   4.411  0.8692  1.2055 -2.1427
  183POPC  H18S21034   4.159  -0.393   4.479  1.7661  0.1966  0.6838
  183POPC  H18T21035   4.167  -0.423   4.299  1.3254 -1.5889 -1.0123
  183POPC   C3321036   3.625  -0.463   5.425  0.8492  0.1003 -0.3866
  183POPC   H3X21037   3.577  -0.564   5.428  0.5680  0.2691  1.0177
  183POPC   H3Y21038   3.719  -0.473   5.483  0.9420 -0.4837 -0.6249
  183POPC   C3421039   3.664  -0.437   5.278  0.0245 -0.0387  0.4781
  183POPC   H4X21040   3.709  -0.336   5.274 -1.1436  0.4685 -0.0956
  183POPC   H4Y21041   3.571  -0.439   5.217  0.6608 -0.7725 -0.4938
  183POPC   C3521042   3.760  -0.535   5.214 -0.1228 -0.0340 -0.4199
  183POPC   H5X21043   3.727  -0.641   5.212  0.0940 -0.1021 -0.4125
  183POPC   H5Y21044   3.848  -0.528   5.281 -1.4962 -0.1227  1.4336
  183POPC   C3621045   3.806  -0.483   5.073 -0.4840  0.3533 -0.4499
  183POPC   H6X21046   3.811  -0.374   5.095  0.3569  0.1618  0.3407
  183POPC   H6Y21047   3.729  -0.513   4.999 -0.6070 -1.1245  0.2387
  183POPC   C3721048   3.945  -0.526   5.025  0.2073  0.0506 -0.0825
  183POPC   H7X21049   3.915  -0.625   4.985  0.1539  0.3381 -0.7741
  183POPC   H7Y21050   4.011  -0.539   5.113 -0.4712 -1.3010  0.2283
  183POPC   C3821051   4.016  -0.421   4.930  0.7099  0.1356  0.1848
  183POPC   H8X21052   4.048  -0.339   4.997  0.1220  0.2888  0.2815
  183POPC   H8Y21053   3.943  -0.393   4.850  0.6425 -0.0290  0.1879
  183POPC   C3921054   4.136  -0.486   4.858  0.2287  0.1604 -0.0726
  183POPC   H9X21055   4.096  -0.567   4.793  3.4807 -0.1275 -1.7918
  183POPC   H9Y21056   4.205  -0.537   4.929  2.7559  0.5964 -2.1741
  183POPC  C31021057   4.210  -0.383   4.774  0.2306  0.4982 -0.6975
  183POPC  H10X21058   4.216  -0.292   4.838  1.2774 -0.0465 -0.0150
  183POPC  H10Y21059   4.150  -0.360   4.683  1.2777 -1.3877 -1.8953
  183POPC  C31121060   4.347  -0.450   4.758 -0.2091 -0.2439 -0.4153
  183POPC  H11X21061   4.326  -0.549   4.711 -0.1544 -0.7496  0.6313
  183POPC  H11Y21062   4.403  -0.453   4.853  0.9832 -2.7059 -1.1600
  183POPC  C31221063   4.441  -0.373   4.660 -0.6541  0.8636 -0.4587
  183POPC  H12X21064   4.455  -0.269   4.695  0.2890 -0.1376  2.3208
  183POPC  H12Y21065   4.411  -0.378   4.553 -0.3272  0.1671 -0.5195
  183POPC  C31321066   4.574  -0.438   4.655 -0.9535  0.0239  0.4349
  183POPC  H13X21067   4.567  -0.548   4.637  3.0199 -0.4017  0.9127
  183POPC  H13Y21068   4.630  -0.426   4.750 -0.5370 -1.5930  0.4208
  183POPC  C31421069   4.664  -0.377   4.536 -0.0888  0.3767 -0.5863
  183POPC  H14X21070   4.686  -0.270   4.551 -1.9521  0.5532  1.1092
  183POPC  H14Y21071   4.602  -0.385   4.444 -1.0150 -1.2089  0.1529
  183POPC  C31521072   4.788  -0.461   4.493  0.2787  0.4556  0.0673
  183POPC  H15X21073   4.743  -0.556   4.458  1.6428 -0.5769  1.0330
  183POPC  H15Y21074   4.847  -0.487   4.584  0.5362  0.5630 -0.0682
  183POPC  C31621075   4.876  -0.396   4.389 -0.7543 -0.9590 -0.8604
  183POPC  H16X21076   4.815  -0.405   4.297  2.4160 -1.7701 -2.9669
  183POPC  H16Y21077   4.969  -0.453   4.368  0.5270  0.0057  1.9421
  183POPC  H16Z21078   4.901  -0.291   4.413 -1.5780 -0.6350 -1.3944
  184POPC     N21079   4.324   0.021   6.176 -0.4406 -0.4208 -0.8549
  184POPC   C1221080   4.470   0.054   6.155 -0.3772 -0.3873  0.0346
  184POPC  H12A21081   4.513   0.044   6.254 -1.5668 -1.5458  0.4509
  184POPC  H12B21082   4.489   0.157   6.131  0.4427  0.3304  3.5639
  184POPC   C1321083   4.240   0.044   6.047 -0.6507  0.0200 -0.5097
  184POPC  H13A21084   4.287  -0.006   5.963  1.1740 -0.5313  0.8136
  184POPC  H13B21085   4.144  -0.003   6.065 -1.0300  0.3708 -1.5372
  184POPC  H13C21086   4.216   0.145   6.018  1.2845  0.2131 -1.5265
  184POPC   C1421087   4.303  -0.118   6.221  0.8508  1.1256  0.3154
  184POPC  H14A21088   4.364  -0.127   6.310 -0.5939  1.2713  1.3409
  184POPC  H14B21089   4.197  -0.131   6.239  0.3631  2.6985 -1.3082
  184POPC  H14C21090   4.349  -0.188   6.153 -0.1554  0.6271  0.1331
  184POPC   C1521091   4.263   0.122   6.275  0.2675 -0.1468 -0.1584
  184POPC  H15A21092   4.163   0.089   6.297  0.4389  0.7571  2.0701
  184POPC  H15B21093   4.261   0.224   6.238 -1.5536  0.0432  0.4472
  184POPC  H15C21094   4.321   0.141   6.364  0.2840  2.5991 -0.6902
  184POPC   C1121095   4.542  -0.035   6.054  0.2214  0.2922 -0.0836
  184POPC  H11A21096   4.642  -0.005   6.017  1.1574 -3.2195 -0.5688
  184POPC  H11B21097   4.487  -0.018   5.959  0.7167 -0.9300 -0.5951
  184POPC     P21098   4.635  -0.211   6.199  0.7932 -0.3847  0.0628
  184POPC   O1321099   4.636  -0.358   6.207 -0.1858 -0.3496 -0.0533
  184POPC   O1421100   4.611  -0.139   6.327 -0.6047 -0.5438  0.1458
  184POPC   O1221101   4.534  -0.170   6.084 -0.2231  0.0116  0.0011
  184POPC   O1121102   4.763  -0.160   6.126 -0.8152  0.4220 -0.3344
  184POPC    C121103   4.868  -0.239   6.079  0.8155 -0.4298  0.9045
  184POPC    HA21104   4.827  -0.330   6.029 -1.0028  0.2502  1.1236
  184POPC    HB21105   4.942  -0.267   6.157 -1.3014 -0.1256  3.0975
  184POPC    C221106   4.939  -0.162   5.962  0.5701  0.6252  0.4003
  184POPC    HS21107   4.985  -0.068   6.000  0.9087 -0.0268  1.5927
  184POPC   O2121108   4.837  -0.127   5.862  0.4090  0.2139 -0.2400
  184POPC   C2121109   4.887  -0.072   5.748 -0.8019  0.3708 -0.6506
  184POPC   O2221110   4.993  -0.013   5.734 -0.1293 -0.6834 -0.4726
  184POPC   C2221111   4.786  -0.093   5.632 -0.1137  0.2732 -0.6341
  184POPC   H2R21112   4.714  -0.009   5.622 -1.3352 -0.6811 -0.0396
  184POPC   H2S21113   4.745  -0.195   5.651  0.9209  0.3242  2.1037
  184POPC    C321114   5.058  -0.255   5.897  0.3693 -0.3903 -0.9287
  184POPC    HX21115   5.117  -0.296   5.982 -2.7255 -0.7897  1.0799
  184POPC    HY21116   5.118  -0.181   5.839 -3.3381  1.6912 -2.2507
  184POPC   O3121117   5.000  -0.360   5.818 -0.0962 -0.0889 -0.0462
  184POPC   C3121118   5.097  -0.416   5.746 -0.1058 -0.0059 -0.4584
  184POPC   O3221119   5.216  -0.382   5.744 -0.0315 -0.4372 -0.6783
  184POPC   C3221120   5.034  -0.505   5.637  0.3821 -0.4703  0.0136
  184POPC   H2X21121   4.931  -0.469   5.619  1.3052  1.8324 -0.7876
  184POPC   H2Y21122   5.024  -0.606   5.683 -2.8288  0.9359  2.5583
  184POPC   C2321123   4.869  -0.110   5.500  0.0309 -0.2852 -0.9643
  184POPC   H3R21124   4.924  -0.207   5.499 -1.5233 -1.2650  2.3048
  184POPC   H3S21125   4.939  -0.024   5.494  1.8127 -1.4431  2.0130
  184POPC   C2421126   4.778  -0.121   5.381 -0.4359 -0.8010  0.8712
  184POPC   H4R21127   4.702  -0.201   5.392  1.9089 -2.9480  1.6832
  184POPC   H4S21128   4.838  -0.162   5.297 -1.3239 -0.9224  0.2894
  184POPC   C2521129   4.714   0.020   5.364 -0.6698 -0.2036 -0.1242
  184POPC   H5R21130   4.730   0.065   5.263 -1.2850 -0.0932 -0.1748
  184POPC   H5S21131   4.760   0.097   5.430  0.3875 -0.7632 -0.1895
  184POPC   C2621132   4.563   0.017   5.391 -0.5677 -0.5503 -0.0117
  184POPC   H6R21133   4.537  -0.082   5.433  2.9579 -0.2623  3.1396
  184POPC   H6S21134   4.527   0.020   5.286  0.0954 -1.6729 -0.2753
  184POPC   C2721135   4.523   0.141   5.472  0.2217 -0.0687 -0.1414
  184POPC   H7R21136   4.585   0.223   5.432  0.3331 -0.7748 -1.4342
  184POPC   H7S21137   4.541   0.121   5.580  1.9754  1.3546 -0.1639
  184POPC   C2821138   4.377   0.186   5.448  0.1135 -0.8950  0.0967
  184POPC   H8R21139   4.322   0.093   5.474  2.4738 -2.8618 -1.7530
  184POPC   H8S21140   4.356   0.205   5.341  2.7776 -0.9106 -0.4530
  184POPC   C2921141   4.326   0.308   5.526  0.5371  0.1378 -0.5088
  184POPC   H9121142   4.281   0.293   5.625 -1.3159  0.1538 -1.3310
  184POPC  C21021143   4.347   0.437   5.494  0.5126 -0.5729  0.1151
  184POPC  H10121144   4.313   0.519   5.558 -1.1474 -0.9422 -0.2852
  184POPC  C21121145   4.424   0.496   5.382 -0.3378 -0.0131  0.4031
  184POPC  H11R21146   4.447   0.409   5.318  1.1822  0.5389  0.1648
  184POPC  H11S21147   4.519   0.536   5.423 -2.1360  0.8914  3.8610
  184POPC  C21221148   4.348   0.598   5.297 -0.2876  0.8823 -0.0009
  184POPC  H12R21149   4.345   0.686   5.365  2.1591  1.8439 -1.0792
  184POPC  H12S21150   4.245   0.561   5.274  0.6541 -2.4605  0.9302
  184POPC  C21321151   4.420   0.634   5.168  0.4820 -0.0975  0.2742
  184POPC  H13R21152   4.440   0.551   5.097 -2.0765  0.5295 -1.2481
  184POPC  H13S21153   4.519   0.671   5.201  0.9640  1.6113 -2.8839
  184POPC  C21421154   4.355   0.753   5.088 -0.5195 -0.1356 -0.4704
  184POPC  H14R21155   4.341   0.848   5.144  0.7375  0.2000 -0.7072
  184POPC  H14S21156   4.250   0.717   5.081 -0.0591 -1.3562 -1.1676
  184POPC  C21521157   4.423   0.779   4.953  0.4576 -0.2998  0.5467
  184POPC  H15R21158   4.426   0.683   4.897 -0.3969 -0.4809  0.8070
  184POPC  H15S21159   4.523   0.823   4.974  0.5608  0.0461 -0.6212
  184POPC  C21621160   4.340   0.880   4.868  0.2292  0.4245  0.2403
  184POPC  H16R21161   4.332   0.973   4.929 -1.1666  0.5298 -0.0862
  184POPC  H16S21162   4.243   0.833   4.840 -0.1897 -0.0421  2.3923
  184POPC  C21721163   4.407   0.911   4.743 -0.8797 -0.3589  0.2030
  184POPC  H17R21164   4.409   0.812   4.694  0.5787  0.3857 -1.2913
  184POPC  H17S21165   4.514   0.938   4.759 -1.0516 -0.0899  0.9352
  184POPC  C21821166   4.343   1.011   4.652 -0.1402 -0.0823 -0.0507
  184POPC  H18R21167   4.325   1.107   4.704 -0.5745  0.2931 -0.8791
  184POPC  H18S21168   4.242   0.968   4.633 -0.4697  0.5619  0.2186
  184POPC  H18T21169   4.402   1.028   4.559  3.3945 -1.4911  1.8331
  184POPC   C3321170   5.114  -0.506   5.502 -0.7014 -0.7083  0.3285
  184POPC   H3X21171   5.214  -0.551   5.518  0.1157  0.9653 -0.0309
  184POPC   H3Y21172   5.130  -0.400   5.476  0.3602 -0.6591  1.1696
  184POPC   C3421173   5.025  -0.570   5.395 -0.0023  0.1984  0.4252
  184POPC   H4X21174   4.973  -0.663   5.426  0.3003 -0.2476 -0.4065
  184POPC   H4Y21175   5.094  -0.607   5.317  0.0408  0.1010  0.5099
  184POPC   C3521176   4.920  -0.477   5.346 -0.1527 -0.2265 -0.2291
  184POPC   H5X21177   4.957  -0.403   5.271 -0.1408  1.4203  1.3712
  184POPC   H5Y21178   4.872  -0.419   5.428 -0.7698 -1.1746  0.0898
  184POPC   C3621179   4.804  -0.551   5.280  0.6762 -1.2180 -0.6903
  184POPC   H6X21180   4.713  -0.490   5.263  0.3330 -1.5648 -0.1276
  184POPC   H6Y21181   4.777  -0.629   5.355  0.6228 -0.2680  0.2773
  184POPC   C3721182   4.830  -0.613   5.145 -0.4082  0.0475  0.6135
  184POPC   H7X21183   4.923  -0.673   5.159  1.2442  2.5870  0.9588
  184POPC   H7Y21184   4.852  -0.542   5.062 -0.5567 -1.0548 -0.3719
  184POPC   C3821185   4.713  -0.698   5.099  0.2960  0.9441  0.4688
  184POPC   H8X21186   4.624  -0.633   5.111 -0.7013 -0.7612  2.3648
  184POPC   H8Y21187   4.707  -0.791   5.159  0.7765  0.4444 -0.2478
  184POPC   C3921188   4.731  -0.732   4.952  0.9486  0.4241  0.4448
  184POPC   H9X21189   4.737  -0.634   4.899 -0.6530  1.3896  1.9657
  184POPC   H9Y21190   4.636  -0.779   4.921  0.8169  1.3287 -0.5181
  184POPC  C31021191   4.848  -0.823   4.909 -0.1997 -0.6595 -0.3949
  184POPC  H10X21192   4.834  -0.922   4.958 -0.9703 -0.8718 -1.0552
  184POPC  H10Y21193   4.947  -0.793   4.950 -0.3307 -1.3919  0.4604
  184POPC  C31121194   4.850  -0.824   4.753 -0.0104  0.4014 -0.2544
  184POPC  H11X21195   4.843  -0.725   4.703 -1.1585  0.3156 -0.2736
  184POPC  H11Y21196   4.767  -0.894   4.728 -0.0725  0.9216 -1.5335
  184POPC  C31221197   4.980  -0.888   4.701 -0.5761 -0.2083  0.3382
  184POPC  H12X21198   4.950  -0.922   4.600 -0.4514 -0.1774  0.2917
  184POPC  H12Y21199   4.999  -0.982   4.758 -2.6017 -0.9112 -0.0909
  184POPC  C31321200   5.104  -0.795   4.687 -0.4626  0.4517  0.2391
  184POPC  H13X21201   5.126  -0.748   4.785 -1.2772  0.7921  0.2645
  184POPC  H13Y21202   5.070  -0.712   4.622  0.3382  1.0010  0.5214
  184POPC  C31421203   5.229  -0.868   4.634  0.3291 -1.3455 -1.3458
  184POPC  H14X21204   5.206  -0.900   4.531 -2.9434  1.2035 -1.4857
  184POPC  H14Y21205   5.239  -0.956   4.701 -1.5358 -0.4718  0.1309
  184POPC  C31521206   5.349  -0.778   4.655 -0.3154  0.9495 -0.2204
  184POPC  H15X21207   5.360  -0.771   4.765 -0.2768  1.2626 -0.2439
  184POPC  H15Y21208   5.336  -0.676   4.612 -1.3930  0.4419 -1.1444
  184POPC  C31621209   5.466  -0.853   4.598  0.7560  0.2130  0.5960
  184POPC  H16X21210   5.550  -0.781   4.587  1.3265 -0.1985  2.1548
  184POPC  H16Y21211   5.446  -0.902   4.500  2.3499 -1.9593  1.3135
  184POPC  H16Z21212   5.493  -0.947   4.651  2.8475  1.9546  2.6871
  185POPC     N21213   4.181   3.368   2.139 -0.1892  0.2467  0.1199
  185POPC   C1221214   4.097   3.489   2.171  0.6336 -0.3299  0.0826
  185POPC  H12A21215   3.994   3.464   2.189  0.8352 -2.8428 -2.0486
  185POPC  H12B21216   4.104   3.547   2.080 -2.7616  0.7868  0.4669
  185POPC   C1321217   4.157   3.328   2.000 -0.5616  0.7086  0.4865
  185POPC  H13A21218   4.221   3.253   1.956 -1.8433  0.7133 -1.4443
  185POPC  H13B21219   4.052   3.306   1.985 -0.5826  0.9177  0.3262
  185POPC  H13C21220   4.168   3.409   1.930 -0.9490 -0.8912 -1.4857
  185POPC   C1421221   4.326   3.403   2.145 -0.0628 -0.1717  0.0459
  185POPC  H14A21222   4.336   3.506   2.114  2.4672 -1.0963 -2.4094
  185POPC  H14B21223   4.367   3.393   2.244  2.0721  0.0914 -0.7867
  185POPC  H14C21224   4.379   3.341   2.074  1.0437  0.0523  0.6670
  185POPC   C1521225   4.151   3.257   2.237 -0.7216  0.1392 -0.1710
  185POPC  H15A21226   4.164   3.294   2.337  1.1277 -0.3689 -0.2059
  185POPC  H15B21227   4.219   3.174   2.223 -0.7349 -0.0739  1.0102
  185POPC  H15C21228   4.050   3.223   2.215  0.4958 -2.2156 -2.4185
  185POPC   C1121229   4.140   3.578   2.297  0.0639 -0.1460 -0.0392
  185POPC  H11A21230   4.066   3.661   2.307  1.2699  0.9956 -0.4532
  185POPC  H11B21231   4.239   3.616   2.267 -0.6357  2.8133  1.2264
  185POPC     P21232   4.032   3.467   2.500  0.0998  0.4922  0.1152
  185POPC   O1321233   3.926   3.410   2.415 -0.5126  0.2229  0.1940
  185POPC   O1421234   3.997   3.590   2.585 -0.4658  0.0692  0.0020
  185POPC   O1221235   4.159   3.504   2.417 -0.2004 -0.6208 -0.5829
  185POPC   O1121236   4.089   3.353   2.594 -0.3985  0.3686  0.3852
  185POPC    C121237   4.229   3.341   2.637 -0.1892 -0.4955  0.3008
  185POPC    HA21238   4.223   3.384   2.739  0.0383 -1.2048  0.6133
  185POPC    HB21239   4.303   3.399   2.577  0.5596 -1.7721 -0.0384
  185POPC    C221240   4.272   3.191   2.640  0.1878 -0.1774 -0.2403
  185POPC    HS21241   4.251   3.151   2.538 -0.1966  0.5246 -0.4403
  185POPC   O2121242   4.214   3.124   2.747  0.5701  0.2094  0.0553
  185POPC   C2121243   4.095   3.058   2.718 -0.3600  0.1159  0.5837
  185POPC   O2221244   4.045   3.045   2.608 -0.1361  0.7790  0.3125
  185POPC   C2221245   4.047   3.007   2.849 -0.4922 -0.3364  0.5025
  185POPC   H2R21246   3.937   3.016   2.857 -0.4763  0.3309 -0.0389
  185POPC   H2S21247   4.089   3.065   2.935 -1.9456  0.5331  0.6385
  185POPC    C321248   4.429   3.188   2.653  0.4274  0.1975  0.1584
  185POPC    HX21249   4.473   3.236   2.562 -0.5417  0.5546 -0.1282
  185POPC    HY21250   4.465   3.083   2.651 -1.5314 -0.4883 -0.4489
  185POPC   O3121251   4.471   3.253   2.773 -0.1599  0.2503 -0.0281
  185POPC   C3121252   4.491   3.177   2.874  0.9824 -0.3065 -0.6473
  185POPC   O3221253   4.473   3.058   2.886 -0.5410 -0.0102  0.0431
  185POPC   C3221254   4.542   3.260   2.989 -0.3609 -1.0229  1.2058
  185POPC   H2X21255   4.642   3.290   2.951 -0.4782 -0.9528  0.9523
  185POPC   H2Y21256   4.557   3.199   3.080  1.5284 -0.2529  1.4373
  185POPC   C2321257   4.083   2.856   2.852  0.4439 -0.0098 -0.4110
  185POPC   H3R21258   4.192   2.837   2.851  0.3147 -0.8380  0.3311
  185POPC   H3S21259   4.039   2.810   2.761  0.5461  1.0442 -1.0011
  185POPC   C2421260   4.029   2.794   2.986  0.0109 -0.8932  0.4669
  185POPC   H4R21261   4.035   2.683   2.978 -2.3618 -1.0322  0.4327
  185POPC   H4S21262   3.923   2.820   3.007  0.5696  0.6852  1.4053
  185POPC   C2521263   4.113   2.844   3.112 -0.0747  1.0323 -0.2020
  185POPC   H5R21264   4.120   2.954   3.101 -0.4732  1.1851  0.9812
  185POPC   H5S21265   4.215   2.802   3.094  0.1105  1.1976  0.4195
  185POPC   C2621266   4.063   2.809   3.250  0.1972 -0.6096  0.2575
  185POPC   H6R21267   4.070   2.698   3.260  0.0236 -0.7555 -1.1687
  185POPC   H6S21268   3.958   2.842   3.260  0.9188  2.8219 -2.7814
  185POPC   C2721269   4.134   2.889   3.358  0.0960  0.0284 -0.6050
  185POPC   H7R21270   4.091   2.862   3.457 -0.6673  0.4310 -0.8315
  185POPC   H7S21271   4.116   2.998   3.349  0.8904  0.0336 -2.5199
  185POPC   C2821272   4.286   2.861   3.368 -0.4078 -0.9408 -0.3895
  185POPC   H8R21273   4.338   2.911   3.283  3.1511 -2.7974  0.6010
  185POPC   H8S21274   4.304   2.753   3.351  0.0057 -0.9475  0.0877
  185POPC   C2921275   4.338   2.912   3.499 -0.1490  0.7354 -0.4807
  185POPC   H9121276   4.375   3.015   3.504  0.9137  0.2974  0.7996
  185POPC  C21021277   4.375   2.828   3.603  0.2289  0.1616  0.1074
  185POPC  H10121278   4.404   2.871   3.700 -1.5922  2.0453 -0.1534
  185POPC  C21121279   4.356   2.672   3.603  0.5863 -0.4027 -0.7351
  185POPC  H11R21280   4.442   2.634   3.663  0.1331 -0.5814 -0.1983
  185POPC  H11S21281   4.369   2.622   3.504 -1.5815 -1.4499 -0.5155
  185POPC  C21221282   4.216   2.619   3.651  0.1782  0.1273 -0.5500
  185POPC  H12R21283   4.142   2.639   3.570  0.6167  4.4596 -0.0382
  185POPC  H12S21284   4.179   2.676   3.739 -1.3460 -1.6320 -0.0423
  185POPC  C21321285   4.213   2.461   3.679 -0.0878 -0.7254  0.3518
  185POPC  H13R21286   4.282   2.437   3.763  1.8093  0.6994 -0.7606
  185POPC  H13S21287   4.249   2.405   3.590  0.0466 -1.9807  1.1813
  185POPC  C21421288   4.069   2.420   3.716  0.4029  0.1534 -0.2079
  185POPC  H14R21289   3.992   2.465   3.650 -0.2398 -3.7858 -2.2838
  185POPC  H14S21290   4.025   2.454   3.812 -4.4660 -1.4265 -1.7221
  185POPC  C21521291   4.042   2.268   3.721  0.1998  0.6872  0.0837
  185POPC  H15R21292   3.936   2.243   3.697 -0.3274  2.1109  0.8287
  185POPC  H15S21293   4.045   2.228   3.825 -0.0024 -0.4399 -0.3423
  185POPC  C21621294   4.130   2.186   3.624 -0.0986  0.3470 -0.1598
  185POPC  H16R21295   4.237   2.191   3.654 -0.2780 -0.3668  0.6427
  185POPC  H16S21296   4.115   2.229   3.523  0.0365 -1.2420 -0.8772
  185POPC  C21721297   4.090   2.039   3.611  0.0567  0.6581 -0.6597
  185POPC  H17R21298   4.161   1.998   3.536 -0.6826 -1.1516 -0.3990
  185POPC  H17S21299   3.989   2.027   3.567 -0.1956  3.2887 -0.9049
  185POPC  C21821300   4.088   1.956   3.740 -0.4885 -0.2998  0.1357
  185POPC  H18R21301   3.986   1.964   3.783 -0.1002  1.3830  0.8079
  185POPC  H18S21302   4.170   1.984   3.809  2.1296 -0.9094 -2.6349
  185POPC  H18T21303   4.102   1.851   3.705  0.7683 -0.0027 -0.2687
  185POPC   C3321304   4.453   3.375   3.014 -0.6620 -0.2244 -0.9011
  185POPC   H3X21305   4.415   3.427   2.923  1.0755  0.5314 -1.2140
  185POPC   H3Y21306   4.510   3.444   3.079 -1.5359  0.3470 -0.7268
  185POPC   C3421307   4.337   3.335   3.111  0.1500  0.6162 -0.0481
  185POPC   H4X21308   4.285   3.240   3.087  0.8046  0.6356 -1.5999
  185POPC   H4Y21309   4.268   3.420   3.089  0.2490 -0.0006 -3.0275
  185POPC   C3521310   4.367   3.327   3.262 -0.3514 -0.6618  0.4543
  185POPC   H5X21311   4.396   3.430   3.292  2.3178 -0.8947 -1.2439
  185POPC   H5Y21312   4.451   3.261   3.292 -0.6526 -0.9947  0.5753
  185POPC   C3621313   4.241   3.279   3.341 -1.3293  0.4967  0.0939
  185POPC   H6X21314   4.211   3.174   3.317 -2.2054  0.3928  1.5583
  185POPC   H6Y21315   4.162   3.348   3.306 -1.5662 -0.3993 -1.1814
  185POPC   C3721316   4.263   3.282   3.486  0.8005  0.7562 -0.3087
  185POPC   H7X21317   4.296   3.384   3.516  0.1722  0.8064  0.2103
  185POPC   H7Y21318   4.349   3.216   3.512 -0.6818 -1.3325 -0.6045
  185POPC   C3821319   4.127   3.250   3.560 -0.7621  0.8460  0.0540
  185POPC   H8X21320   4.059   3.203   3.486 -0.1003  2.3961 -1.5862
  185POPC   H8Y21321   4.084   3.349   3.583 -0.3210  0.7646  1.2363
  185POPC   C3921322   4.152   3.184   3.691 -0.2542 -0.2796  0.4945
  185POPC   H9X21323   4.214   3.246   3.759  1.4734 -2.0771  0.6095
  185POPC   H9Y21324   4.203   3.086   3.679  2.9498  1.3416  0.3670
  185POPC  C31021325   4.022   3.162   3.769  0.0595 -0.3009 -0.3369
  185POPC  H10X21326   3.948   3.096   3.718 -0.2445 -0.8191  0.7490
  185POPC  H10Y21327   3.976   3.262   3.782 -0.5685 -0.3295 -2.1854
  185POPC  C31121328   4.050   3.099   3.910 -0.6022 -0.0012  0.2566
  185POPC  H11X21329   3.958   3.122   3.967  0.6421  2.3230  1.4254
  185POPC  H11Y21330   4.132   3.153   3.962 -0.1726 -2.0350  1.7184
  185POPC  C31221331   4.070   2.946   3.890 -0.5970  0.1266 -0.2319
  185POPC  H12X21332   4.164   2.931   3.834 -0.3604  0.0338  0.1846
  185POPC  H12Y21333   3.985   2.917   3.825 -1.3897 -0.2625  0.9470
  185POPC  C31321334   4.065   2.856   4.018  0.4403 -0.1579 -0.2022
  185POPC  H13X21335   3.965   2.872   4.064  0.7276 -3.2133  1.6002
  185POPC  H13Y21336   4.141   2.890   4.091 -0.3645 -1.1489  1.1183
  185POPC  C31421337   4.096   2.706   3.985 -0.1983  0.4072  0.2192
  185POPC  H14X21338   4.193   2.691   3.932 -0.8727 -0.4222 -0.8109
  185POPC  H14Y21339   4.020   2.681   3.908  0.3513 -2.1349  0.4526
  185POPC  C31521340   4.089   2.605   4.101 -0.6237  0.2348 -0.1782
  185POPC  H15X21341   3.983   2.586   4.130 -1.3146  1.6508 -1.6731
  185POPC  H15Y21342   4.138   2.631   4.197  0.3341 -0.4267 -0.4822
  185POPC  C31621343   4.145   2.467   4.081 -0.0571 -0.0789  0.5000
  185POPC  H16X21344   4.097   2.423   3.991  0.3711  1.3851 -0.4398
  185POPC  H16Y21345   4.131   2.396   4.166  0.5730 -0.9945 -0.1498
  185POPC  H16Z21346   4.255   2.463   4.069 -0.3122 -2.0206 -1.6132
  186POPC     N21347   4.507   4.741   2.206 -0.3483 -0.0642 -0.0460
  186POPC   C1221348   4.522   4.815   2.337 -0.0873 -0.0249 -0.3144
  186POPC  H12A21349   4.524   4.739   2.413 -0.9605 -1.1007 -1.3502
  186POPC  H12B21350   4.441   4.885   2.355  0.4507  0.9620 -1.6698
  186POPC   C1321351   4.362   4.711   2.184 -0.0545 -0.1716 -0.1941
  186POPC  H13A21352   4.326   4.646   2.262  0.6962 -0.1141  0.2028
  186POPC  H13B21353   4.310   4.805   2.170  0.3720  0.1843  0.5764
  186POPC  H13C21354   4.344   4.656   2.093 -1.6618  1.2183 -0.7486
  186POPC   C1421355   4.555   4.822   2.088  0.1532  0.2660 -0.0229
  186POPC  H14A21356   4.655   4.861   2.095 -0.5970  1.9652  1.4621
  186POPC  H14B21357   4.558   4.759   2.000 -0.8435  1.0130 -0.5989
  186POPC  H14C21358   4.491   4.903   2.058  0.0749  0.2051 -0.0216
  186POPC   C1521359   4.590   4.615   2.199  0.4814  0.8006 -0.0623
  186POPC  H15A21360   4.558   4.542   2.272  0.7376 -0.6526 -1.3897
  186POPC  H15B21361   4.695   4.638   2.213  0.3591  2.5816 -1.8350
  186POPC  H15C21362   4.579   4.562   2.106 -0.6778 -2.3658  1.8080
  186POPC   C1121363   4.653   4.894   2.366  0.1246  0.1408 -0.0567
  186POPC  H11A21364   4.644   4.929   2.471 -2.0290 -0.3482 -0.0551
  186POPC  H11B21365   4.669   4.978   2.295 -0.9267  1.9452  1.7929
  186POPC     P21366   4.915   4.856   2.372 -0.2904  0.1464  0.2780
  186POPC   O1321367   4.934   4.987   2.312 -0.1909 -0.1763 -0.0117
  186POPC   O1421368   4.998   4.744   2.327  0.4279  0.6575 -0.1828
  186POPC   O1221369   4.769   4.804   2.350 -0.3184  0.1367 -0.0513
  186POPC   O1121370   4.910   4.867   2.531  0.4152  0.0758 -0.0909
  186POPC    C121371   5.024   4.847   2.609 -0.2166 -0.5422  0.2043
  186POPC    HA21372   5.039   4.923   2.689  0.9432 -0.9580  0.3889
  186POPC    HB21373   5.116   4.854   2.548 -0.1417  1.5921  0.5186
  186POPC    C221374   5.020   4.714   2.686  0.0929 -0.5437 -0.3246
  186POPC    HS21375   4.994   4.646   2.602 -1.4732  0.0950 -0.3838
  186POPC   O2121376   4.927   4.725   2.794 -0.8733  0.2685 -0.1379
  186POPC   C2121377   4.878   4.617   2.850 -0.6040  0.4838  0.0889
  186POPC   O2221378   4.884   4.503   2.812 -0.4530  0.9252 -0.3029
  186POPC   C2221379   4.802   4.670   2.977  0.2448  0.6309 -0.3202
  186POPC   H2R21380   4.705   4.708   2.938  1.5414  1.5128 -2.7446
  186POPC   H2S21381   4.859   4.750   3.028 -1.0185  1.5022 -0.2418
  186POPC    C321382   5.163   4.669   2.743  0.3080  0.5290  0.6648
  186POPC    HX21383   5.228   4.654   2.654  0.9765  0.6671  1.1290
  186POPC    HY21384   5.161   4.570   2.793 -2.5988 -0.5574 -1.4002
  186POPC   O3121385   5.231   4.777   2.810 -0.0787  0.2965  0.2569
  186POPC   C3121386   5.201   4.779   2.943 -0.6859  0.1883  0.1003
  186POPC   O3221387   5.132   4.698   3.002 -0.0239  0.1742  0.2055
  186POPC   C3221388   5.292   4.882   3.013  0.2933 -0.3345  0.4735
  186POPC   H2X21389   5.273   4.976   2.957 -0.9543 -1.0016 -0.2603
  186POPC   H2Y21390   5.396   4.854   2.989  1.0305  1.0526  1.9430
  186POPC   C2321391   4.778   4.572   3.090 -0.0442  0.0314  0.2621
  186POPC   H3R21392   4.718   4.487   3.050 -0.9974  0.5346  0.6193
  186POPC   H3S21393   4.732   4.624   3.176 -2.5398 -1.8730  0.1349
  186POPC   C2421394   4.905   4.510   3.153  0.1071  0.3514 -0.3405
  186POPC   H4R21395   4.969   4.588   3.200 -1.0215  1.4907 -0.6636
  186POPC   H4S21396   4.966   4.458   3.076 -2.1960  0.6998 -2.4473
  186POPC   C2521397   4.879   4.417   3.270  0.7234  0.7108 -0.4399
  186POPC   H5R21398   4.981   4.383   3.298  0.2217 -0.5262 -0.1140
  186POPC   H5S21399   4.823   4.327   3.235 -0.0626  1.5351 -1.3408
  186POPC   C2621400   4.795   4.483   3.382  0.2417  0.4995  0.0328
  186POPC   H6R21401   4.688   4.492   3.352  0.0160 -1.7967  0.0228
  186POPC   H6S21402   4.830   4.587   3.397  0.6845  0.5034 -0.9521
  186POPC   C2721403   4.790   4.401   3.512 -0.1391  0.1245  0.5224
  186POPC   H7R21404   4.773   4.295   3.483 -0.0605 -0.0814  1.2126
  186POPC   H7S21405   4.699   4.425   3.571  0.5042 -0.1750  1.6623
  186POPC   C2821406   4.916   4.420   3.599  0.2817  0.8130  0.0673
  186POPC   H8R21407   4.897   4.510   3.662 -3.0266  0.1310  0.0987
  186POPC   H8S21408   5.004   4.438   3.532  0.5487 -0.0772  0.1711
  186POPC   C2921409   4.945   4.299   3.674  0.6120 -0.2491 -0.2940
  186POPC   H9121410   5.033   4.249   3.632  0.4154 -0.1326 -0.8427
  186POPC  C21021411   4.892   4.266   3.789 -0.0086  0.3998 -0.1310
  186POPC  H10121412   4.919   4.164   3.823  0.3937  0.7338  0.5624
  186POPC  C21121413   4.774   4.333   3.855  0.6732 -0.6740 -0.7063
  186POPC  H11R21414   4.708   4.396   3.791  1.8034  0.4532 -0.7777
  186POPC  H11S21415   4.803   4.397   3.941 -1.0212 -0.0072 -0.6098
  186POPC  C21221416   4.683   4.219   3.912  0.0377  0.0253 -0.1101
  186POPC  H12R21417   4.598   4.261   3.970 -2.1077 -1.0709 -2.4088
  186POPC  H12S21418   4.740   4.154   3.982  1.6682  1.1736 -0.3392
  186POPC  C21321419   4.627   4.121   3.809 -0.0665  0.2333 -0.0973
  186POPC  H13R21420   4.708   4.081   3.744 -1.3415 -0.3409 -1.3490
  186POPC  H13S21421   4.575   4.187   3.736 -1.2058 -2.2717 -1.6341
  186POPC  C21421422   4.529   4.013   3.857  0.6519  0.1820 -0.3902
  186POPC  H14R21423   4.442   4.065   3.904  1.1600  0.0349  0.7383
  186POPC  H14S21424   4.574   3.949   3.936  0.5800  0.9716  0.3055
  186POPC  C21521425   4.463   3.936   3.743  0.7126 -0.0618  0.7748
  186POPC  H15R21426   4.410   4.005   3.674 -0.8658 -1.3124  0.6989
  186POPC  H15S21427   4.384   3.869   3.783  0.7430 -1.3523 -1.2174
  186POPC  C21621428   4.552   3.856   3.644  0.6089 -0.3722 -0.0114
  186POPC  H16R21429   4.657   3.872   3.678  0.2312  0.6742  0.6924
  186POPC  H16S21430   4.563   3.910   3.547  0.3688  2.2445  1.3685
  186POPC  C21721431   4.520   3.712   3.634 -1.0489 -1.1358 -0.1048
  186POPC  H17R21432   4.514   3.663   3.734  0.8462  1.4594  1.3454
  186POPC  H17S21433   4.599   3.662   3.573 -2.8622 -1.1631 -2.4757
  186POPC  C21821434   4.388   3.680   3.560  0.2325 -0.1361 -0.4437
  186POPC  H18R21435   4.365   3.572   3.568  2.8724 -0.6752  0.3626
  186POPC  H18S21436   4.304   3.733   3.609  1.0661  0.5242  0.2934
  186POPC  H18T21437   4.391   3.706   3.452  0.9610 -0.3373 -0.4788
  186POPC   C3321438   5.254   4.894   3.167 -0.5147  0.1741 -0.1921
  186POPC   H3X21439   5.149   4.928   3.178 -0.2840  0.5802  0.7878
  186POPC   H3Y21440   5.315   4.978   3.205 -0.7936  0.2103  0.1733
  186POPC   C3421441   5.275   4.774   3.258  0.0787 -0.1793  0.1369
  186POPC   H4X21442   5.382   4.749   3.245  0.8869  1.4172  3.2953
  186POPC   H4Y21443   5.205   4.696   3.221 -1.3419  1.1016  0.0680
  186POPC   C3521444   5.270   4.801   3.413 -0.2204 -0.5382 -0.0957
  186POPC   H5X21445   5.359   4.861   3.442  0.2254 -1.8018  1.1865
  186POPC   H5Y21446   5.271   4.704   3.466  0.1563 -0.3413  0.2632
  186POPC   C3621447   5.147   4.878   3.470 -0.0879  0.5518 -0.1460
  186POPC   H6X21448   5.098   4.927   3.384 -0.9825 -1.7476 -0.9776
  186POPC   H6Y21449   5.181   4.957   3.540  0.5877  0.6430 -0.5782
  186POPC   C3721450   5.042   4.788   3.535  0.0094  0.0144  0.3887
  186POPC   H7X21451   5.054   4.690   3.485  0.8531 -0.3060  1.2117
  186POPC   H7Y21452   4.944   4.835   3.512  0.6036  1.2387  0.2978
  186POPC   C3821453   5.047   4.783   3.688  0.2976  0.2213 -0.6627
  186POPC   H8X21454   5.150   4.751   3.717  0.3518 -0.1045 -1.2005
  186POPC   H8Y21455   4.977   4.711   3.734  0.6712  0.1248 -0.2433
  186POPC   C3921456   5.015   4.918   3.756 -0.2403  0.1431  0.1970
  186POPC   H9X21457   4.913   4.958   3.733  1.0429  2.9858 -0.7425
  186POPC   H9Y21458   5.091   4.997   3.741 -1.0498  1.3371  2.2131
  186POPC  C31021459   5.002   4.904   3.914  0.1271 -0.2971  0.9730
  186POPC  H10X21460   4.943   4.812   3.931  3.5332 -2.8461 -0.2957
  186POPC  H10Y21461   4.962   4.996   3.961  1.2153  0.9053 -0.4089
  186POPC  C31121462   5.138   4.876   3.966 -0.0344 -0.3883  0.0889
  186POPC  H11X21463   5.193   4.965   4.005  2.2502 -2.3308  1.4249
  186POPC  H11Y21464   5.199   4.834   3.884 -0.7209  0.2759 -0.7660
  186POPC  C31221465   5.145   4.776   4.080 -0.8683  0.0486 -0.6544
  186POPC  H12X21466   5.076   4.801   4.164 -0.3729 -0.4721 -0.0861
  186POPC  H12Y21467   5.240   4.755   4.134 -1.8223  0.0371  1.0519
  186POPC  C31321468   5.102   4.638   4.034  0.1175  0.4450  1.1787
  186POPC  H13X21469   5.115   4.607   3.928  2.5487 -1.8879  2.0857
  186POPC  H13Y21470   4.993   4.624   4.051 -0.1668  0.6372 -0.4370
  186POPC  C31421471   5.165   4.526   4.118  0.1674  0.0840 -0.3508
  186POPC  H14X21472   5.151   4.548   4.226  0.6317 -2.2921  0.2329
  186POPC  H14Y21473   5.270   4.513   4.082  0.0474 -0.7108 -0.4242
  186POPC  C31521474   5.093   4.394   4.098  0.1478 -0.0186  0.3526
  186POPC  H15X21475   5.138   4.350   4.007  1.2520 -0.4919  1.1212
  186POPC  H15Y21476   4.986   4.416   4.079 -0.0555 -0.1005  1.3627
  186POPC  C31621477   5.104   4.300   4.219  0.7027  0.8969 -0.3026
  186POPC  H16X21478   5.103   4.189   4.211 -1.5733  0.9093 -0.4778
  186POPC  H16Y21479   5.012   4.325   4.275  0.0588 -2.0263  0.0219
  186POPC  H16Z21480   5.191   4.322   4.286 -0.3986 -1.1384  1.8773
  187POPC     N21481   4.008   1.313   1.841  0.4522 -0.1334 -0.7116
  187POPC   C1221482   4.026   1.352   1.983  0.1542  0.3819  0.0116
  187POPC  H12A21483   4.080   1.273   2.034  2.7508  1.7483 -0.4979
  187POPC  H12B21484   3.937   1.353   2.044 -0.2079  2.5547 -0.5197
  187POPC   C1321485   3.888   1.222   1.821  0.2671 -0.1300 -0.2970
  187POPC  H13A21486   3.889   1.135   1.885 -0.0803 -0.7060 -1.0778
  187POPC  H13B21487   3.799   1.276   1.850  0.9031  0.5429  0.4409
  187POPC  H13C21488   3.846   1.200   1.725  0.4073 -2.9134  0.2306
  187POPC   C1421489   3.962   1.424   1.758 -0.2191 -0.1848 -0.0815
  187POPC  H14A21490   3.873   1.471   1.798  0.2059  0.4191  0.1606
  187POPC  H14B21491   4.036   1.500   1.736 -1.4992  0.6822 -1.5776
  187POPC  H14C21492   3.932   1.390   1.660 -0.2836 -0.8565  0.1736
  187POPC   C1521493   4.134   1.248   1.791 -0.1867  0.1118 -0.2657
  187POPC  H15A21494   4.126   1.220   1.687 -0.1235 -1.7382  0.2106
  187POPC  H15B21495   4.146   1.156   1.846 -5.2782 -0.9300 -0.6643
  187POPC  H15C21496   4.211   1.322   1.810  0.2488 -0.7666  1.4053
  187POPC   C1121497   4.114   1.474   2.016  0.5221  0.2941  0.2300
  187POPC  H11A21498   4.098   1.502   2.122  1.0767 -0.1477  0.4284
  187POPC  H11B21499   4.077   1.552   1.946  0.6120 -0.3137 -0.5004
  187POPC     P21500   4.330   1.348   2.099 -0.1003  0.1591 -0.1759
  187POPC   O1321501   4.463   1.320   2.039  0.5990 -0.2048 -0.3393
  187POPC   O1421502   4.258   1.230   2.141  0.3467 -0.1976 -0.1749
  187POPC   O1221503   4.253   1.435   1.995  0.3766  0.1232  0.7326
  187POPC   O1121504   4.357   1.436   2.220 -0.0340  0.1509 -0.2683
  187POPC    C121505   4.345   1.573   2.220  0.4228  0.0544  0.0420
  187POPC    HA21506   4.280   1.609   2.303 -0.1585  0.5082 -0.6079
  187POPC    HB21507   4.311   1.624   2.128  1.9740  1.2063  0.1094
  187POPC    C221508   4.482   1.646   2.261  0.6787  0.2786 -0.1648
  187POPC    HS21509   4.558   1.608   2.190  0.4314  1.0881 -0.8851
  187POPC   O2121510   4.519   1.599   2.396  0.2528 -0.4302 -0.2209
  187POPC   C2121511   4.642   1.622   2.426 -0.7464  0.3256 -0.0558
  187POPC   O2221512   4.726   1.660   2.345  0.0002  0.1739 -0.0688
  187POPC   C2221513   4.664   1.604   2.578  0.2876  0.2143 -0.8250
  187POPC   H2R21514   4.736   1.521   2.590 -1.0930 -1.0478 -1.1219
  187POPC   H2S21515   4.568   1.590   2.633 -0.3765  3.0073 -1.1664
  187POPC    C321516   4.488   1.802   2.239  0.2742  0.0248  0.3507
  187POPC    HX21517   4.450   1.819   2.136 -0.7845 -1.2931  0.5236
  187POPC    HY21518   4.596   1.830   2.232  0.5064 -0.1252  2.7407
  187POPC   O3121519   4.417   1.872   2.343 -0.7041  0.3522 -0.1845
  187POPC   C3121520   4.297   1.924   2.313 -0.3514  0.0576  0.1531
  187POPC   O3221521   4.222   1.888   2.223 -0.6327  0.1771 -0.0221
  187POPC   C3221522   4.256   2.028   2.410 -0.0719  0.1031  0.1091
  187POPC   H2X21523   4.310   2.123   2.392  1.6316 -0.7259  0.7472
  187POPC   H2Y21524   4.289   1.994   2.511  0.3289  1.8905  0.5854
  187POPC   C2321525   4.742   1.727   2.643  0.6433 -0.2464 -0.5146
  187POPC   H3R21526   4.693   1.820   2.607  1.1079 -0.2265 -1.0867
  187POPC   H3S21527   4.844   1.727   2.600  1.3065 -1.2133  1.0295
  187POPC   C2421528   4.756   1.723   2.799 -0.2048  0.1999 -0.3552
  187POPC   H4R21529   4.657   1.759   2.835  0.3514 -0.2383  1.6282
  187POPC   H4S21530   4.828   1.799   2.835  0.5789 -0.9318  0.4832
  187POPC   C2521531   4.812   1.587   2.854  0.5445 -0.3458  0.3472
  187POPC   H5R21532   4.916   1.579   2.816  0.4519  4.5658 -1.3348
  187POPC   H5S21533   4.744   1.511   2.808  1.1195 -0.6835  0.0570
  187POPC   C2621534   4.808   1.567   3.003  0.6182  0.3106 -0.0364
  187POPC   H6R21535   4.711   1.597   3.049  0.8897  0.5638  0.3738
  187POPC   H6S21536   4.885   1.631   3.051  3.2219 -2.4995 -0.3309
  187POPC   C2721537   4.841   1.421   3.032  0.7599 -0.0505  0.1272
  187POPC   H7R21538   4.945   1.406   2.996  0.5866  2.6492 -1.6173
  187POPC   H7S21539   4.778   1.352   2.970  2.2096 -0.5658 -0.8113
  187POPC   C2821540   4.823   1.397   3.181  0.8522 -0.3308 -0.4889
  187POPC   H8R21541   4.724   1.430   3.219  0.7692 -1.8128  0.6328
  187POPC   H8S21542   4.885   1.464   3.246 -1.4403  0.1521  1.2667
  187POPC   C2921543   4.858   1.255   3.216  0.3961 -0.0220 -0.2432
  187POPC   H9121544   4.964   1.227   3.212  1.4106  3.8449 -2.1178
  187POPC  C21021545   4.770   1.161   3.261 -0.4334 -0.0910 -0.3743
  187POPC  H10121546   4.811   1.063   3.290  1.2052  0.8225  0.4765
  187POPC  C21121547   4.620   1.176   3.288 -0.5933 -0.0874 -0.2843
  187POPC  H11R21548   4.563   1.139   3.201  0.8342 -0.2031 -1.1840
  187POPC  H11S21549   4.592   1.283   3.299 -0.9079 -0.1711 -0.2749
  187POPC  C21221550   4.602   1.102   3.421  0.2796 -0.1862  0.0598
  187POPC  H12R21551   4.632   0.995   3.421  0.1558 -0.2453 -2.2534
  187POPC  H12S21552   4.492   1.105   3.442 -0.1417  1.2969 -2.2173
  187POPC  C21321553   4.665   1.167   3.543 -0.2026  0.5211  0.9811
  187POPC  H13R21554   4.654   1.278   3.540  0.8342  0.6590  1.7109
  187POPC  H13S21555   4.773   1.142   3.544  0.1332  1.8669 -0.5041
  187POPC  C21421556   4.602   1.124   3.668 -0.3308 -0.2696  0.6592
  187POPC  H14R21557   4.580   1.015   3.666 -0.2036 -0.2770 -0.8875
  187POPC  H14S21558   4.507   1.177   3.692 -0.7891 -1.1691  0.8504
  187POPC  C21521559   4.681   1.162   3.792  0.0669  0.7920 -0.2176
  187POPC  H15R21560   4.716   1.267   3.781  0.2263  0.7843  0.1900
  187POPC  H15S21561   4.776   1.104   3.795 -1.0985 -1.1206 -0.2504
  187POPC  C21621562   4.618   1.147   3.933 -0.6510  0.2263  0.8642
  187POPC  H16R21563   4.608   1.039   3.956  1.2273  0.3815  2.4888
  187POPC  H16S21564   4.518   1.194   3.922 -1.0770 -0.1595  2.8786
  187POPC  C21721565   4.706   1.223   4.035  0.0623 -0.3811 -0.8496
  187POPC  H17R21566   4.725   1.327   4.002 -0.9945  0.1913  0.3101
  187POPC  H17S21567   4.804   1.174   4.052  0.5868  0.4024 -1.5782
  187POPC  C21821568   4.644   1.239   4.170 -0.1319  0.9720 -0.4382
  187POPC  H18R21569   4.697   1.295   4.250 -1.6757  1.2231  0.4214
  187POPC  H18S21570   4.620   1.139   4.213 -2.7151  2.0790  0.8170
  187POPC  H18T21571   4.539   1.275   4.173 -0.3809  0.1849  1.1950
  187POPC   C3321572   4.109   2.061   2.399 -0.5188 -0.4027 -0.4895
  187POPC   H3X21573   4.046   1.970   2.387  0.2540 -1.1001  0.7428
  187POPC   H3Y21574   4.092   2.114   2.303 -0.6998  0.3066 -0.0741
  187POPC   C3421575   4.050   2.154   2.507  0.6314 -0.1788  0.1472
  187POPC   H4X21576   3.954   2.185   2.460  0.4679 -1.7579 -0.5642
  187POPC   H4Y21577   4.115   2.243   2.518  0.8758 -0.1162 -1.6500
  187POPC   C3521578   4.021   2.081   2.640  0.7054  0.3080  0.2664
  187POPC   H5X21579   4.111   2.049   2.696  0.7815 -1.6039 -0.8732
  187POPC   H5Y21580   3.957   1.991   2.621 -1.5094  1.9929 -0.4969
  187POPC   C3621581   3.926   2.177   2.724  0.0602 -0.4024  0.0237
  187POPC   H6X21582   3.840   2.205   2.659  0.4605  0.8347  0.0317
  187POPC   H6Y21583   3.977   2.262   2.772 -0.1321 -0.5647  0.5190
  187POPC   C3721584   3.856   2.102   2.836 -0.1521  0.0626 -0.0078
  187POPC   H7X21585   3.933   2.066   2.907 -0.2215  1.8036  0.9628
  187POPC   H7Y21586   3.815   2.005   2.800  3.5542 -2.3141  1.8411
  187POPC   C3821587   3.753   2.186   2.911  0.1255 -0.1055  0.1527
  187POPC   H8X21588   3.702   2.249   2.835 -0.9921 -0.7410  0.3587
  187POPC   H8Y21589   3.817   2.253   2.972  0.3078  0.5586 -0.7598
  187POPC   C3921590   3.662   2.118   3.017 -0.3039 -0.2407 -0.6593
  187POPC   H9X21591   3.597   2.046   2.963 -0.6696 -1.5772  1.4902
  187POPC   H9Y21592   3.594   2.197   3.056  0.3264  0.3678 -0.7861
  187POPC  C31021593   3.745   2.047   3.127  0.0173 -0.4049 -0.9276
  187POPC  H10X21594   3.827   2.117   3.155  0.1827 -0.7704 -0.4975
  187POPC  H10Y21595   3.791   1.962   3.073  1.2852  0.3901 -1.1289
  187POPC  C31121596   3.665   1.976   3.243 -0.2701 -0.0908  0.3008
  187POPC  H11X21597   3.607   1.890   3.203 -0.6638  0.4000 -0.1908
  187POPC  H11Y21598   3.605   2.058   3.288 -3.1912 -1.5350 -0.8113
  187POPC  C31221599   3.753   1.933   3.359 -0.5804  0.6418 -0.9443
  187POPC  H12X21600   3.824   2.014   3.384  0.2619 -0.5140  0.5142
  187POPC  H12Y21601   3.812   1.843   3.330 -1.7331 -0.4664  0.1207
  187POPC  C31321602   3.666   1.873   3.475 -0.0082 -0.5122  0.7034
  187POPC  H13X21603   3.605   1.789   3.434 -1.1816  1.1062 -0.9101
  187POPC  H13Y21604   3.600   1.952   3.514 -0.9018 -1.0064  0.2164
  187POPC  C31421605   3.756   1.811   3.590  0.0560  0.0064 -0.4206
  187POPC  H14X21606   3.828   1.887   3.627 -0.5712  1.3563 -1.8951
  187POPC  H14Y21607   3.822   1.731   3.550 -0.6967 -0.1402 -1.3933
  187POPC  C31521608   3.677   1.754   3.705 -0.3326 -0.0551  0.3371
  187POPC  H15X21609   3.603   1.684   3.661  0.3031 -0.3475 -0.2719
  187POPC  H15Y21610   3.613   1.830   3.755  0.7699  1.0721  0.0767
  187POPC  C31621611   3.758   1.671   3.799 -0.5406  0.1728  0.1344
  187POPC  H16X21612   3.824   1.730   3.866  1.1149 -0.2370 -1.1209
  187POPC  H16Y21613   3.828   1.610   3.738  1.1612  1.4456  0.7758
  187POPC  H16Z21614   3.697   1.601   3.860 -0.0827  0.5960  1.1075
  188POPC     N21615   6.425   2.941   2.101 -0.3629  0.5691  0.3885
  188POPC   C1221616   6.536   3.016   2.167  0.2952  1.2946 -0.2847
  188POPC  H12A21617   6.558   3.103   2.107  0.8863  0.6120 -1.0764
  188POPC  H12B21618   6.623   2.952   2.165  0.4940  1.5758 -1.1766
  188POPC   C1321619   6.298   3.019   2.119  0.1305  0.9284 -0.5263
  188POPC  H13A21620   6.322   3.120   2.087 -1.5426  1.9493  1.3059
  188POPC  H13B21621   6.215   2.976   2.064  0.0545 -0.6403  0.7905
  188POPC  H13C21622   6.264   3.038   2.220  0.4886  4.3950 -0.9771
  188POPC   C1421623   6.465   2.934   1.959  0.2939  0.5771  0.0687
  188POPC  H14A21624   6.558   2.881   1.951  0.8137  1.2100  1.6376
  188POPC  H14B21625   6.403   2.873   1.895 -1.0794  0.0475  1.8536
  188POPC  H14C21626   6.492   3.024   1.905 -0.4808 -0.7290 -2.5655
  188POPC   C1521627   6.408   2.800   2.153 -0.8990 -0.2901  0.5120
  188POPC  H15A21628   6.396   2.813   2.260  1.0417 -1.4195  0.8875
  188POPC  H15B21629   6.491   2.734   2.140 -0.5538  0.4050 -0.8467
  188POPC  H15C21630   6.319   2.756   2.110 -1.4657  1.7660 -0.5114
  188POPC   C1121631   6.533   3.042   2.325  0.4375  0.0469 -0.0274
  188POPC  H11A21632   6.447   3.111   2.340  2.8613  3.2145 -0.1601
  188POPC  H11B21633   6.626   3.096   2.353  1.4934 -2.2758  1.0835
  188POPC     P21634   6.642   2.848   2.475 -0.3499  0.0498 -0.4200
  188POPC   O1321635   6.761   2.836   2.392 -0.3986 -0.2360  0.1333
  188POPC   O1421636   6.594   2.722   2.534 -0.1672 -0.1026  0.1963
  188POPC   O1221637   6.525   2.917   2.392 -0.1714  0.5946 -0.3443
  188POPC   O1121638   6.678   2.944   2.596 -0.1857  0.4395  0.0789
  188POPC    C121639   6.657   2.914   2.734  0.3904  0.0465  0.2555
  188POPC    HA21640   6.724   2.980   2.793 -0.0177  0.1375  0.6220
  188POPC    HB21641   6.675   2.809   2.765  0.8767 -0.3535 -1.3096
  188POPC    C221642   6.515   2.954   2.769  0.0515  0.2293 -0.8462
  188POPC    HS21643   6.447   2.908   2.694 -0.6116 -0.3707  0.1179
  188POPC   O2121644   6.516   3.096   2.770 -0.2701 -0.0783 -0.3069
  188POPC   C2121645   6.404   3.165   2.749 -0.6227  0.0293 -0.5968
  188POPC   O2221646   6.306   3.120   2.706  0.7009 -0.2314 -0.0768
  188POPC   C2221647   6.419   3.307   2.808  0.3162  0.0192  0.2718
  188POPC   H2R21648   6.410   3.378   2.723 -3.4579  0.5315  1.0262
  188POPC   H2S21649   6.512   3.318   2.868  0.9340  0.5083 -0.7606
  188POPC    C321650   6.462   2.896   2.900 -0.1079  0.1291  0.0844
  188POPC    HX21651   6.456   2.786   2.883 -1.9757  0.0990  0.7540
  188POPC    HY21652   6.361   2.940   2.919  1.1341  1.6551  3.5161
  188POPC   O3121653   6.559   2.926   3.007  0.2637 -0.3758  0.6718
  188POPC   C3121654   6.499   2.956   3.115 -0.2642  0.1784 -0.0265
  188POPC   O3221655   6.381   2.956   3.137 -0.0915 -0.3845 -0.0336
  188POPC   C3221656   6.600   3.002   3.213 -0.6420 -0.5794 -0.5810
  188POPC   H2X21657   6.582   3.112   3.216  0.8926 -0.3008 -1.0151
  188POPC   H2Y21658   6.704   2.978   3.181 -0.4692 -0.7743  0.1150
  188POPC   C2321659   6.304   3.333   2.906  0.1217  0.5283 -0.1750
  188POPC   H3R21660   6.207   3.322   2.853 -0.6353  2.8175  0.6533
  188POPC   H3S21661   6.302   3.437   2.944  3.1632 -0.2700  2.3610
  188POPC   C2421662   6.317   3.254   3.039  0.2234 -0.4588  0.2908
  188POPC   H4R21663   6.408   3.266   3.101 -0.1983  2.9589  0.3378
  188POPC   H4S21664   6.322   3.148   3.008 -1.2080 -0.0069 -1.5802
  188POPC   C2521665   6.205   3.293   3.134  0.0883  0.8928  0.1959
  188POPC   H5R21666   6.106   3.274   3.088 -1.1961 -2.0421  3.9346
  188POPC   H5S21667   6.201   3.402   3.153  1.1965  1.3529 -2.0979
  188POPC   C2621668   6.209   3.214   3.268  0.4538 -0.1762  0.2630
  188POPC   H6R21669   6.292   3.261   3.324  0.5167  1.5095 -1.1717
  188POPC   H6S21670   6.235   3.109   3.244 -1.3093 -0.8480  1.2139
  188POPC   C2721671   6.078   3.230   3.348  0.8864 -0.0492 -0.1050
  188POPC   H7R21672   5.994   3.174   3.300 -0.8185  1.9488  0.4694
  188POPC   H7S21673   6.055   3.335   3.319  2.1115 -0.3383 -2.2076
  188POPC   C2821674   6.087   3.208   3.501 -0.3815  0.4641 -0.2903
  188POPC   H8R21675   6.113   3.100   3.507 -2.1954  0.0038 -0.7069
  188POPC   H8S21676   5.985   3.225   3.541 -1.2436  0.5501 -2.4722
  188POPC   C2921677   6.178   3.306   3.579  0.1280  0.3064 -0.1346
  188POPC   H9121678   6.269   3.257   3.617  1.5409  2.1580 -1.0154
  188POPC  C21021679   6.153   3.438   3.610 -1.0491  0.3370  0.4937
  188POPC  H10121680   6.218   3.499   3.674 -0.0386  0.1110 -0.3081
  188POPC  C21121681   6.029   3.510   3.576  0.1287 -0.1642 -0.1075
  188POPC  H11R21682   5.965   3.445   3.512  0.1051 -0.6296  0.3838
  188POPC  H11S21683   6.055   3.596   3.512 -0.8588  1.1335  1.2141
  188POPC  C21221684   5.948   3.552   3.694 -0.4726  0.1434 -0.1516
  188POPC  H12R21685   5.880   3.636   3.668 -1.0771 -0.4262 -0.4190
  188POPC  H12S21686   6.022   3.580   3.771  0.4662 -3.9483  0.5573
  188POPC  C21321687   5.868   3.445   3.758  0.3927  0.4717 -0.4916
  188POPC  H13R21688   5.928   3.368   3.812  2.6751  1.2439 -1.8583
  188POPC  H13S21689   5.817   3.406   3.667  0.0771  0.8467 -0.4738
  188POPC  C21421690   5.780   3.506   3.862 -0.4603 -0.0940 -0.3545
  188POPC  H14R21691   5.724   3.590   3.815 -1.8888 -0.8178  0.0322
  188POPC  H14S21692   5.836   3.559   3.942 -0.4107  1.6134 -1.4904
  188POPC  C21521693   5.675   3.414   3.935 -0.1019  0.3230  0.6695
  188POPC  H15R21694   5.720   3.316   3.964 -1.0849 -0.3985 -0.1990
  188POPC  H15S21695   5.593   3.407   3.861  0.7262 -0.2747 -0.2131
  188POPC  C21621696   5.597   3.486   4.052 -0.3643 -0.1605  0.5089
  188POPC  H16R21697   5.559   3.587   4.025 -0.0335  0.0989  1.0181
  188POPC  H16S21698   5.675   3.513   4.126  0.4765 -0.2392 -0.3321
  188POPC  C21721699   5.490   3.391   4.111 -0.5456  0.2751  0.2070
  188POPC  H17R21700   5.493   3.409   4.221  1.7728  0.6467  0.1127
  188POPC  H17S21701   5.510   3.286   4.080 -1.8085  0.4808 -1.3622
  188POPC  C21821702   5.352   3.427   4.073 -0.2328  0.0095 -0.0694
  188POPC  H18R21703   5.271   3.357   4.104  2.0668 -2.1557  1.2211
  188POPC  H18S21704   5.355   3.452   3.965  1.4576  0.9800  0.1986
  188POPC  H18T21705   5.328   3.525   4.119  2.8874  0.8305 -0.0914
  188POPC   C3321706   6.593   2.946   3.359 -0.6254 -0.6027 -0.1614
  188POPC   H3X21707   6.488   2.940   3.395 -0.5435 -3.4715 -0.2440
  188POPC   H3Y21708   6.651   3.017   3.422 -1.1059  0.1158 -0.5170
  188POPC   C3421709   6.663   2.806   3.379  1.0252 -0.0752  0.4592
  188POPC   H4X21710   6.678   2.793   3.489  0.9974 -1.5061  0.3037
  188POPC   H4Y21711   6.766   2.812   3.338  1.9383  1.5753  2.8294
  188POPC   C3521712   6.593   2.683   3.317  1.3235  0.2153  0.2389
  188POPC   H5X21713   6.659   2.598   3.346  1.3723  0.1824  0.0268
  188POPC   H5Y21714   6.585   2.690   3.207  2.6355 -0.2846  0.1050
  188POPC   C3621715   6.443   2.651   3.347 -0.0148  0.1256  0.7214
  188POPC   H6X21716   6.409   2.554   3.307 -1.3025  0.6875  0.4474
  188POPC   H6Y21717   6.391   2.725   3.284 -0.4833  0.4386  1.4619
  188POPC   C3721718   6.401   2.666   3.498  0.6386 -0.5402 -0.1788
  188POPC   H7X21719   6.293   2.689   3.495  1.2085  2.2288 -0.6464
  188POPC   H7Y21720   6.440   2.759   3.544  0.2538 -1.4381  2.0330
  188POPC   C3821721   6.431   2.542   3.588 -0.4442 -0.6853 -0.2872
  188POPC   H8X21722   6.541   2.538   3.606 -0.3347 -1.0050 -0.9938
  188POPC   H8Y21723   6.396   2.454   3.531 -0.9877 -0.2507 -0.6228
  188POPC   C3921724   6.358   2.565   3.718  0.1125  0.4370 -0.0499
  188POPC   H9X21725   6.255   2.604   3.699  0.6147  2.2274  0.7091
  188POPC   H9Y21726   6.394   2.653   3.776 -0.7325 -0.2219  1.5167
  188POPC  C31021727   6.350   2.448   3.816 -0.1539  0.6247  1.2610
  188POPC  H10X21728   6.448   2.396   3.821 -0.7592 -1.0508 -2.3843
  188POPC  H10Y21729   6.283   2.365   3.784  0.3423  1.0667 -1.0348
  188POPC  C31121730   6.312   2.480   3.964 -0.0348  0.0903  0.2112
  188POPC  H11X21731   6.211   2.527   3.961  0.1696  0.6691  1.6408
  188POPC  H11Y21732   6.382   2.553   4.011  0.9524 -0.6122 -0.1548
  188POPC  C31221733   6.314   2.352   4.045 -0.1980 -0.0673 -0.0329
  188POPC  H12X21734   6.422   2.330   4.033 -0.0891  1.6071 -2.5748
  188POPC  H12Y21735   6.241   2.277   4.007  1.1044 -1.4425  0.1603
  188POPC  C31321736   6.280   2.384   4.194  0.4580  0.4039 -1.0421
  188POPC  H13X21737   6.186   2.443   4.196  0.2511  0.0264  1.5709
  188POPC  H13Y21738   6.352   2.465   4.217  1.9136 -0.2124 -3.2250
  188POPC  C31421739   6.267   2.258   4.285  0.0145  0.0686 -0.0980
  188POPC  H14X21740   6.205   2.178   4.239 -0.1831  0.9161 -1.3077
  188POPC  H14Y21741   6.214   2.288   4.378  1.9547  1.7239  0.5017
  188POPC  C31521742   6.404   2.192   4.306 -0.5028 -0.3543 -0.2988
  188POPC  H15X21743   6.477   2.266   4.344 -2.2653  0.3029  1.9482
  188POPC  H15Y21744   6.432   2.164   4.202 -0.3079  2.2246 -0.9652
  188POPC  C31621745   6.392   2.068   4.400  0.1772 -0.4472 -0.1805
  188POPC  H16X21746   6.327   2.087   4.487 -0.9098  0.7426 -1.2294
  188POPC  H16Y21747   6.493   2.041   4.436 -0.0064  0.2989  0.9121
  188POPC  H16Z21748   6.337   1.983   4.354 -0.4226 -1.0930  1.6978
  189SAPI   C1221749   4.003   0.695   6.533 -0.9418 -0.3052  0.1359
  189SAPI    H221750   4.066   0.633   6.466  0.1338  0.6163  0.2912
  189SAPI    O221751   3.898   0.613   6.588 -0.4251  0.1645  0.1852
  189SAPI   HO221752   3.818   0.628   6.538 -0.2080 -3.5159 -1.4485
  189SAPI   C1321753   4.097   0.755   6.641  0.2162  0.6325 -0.0088
  189SAPI    H321754   4.177   0.817   6.596 -0.6325  1.9325  0.2729
  189SAPI    O321755   4.161   0.649   6.716 -0.2540 -0.2879  0.4974
  189SAPI   HO321756   4.112   0.567   6.705 -0.2825 -0.0716 -1.1855
  189SAPI   C1421757   4.007   0.845   6.733 -0.3682 -0.9141  0.6152
  189SAPI    H421758   3.919   0.782   6.760 -2.9602  2.1545 -0.4200
  189SAPI    O421759   4.066   0.882   6.861 -0.3778  0.7321 -0.1258
  189SAPI   HO421760   4.146   0.927   6.833  0.9435 -2.6247 -2.0399
  189SAPI   C1521761   3.948   0.959   6.650  0.1346 -0.4577  0.2280
  189SAPI    H521762   4.037   1.011   6.610  1.0136 -2.1761 -0.0838
  189SAPI    O521763   3.872   1.058   6.730 -0.4105 -1.0440  0.2215
  189SAPI   HO521764   3.788   1.081   6.690  0.1184  0.4819 -0.0806
  189SAPI   C1621765   3.862   0.907   6.531 -0.0157  0.1564  0.8102
  189SAPI    H621766   3.775   0.845   6.561  1.1067 -1.9778 -0.1564
  189SAPI    O621767   3.813   1.014   6.448 -0.6084  0.0234 -0.2916
  189SAPI   HO621768   3.777   0.977   6.367 -1.5425 -2.6643  1.2672
  189SAPI   C1121769   3.954   0.814   6.452 -0.1665 -0.0146 -0.6154
  189SAPI    H121770   4.043   0.873   6.420 -0.3789  0.9508  0.5559
  189SAPI     P21771   3.953   0.777   6.188 -0.2493  0.2150  0.1842
  189SAPI   O1321772   3.845   0.715   6.102  0.7892 -0.4332 -0.0113
  189SAPI   O1421773   4.084   0.707   6.194  0.2780 -0.1805 -0.3197
  189SAPI   O1221774   3.887   0.772   6.339 -0.3029 -0.2087 -0.1915
  189SAPI   O1121775   3.955   0.930   6.151 -0.3949  0.4182  0.5047
  189SAPI    C121776   4.068   1.015   6.155 -0.2165 -0.1775  0.9035
  189SAPI    HA21777   4.086   1.022   6.264 -2.3900 -1.6269  1.3736
  189SAPI    HB21778   4.154   0.967   6.102 -0.5658  1.3335 -1.1088
  189SAPI    C221779   4.047   1.164   6.110 -0.3197 -0.6169 -0.1263
  189SAPI    HS21780   3.954   1.200   6.157 -1.0442 -0.8500 -1.3418
  189SAPI   O2121781   4.036   1.167   5.967  0.4786 -0.1418  0.0585
  189SAPI   C2121782   3.988   1.272   5.914  0.0862  0.4292 -0.7847
  189SAPI   O2221783   3.940   1.372   5.972 -0.1481 -0.1883  0.0995
  189SAPI   C2221784   4.008   1.266   5.757  0.0436  0.3893  0.2269
  189SAPI   H2R21785   4.118   1.267   5.740  0.0807  1.4619  0.4561
  189SAPI   H2S21786   3.954   1.178   5.716  3.3865 -1.3565 -0.6797
  189SAPI    C321787   4.170   1.245   6.163  0.0884 -0.5134  0.0938
  189SAPI    HX21788   4.189   1.231   6.271 -1.7696 -2.3554  0.2110
  189SAPI    HY21789   4.143   1.353   6.156  0.8235 -0.3163  0.2171
  189SAPI   O3121790   4.285   1.214   6.084 -0.8424  0.3305 -0.5104
  189SAPI   C3121791   4.336   1.298   6.002 -0.0918 -0.5913 -0.4934
  189SAPI   O3221792   4.289   1.409   5.979 -0.2484  0.3937 -0.0845
  189SAPI   C3221793   4.462   1.230   5.948  0.0718 -0.9349  0.6703
  189SAPI   H2X21794   4.443   1.122   5.934 -1.6072 -0.2074 -3.1752
  189SAPI   H2Y21795   4.540   1.255   6.023  1.1313  0.0279 -0.7298
  189SAPI   C2321796   3.966   1.405   5.692 -0.5187  0.6789  0.5504
  189SAPI   H3R21797   4.019   1.494   5.733 -1.9682  2.2703 -0.9351
  189SAPI   H3S21798   3.857   1.414   5.710 -0.6460 -0.2944  0.3217
  189SAPI   C2421799   3.986   1.404   5.540 -0.2324  0.3468 -0.1773
  189SAPI   H4R21800   4.097   1.395   5.534 -0.0984  1.4558  0.4163
  189SAPI   H4S21801   3.972   1.508   5.504 -0.9671  0.2863 -0.0648
  189SAPI   C2521802   3.908   1.315   5.452 -0.6852  0.2781  0.3238
  189SAPI   H5R21803   3.917   1.207   5.474 -2.3726 -0.4245 -2.1729
  189SAPI   C2621804   3.833   1.350   5.345 -0.0003  0.4739 -0.2390
  189SAPI   H6R21805   3.791   1.265   5.289 -0.9471  1.3483 -0.8631
  189SAPI   C2721806   3.802   1.485   5.284 -0.2400 -0.8684 -0.1424
  189SAPI   H7R21807   3.868   1.508   5.197  1.6924  0.9778  1.7604
  189SAPI   H7S21808   3.829   1.567   5.353 -1.2405 -1.8851  1.4953
  189SAPI   C2821809   3.649   1.480   5.265  0.2899 -0.8937  0.2742
  189SAPI   H8R21810   3.584   1.479   5.353 -1.6115  0.3010 -1.0795
  189SAPI   C2921811   3.584   1.479   5.147  0.3363  0.0528  0.1708
  189SAPI   H9R21812   3.475   1.488   5.141  0.1493  0.5349  3.4913
  189SAPI  C21021813   3.656   1.479   5.011  0.0641 -0.5882  0.6797
  189SAPI  H10R21814   3.599   1.414   4.941  0.4550  0.4586 -0.6340
  189SAPI  H10S21815   3.752   1.423   5.019 -0.2607 -1.2467  0.0450
  189SAPI  C21121816   3.673   1.607   4.941  0.2316  0.0564 -0.0537
  189SAPI  H11R21817   3.576   1.658   4.928  0.5402  0.1901 -2.0278
  189SAPI  C21221818   3.781   1.663   4.879  0.2551 -0.1546  0.4647
  189SAPI  H12R21819   3.779   1.760   4.828  0.0225 -0.4928 -0.1754
  189SAPI  C21321820   3.915   1.604   4.861 -0.6281  0.6021  0.2431
  189SAPI  H13R21821   3.946   1.553   4.955 -1.5000 -0.0181  0.2076
  189SAPI  H13S21822   3.988   1.685   4.841 -0.0438 -0.1545 -0.7074
  189SAPI  C21421823   3.936   1.503   4.745  0.2297 -0.6936  0.0487
  189SAPI  H14R21824   3.884   1.518   4.650  2.0572 -0.7977 -0.9745
  189SAPI  C21521825   4.021   1.400   4.741  0.2340 -0.0017  0.5313
  189SAPI  H15R21826   4.014   1.332   4.655  2.2562  3.1492 -2.2167
  189SAPI  C21621827   4.108   1.355   4.864 -0.5062 -0.4521  0.4355
  189SAPI  H16R21828   4.152   1.434   4.929  1.1315  0.3922 -1.6220
  189SAPI  H16S21829   4.200   1.303   4.829 -1.3070 -0.6267 -1.4603
  189SAPI  C21721830   4.029   1.256   4.955  0.0693  0.1894 -0.2850
  189SAPI  H17R21831   3.933   1.309   4.975  0.5194  0.8635  0.1071
  189SAPI  H17S21832   4.088   1.233   5.046  0.5780 -1.5430 -1.0410
  189SAPI  C21821833   3.995   1.117   4.899  0.0071 -1.0583  0.0851
  189SAPI  H18R21834   4.089   1.061   4.916  0.0931 -1.5775 -1.9640
  189SAPI  H18S21835   3.960   1.126   4.793  0.0994  0.5821  0.1803
  189SAPI  C21921836   3.882   1.062   4.979 -0.2422  0.0383 -0.3088
  189SAPI  H19R21837   3.789   1.117   4.955 -1.4109 -1.2691  1.1886
  189SAPI  H19S21838   3.913   1.064   5.085  0.5932  0.5329 -0.5590
  189SAPI  C22021839   3.857   0.919   4.947 -0.0540 -0.1373 -0.4898
  189SAPI  H20R21840   3.843   0.918   4.836  0.1273 -1.2860 -0.5019
  189SAPI  H20S21841   3.766   0.877   4.996 -1.1446  0.0182 -2.3049
  189SAPI  H20T21842   3.951   0.860   4.943  0.5190  0.7134  0.4461
  189SAPI   C3321843   4.505   1.292   5.811 -0.3230  0.1083 -0.1803
  189SAPI   H3X21844   4.608   1.253   5.797  0.1005  1.0960  0.1287
  189SAPI   H3Y21845   4.505   1.402   5.818  0.1704  0.0421  0.9801
  189SAPI   C3421846   4.413   1.249   5.691 -0.3667 -0.5304 -0.4410
  189SAPI   H4X21847   4.311   1.292   5.693 -0.7100 -1.3725  1.1624
  189SAPI   H4Y21848   4.395   1.139   5.698 -2.2191 -0.2730 -0.9357
  189SAPI   C3521849   4.473   1.272   5.549 -0.1082 -0.2197  0.3593
  189SAPI   H5X21850   4.535   1.184   5.520  0.8668  0.7065 -0.4100
  189SAPI   H5Y21851   4.553   1.348   5.559 -0.1096  0.0572 -1.4441
  189SAPI   C3621852   4.371   1.309   5.439  0.1827  0.1440 -0.8951
  189SAPI   H6X21853   4.344   1.413   5.466  0.7074 -0.0511  0.3977
  189SAPI   H6Y21854   4.278   1.248   5.427  0.6373 -0.4938 -1.2087
  189SAPI   C3721855   4.446   1.327   5.303  0.2813  0.5228  0.5530
  189SAPI   H7X21856   4.533   1.260   5.295  0.8557  1.2580  0.5629
  189SAPI   H7Y21857   4.488   1.429   5.288  0.9642 -0.0866 -1.8890
  189SAPI   C3821858   4.353   1.295   5.188 -0.1159 -0.3309 -0.0090
  189SAPI   H8X21859   4.255   1.348   5.185  0.5627  0.9242 -0.5738
  189SAPI   H8Y21860   4.326   1.187   5.189  0.6788 -0.5700 -2.2558
  189SAPI   C3921861   4.417   1.314   5.046  0.4510 -0.1648  0.5610
  189SAPI   H9X21862   4.440   1.422   5.036 -0.2536 -0.1439 -0.9153
  189SAPI   H9Y21863   4.336   1.286   4.976  0.6285  2.0274 -0.5453
  189SAPI  C31021864   4.545   1.224   5.046  0.4716  0.8693  0.4722
  189SAPI  H10X21865   4.522   1.121   5.079  3.7369 -1.1562 -3.1750
  189SAPI  H10Y21866   4.626   1.266   5.109  0.1568 -2.3121  3.0616
  189SAPI  C31121867   4.610   1.200   4.914 -0.0524 -0.4692  0.8162
  189SAPI  H11X21868   4.545   1.133   4.854 -1.5884  0.0492  1.8460
  189SAPI  H11Y21869   4.692   1.128   4.934  0.4378 -0.2844 -0.4965
  189SAPI  C31221870   4.664   1.321   4.840  0.0561  0.0916  0.5814
  189SAPI  H12X21871   4.739   1.370   4.905  1.7324 -2.9169  1.0213
  189SAPI  H12Y21872   4.575   1.386   4.824  0.4344  0.0545 -1.7766
  189SAPI  C31321873   4.741   1.265   4.714  0.3340  0.4151  0.5352
  189SAPI  H13X21874   4.671   1.233   4.635 -0.1234  1.3611  0.5513
  189SAPI  H13Y21875   4.813   1.185   4.741  0.4070  0.1327 -0.4866
  189SAPI  C31421876   4.824   1.375   4.654 -0.5401 -1.2354  0.7931
  189SAPI  H14X21877   4.914   1.389   4.717 -1.2606  0.1757  1.5369
  189SAPI  H14Y21878   4.770   1.472   4.649  2.2134  0.2681 -0.8657
  189SAPI  C31521879   4.857   1.333   4.510 -0.1625  0.9413 -0.0487
  189SAPI  H15X21880   4.769   1.281   4.467  1.0555 -1.1557 -0.0572
  189SAPI  H15Y21881   4.948   1.271   4.510  0.9247  2.5073  0.6763
  189SAPI  C31621882   4.870   1.459   4.419  0.5843  0.1337  0.2800
  189SAPI  H16X21883   4.774   1.510   4.396  1.1713  0.8372 -0.6803
  189SAPI  H16Y21884   4.900   1.435   4.315  0.1954  1.5904 -0.1831
  189SAPI  C31721885   4.976   1.564   4.466  0.2127 -0.3690  0.0725
  189SAPI  H17X21886   5.081   1.530   4.457  1.0029  1.0349  3.2837
  189SAPI  H17Y21887   4.954   1.597   4.570 -1.2796 -3.2828  0.7426
  189SAPI  C31821888   4.976   1.696   4.389 -0.4118  0.3040  0.5298
  189SAPI  H18X21889   5.054   1.768   4.423  0.1882 -1.1148  2.2075
  189SAPI  H18Y21890   4.880   1.752   4.389  0.4053  1.8376 -2.0050
  189SAPI  H18Z21891   5.002   1.679   4.282 -0.5797 -0.4448  0.6123
  190SAPI   C1221892   4.889   0.859   6.340 -0.8092  0.8156 -0.1160
  190SAPI    H221893   4.978   0.794   6.356  1.2446  3.6588  0.6164
  190SAPI    O221894   4.829   0.842   6.210  0.2629 -0.3100  0.1038
  190SAPI   HO221895   4.905   0.831   6.152  0.7899 -1.3434  0.9787
  190SAPI   C1321896   4.798   0.834   6.460  0.2591  0.4175  0.1600
  190SAPI    H321897   4.873   0.847   6.541  0.7766  1.0555 -0.4083
  190SAPI    O321898   4.753   0.698   6.471  0.1199 -0.3052  0.4966
  190SAPI   HO321899   4.698   0.694   6.392  0.7083  1.2040 -0.0044
  190SAPI   C1421900   4.682   0.936   6.465 -0.0300  0.4367  0.4227
  190SAPI    H421901   4.632   0.923   6.366 -0.4572  2.1159  0.4078
  190SAPI    O421902   4.575   0.899   6.552  0.0659 -0.2358 -0.0381
  190SAPI   HO421903   4.607   0.893   6.643 -2.5060  2.4759  1.1168
  190SAPI   C1521904   4.731   1.070   6.480 -0.1602 -0.0325  0.8784
  190SAPI    H521905   4.786   1.075   6.577  0.8180  2.3992  0.2496
  190SAPI    O521906   4.632   1.171   6.497 -0.1493  0.7674 -0.5802
  190SAPI   HO521907   4.627   1.225   6.418 -1.3997  2.0608  0.3528
  190SAPI   C1621908   4.830   1.106   6.362 -0.2563 -0.1195  0.7647
  190SAPI    H621909   4.770   1.112   6.269 -1.0761 -0.7916  1.2441
  190SAPI    O621910   4.880   1.241   6.385 -0.5123  0.2201 -0.3103
  190SAPI   HO621911   4.945   1.269   6.320  0.3507  0.0323  0.4678
  190SAPI   C1121912   4.946   1.002   6.355  0.0795 -0.5673 -1.1472
  190SAPI    H121913   4.988   1.001   6.458 -2.0388  1.2559 -0.2131
  190SAPI     P21914   5.150   0.938   6.197  0.5568 -0.0817 -0.2964
  190SAPI   O1321915   5.192   0.862   6.317 -0.6244  0.0719 -0.5527
  190SAPI   O1421916   5.248   1.023   6.129  0.2877 -0.1026  0.5217
  190SAPI   O1221917   5.035   1.039   6.256 -0.0719  0.2426 -0.2305
  190SAPI   O1121918   5.079   0.846   6.091  0.0268  0.0174 -0.4220
  190SAPI    C121919   5.093   0.706   6.062  0.1555 -0.7665 -0.0906
  190SAPI    HA21920   5.087   0.653   6.160 -3.4649  2.0679  1.3687
  190SAPI    HB21921   5.007   0.673   6.000  0.8242 -1.9162 -0.4163
  190SAPI    C221922   5.223   0.678   5.986 -0.2793  0.4206 -0.2841
  190SAPI    HS21923   5.297   0.741   6.039 -0.1556  0.9929 -1.1264
  190SAPI   O2121924   5.187   0.710   5.848  0.4410  0.1472  0.5525
  190SAPI   C2121925   5.243   0.816   5.796 -0.1025  0.2835 -0.3598
  190SAPI   O2221926   5.341   0.866   5.848 -0.1273 -0.2428  0.3544
  190SAPI   C2221927   5.169   0.846   5.666 -0.7549 -0.7770  0.7931
  190SAPI   H2R21928   5.160   0.749   5.612 -1.4987 -1.3859  1.9848
  190SAPI   H2S21929   5.063   0.862   5.694 -0.6019 -1.9415  2.1365
  190SAPI    C321930   5.264   0.528   5.995 -0.0000  0.0160 -0.0995
  190SAPI    HX21931   5.268   0.504   6.104 -4.2553  0.4231  0.2318
  190SAPI    HY21932   5.369   0.532   5.959 -0.0954 -0.1513 -0.4014
  190SAPI   O3121933   5.182   0.432   5.924 -0.6365  0.4898  0.5585
  190SAPI   C3121934   5.086   0.376   5.993  0.0808 -0.5113 -0.3473
  190SAPI   O3221935   5.058   0.396   6.114 -0.4405 -0.5408 -0.6518
  190SAPI   C3221936   5.009   0.272   5.916  0.6160 -0.4835  0.0204
  190SAPI   H2X21937   5.011   0.192   5.993  0.0418 -0.1123  0.4276
  190SAPI   H2Y21938   5.062   0.252   5.821  2.5164 -0.6686  1.0945
  190SAPI   C2321939   5.234   0.948   5.565  0.0375 -0.5271  0.2545
  190SAPI   H3R21940   5.200   0.935   5.460 -0.6960 -2.6214  0.7386
  190SAPI   H3S21941   5.344   0.934   5.558 -0.0305  0.1968 -3.4887
  190SAPI   C2421942   5.207   1.098   5.591 -0.0516 -0.7925  0.3499
  190SAPI   H4R21943   5.102   1.118   5.558 -1.3806 -0.6610  4.2806
  190SAPI   H4S21944   5.274   1.158   5.527 -1.9278  0.0255 -0.9017
  190SAPI   C2521945   5.218   1.129   5.736  0.0324 -0.6340  0.0607
  190SAPI   H5R21946   5.321   1.134   5.772 -0.2757  0.9823  0.7465
  190SAPI   C2621947   5.116   1.162   5.820 -0.9849 -0.2235 -0.7845
  190SAPI   H6R21948   5.151   1.176   5.924  0.0074 -1.1144 -1.0017
  190SAPI   C2721949   4.968   1.176   5.795  0.2368  0.9568 -0.3005
  190SAPI   H7R21950   4.954   1.166   5.685  1.1681 -0.8493 -0.2774
  190SAPI   H7S21951   4.943   1.279   5.829  0.4949  1.3326 -1.2468
  190SAPI   C2821952   4.904   1.065   5.870 -0.0698 -0.0465  0.2587
  190SAPI   H8R21953   4.946   1.045   5.969  1.1806  2.3300  0.2439
  190SAPI   C2921954   4.811   0.976   5.817 -0.4568 -0.0527 -0.2811
  190SAPI   H9R21955   4.767   0.903   5.887  0.9095 -1.8545 -1.2665
  190SAPI  C21021956   4.761   0.981   5.676 -0.2617 -0.4529 -0.1322
  190SAPI  H10R21957   4.842   1.015   5.609 -0.0682  2.0539  1.3093
  190SAPI  H10S21958   4.693   1.069   5.668  2.7690  2.0433  0.5264
  190SAPI  C21121959   4.688   0.862   5.623  0.0064 -0.3559 -0.6403
  190SAPI  H11R21960   4.715   0.828   5.521 -1.8927  2.4693 -2.1563
  190SAPI  C21221961   4.587   0.795   5.678  0.2984  0.0330 -0.7675
  190SAPI  H12R21962   4.538   0.719   5.615 -1.9233 -0.4427  1.4614
  190SAPI  C21321963   4.523   0.828   5.809 -0.0209  0.1403  0.3573
  190SAPI  H13R21964   4.480   0.931   5.807 -1.0691 -0.2829 -2.7644
  190SAPI  H13S21965   4.593   0.827   5.895 -0.0116  1.4055  0.3765
  190SAPI  C21421966   4.401   0.743   5.836  0.0902  0.4241 -0.4823
  190SAPI  H14R21967   4.423   0.648   5.886 -0.0688  0.0506 -1.1172
  190SAPI  C21521968   4.274   0.782   5.823  0.0512 -0.2907  0.2411
  190SAPI  H15R21969   4.199   0.706   5.849  0.8251 -0.6738  1.3542
  190SAPI  C21621970   4.223   0.917   5.778  0.3010 -0.1395 -0.0221
  190SAPI  H16R21971   4.289   0.999   5.813 -0.2584  1.7132 -3.0617
  190SAPI  H16S21972   4.129   0.934   5.835 -1.1880  0.8951 -2.6830
  190SAPI  C21721973   4.201   0.931   5.625  0.3686  0.4070  0.0900
  190SAPI  H17R21974   4.286   0.902   5.560 -1.1388 -1.9657 -0.8753
  190SAPI  H17S21975   4.181   1.037   5.600 -0.6516  0.4004  0.8254
  190SAPI  C21821976   4.083   0.862   5.558  0.1879  0.7224  0.1896
  190SAPI  H18R21977   3.986   0.883   5.609 -0.5720  1.1127 -1.3889
  190SAPI  H18S21978   4.101   0.753   5.576 -0.7635  0.7995  1.8012
  190SAPI  C21921979   4.066   0.907   5.405  0.1561 -0.3236  0.0080
  190SAPI  H19R21980   4.140   0.844   5.352  2.1543  1.0820  1.0737
  190SAPI  H19S21981   4.108   1.009   5.390 -1.5081  0.2137 -1.1892
  190SAPI  C22021982   3.928   0.893   5.345  0.4262  0.7591 -0.1461
  190SAPI  H20R21983   3.904   0.786   5.328 -0.2017  0.9451 -0.4501
  190SAPI  H20S21984   3.934   0.949   5.250  0.5027  0.2293 -0.4509
  190SAPI  H20T21985   3.842   0.941   5.397  0.7563  0.5563  0.5956
  190SAPI   C3321986   4.866   0.320   5.895 -0.2515  0.1362  0.6132
  190SAPI   H3X21987   4.822   0.359   5.989 -2.8775  0.6743 -0.8025
  190SAPI   H3Y21988   4.815   0.224   5.872  1.0672  0.1237 -2.6857
  190SAPI   C3421989   4.838   0.430   5.797 -0.4602 -0.3163  0.0788
  190SAPI   H4X21990   4.873   0.530   5.829 -0.2530 -0.4669  0.3191
  190SAPI   H4Y21991   4.731   0.458   5.803 -0.7014 -0.6910 -2.0796
  190SAPI   C3521992   4.863   0.402   5.651 -0.4557  0.0800 -0.2343
  190SAPI   H5X21993   4.803   0.311   5.630 -1.6046  0.4239  1.4711
  190SAPI   H5Y21994   4.968   0.369   5.637 -0.9539 -3.0405  2.8845
  190SAPI   C3621995   4.829   0.515   5.549 -0.2224  0.0443 -0.3537
  190SAPI   H6X21996   4.900   0.599   5.557 -0.5179  0.3684 -1.0636
  190SAPI   H6Y21997   4.729   0.561   5.569 -0.2782 -0.7818  1.3093
  190SAPI   C3721998   4.831   0.455   5.414 -0.0001 -0.2794  0.4102
  190SAPI   H7X21999   4.755   0.374   5.419 -0.4441  0.1650  0.7986
  190SAPI   H7Y22000   4.929   0.404   5.400  0.7753  1.1893  0.4188
  190SAPI   C3822001   4.802   0.552   5.294  0.3986  0.5519 -0.8196
  190SAPI   H8X22002   4.893   0.615   5.286  0.2504  1.0928  1.5076
  190SAPI   H8Y22003   4.707   0.607   5.308 -0.2265 -1.0242  1.4563
  190SAPI   C3922004   4.781   0.479   5.160 -0.5503 -0.8597 -0.0346
  190SAPI   H9X22005   4.684   0.425   5.157  0.0183 -1.8853 -0.3701
  190SAPI   H9Y22006   4.852   0.394   5.150 -1.1824 -1.3975 -0.0143
  190SAPI  C31022007   4.786   0.570   5.034  0.3306  0.6367  0.3646
  190SAPI  H10X22008   4.880   0.627   5.021  0.7501 -0.3983 -1.2773
  190SAPI  H10Y22009   4.707   0.647   5.049 -0.8405 -0.5666  0.4133
  190SAPI  C31122010   4.766   0.504   4.900 -0.7411 -0.6878 -0.9704
  190SAPI  H11X22011   4.669   0.449   4.900 -1.4705  0.5453 -2.4536
  190SAPI  H11Y22012   4.843   0.426   4.879 -0.2450 -1.9051  4.6010
  190SAPI  C31222013   4.763   0.607   4.787 -0.2811 -1.0029  0.3670
  190SAPI  H12X22014   4.856   0.667   4.798 -0.8837 -0.2428  1.3613
  190SAPI  H12Y22015   4.669   0.663   4.806  0.5966  0.7254 -0.3052
  190SAPI  C31322016   4.742   0.528   4.656  0.4366 -0.4836 -0.8411
  190SAPI  H13X22017   4.653   0.463   4.656  0.7244 -0.8786  0.1722
  190SAPI  H13Y22018   4.820   0.450   4.646 -0.2313 -1.5691  2.0694
  190SAPI  C31422019   4.730   0.616   4.531 -0.1025 -0.2214 -0.6680
  190SAPI  H14X22020   4.739   0.546   4.446  1.1541 -0.0683 -0.6605
  190SAPI  H14Y22021   4.820   0.680   4.528  0.0620 -0.4010  0.3225
  190SAPI  C31522022   4.601   0.700   4.535  0.1126 -0.2092  0.3711
  190SAPI  H15X22023   4.616   0.766   4.623 -1.0246  0.5690 -0.0050
  190SAPI  H15Y22024   4.513   0.634   4.554 -1.6871  1.9452 -0.2949
  190SAPI  C31622025   4.567   0.774   4.412 -0.0915  0.1085 -0.5953
  190SAPI  H16X22026   4.478   0.840   4.418  0.4045  0.6225  1.6001
  190SAPI  H16Y22027   4.544   0.705   4.328  1.3584 -1.4002  0.2261
  190SAPI  C31722028   4.685   0.860   4.354 -0.0259  0.3501 -0.1543
  190SAPI  H17X22029   4.651   0.906   4.259  0.3470  1.8178  0.4166
  190SAPI  H17Y22030   4.761   0.783   4.328  2.0501  2.0733  0.6902
  190SAPI  C31822031   4.737   0.965   4.455 -0.1880  1.4380  0.2491
  190SAPI  H18X22032   4.809   1.033   4.405  0.5516  1.9921  2.0272
  190SAPI  H18Y22033   4.781   0.925   4.549  0.3422 -0.9895 -0.9843
  190SAPI  H18Z22034   4.660   1.032   4.498  1.1088  2.2069  1.4252
  191SAPI   C1222035   0.646   5.625   1.960 -0.6338 -0.2390  0.8259
  191SAPI    H222036   0.668   5.661   2.062 -0.5858 -2.2518  1.5551
  191SAPI    O222037   0.613   5.487   1.961 -0.1391  0.3130  0.8112
  191SAPI   HO222038   0.692   5.436   1.981 -1.8420 -1.6176  2.9968
  191SAPI   C1322039   0.530   5.711   1.912 -0.2826 -0.2678 -0.1663
  191SAPI    H322040   0.551   5.820   1.920  0.0009 -0.3286 -0.0561
  191SAPI    O322041   0.423   5.686   2.004  0.2611  0.6272  0.4051
  191SAPI   HO322042   0.394   5.594   1.999 -0.5941  0.8490  1.0663
  191SAPI   C1422043   0.498   5.680   1.768 -0.3759 -0.2001  0.6671
  191SAPI    H422044   0.478   5.571   1.761 -1.1155 -0.1142  1.3567
  191SAPI    O422045   0.388   5.755   1.730 -0.1406  0.4794 -0.0133
  191SAPI   HO422046   0.402   5.846   1.757 -2.4273  1.3713 -1.6329
  191SAPI   C1522047   0.626   5.707   1.681  0.6732  0.1392 -0.8506
  191SAPI    H522048   0.647   5.816   1.687  2.2125 -0.1391 -0.9773
  191SAPI    O522049   0.595   5.675   1.543  0.2720 -0.2467 -0.0623
  191SAPI   HO522050   0.540   5.744   1.504  0.7016 -0.0956 -0.4051
  191SAPI   C1622051   0.748   5.625   1.737  0.5720  0.1468 -0.1609
  191SAPI    H622052   0.730   5.517   1.718 -0.2253  0.2628 -0.0546
  191SAPI    O622053   0.866   5.645   1.662  0.7787 -0.2391  0.5392
  191SAPI   HO622054   0.888   5.738   1.666  1.1741 -0.3584  1.1319
  191SAPI   C1122055   0.771   5.655   1.880 -0.1177  0.3482 -0.1809
  191SAPI    H122056   0.786   5.765   1.888  1.5739  0.0234  1.5647
  191SAPI     P22057   0.969   5.645   2.072  0.3597 -0.4475 -0.2538
  191SAPI   O1322058   0.930   5.788   2.085  0.2615 -0.4148 -0.4517
  191SAPI   O1422059   1.109   5.609   2.060 -0.3176  1.0940 -0.4362
  191SAPI   O1222060   0.881   5.576   1.947  0.4831 -0.1127  0.0192
  191SAPI   O1122061   0.914   5.576   2.204  0.0137  0.2312  0.3039
  191SAPI    C122062   0.978   5.588   2.328 -0.0245 -0.6981 -0.0830
  191SAPI    HA22063   0.914   5.542   2.406 -0.6462 -0.4440 -0.4438
  191SAPI    HB22064   1.076   5.536   2.320  2.0430  2.9129  0.6385
  191SAPI    C222065   0.997   5.739   2.382  0.3637  0.0463 -0.3089
  191SAPI    HS22066   0.899   5.788   2.364 -0.0688 -0.9991 -0.8453
  191SAPI   O2122067   1.098   5.813   2.316  0.4780  0.1970  0.5424
  191SAPI   C2122068   1.089   5.941   2.338 -0.0663 -0.5515 -0.4590
  191SAPI   O2222069   0.997   5.995   2.395 -0.1661 -0.3353 -0.7884
  191SAPI   C2222070   1.208   6.012   2.274  0.0016  0.5401  0.0049
  191SAPI   H2R22071   1.297   5.956   2.310  0.4496  0.1045 -1.7370
  191SAPI   H2S22072   1.194   6.009   2.164 -3.2208  3.0201  0.2825
  191SAPI    C322073   1.037   5.724   2.527  0.2713  0.2473  0.0938
  191SAPI    HX22074   0.977   5.639   2.566 -0.4286  0.0866 -1.2941
  191SAPI    HY22075   1.015   5.816   2.585  0.8423  0.2186  0.3576
  191SAPI   O3122076   1.171   5.678   2.541  0.2652 -0.0636  0.8292
  191SAPI   C3122077   1.267   5.766   2.578 -0.2524 -0.7233  0.3980
  191SAPI   O3222078   1.257   5.883   2.601 -0.2521  0.0230  0.4422
  191SAPI   C3222079   1.392   5.679   2.602 -0.1436 -0.5349  0.3396
  191SAPI   H2X22080   1.415   5.621   2.511  0.2816 -2.6830  1.7869
  191SAPI   H2Y22081   1.371   5.613   2.689 -0.5214 -0.6003  0.2009
  191SAPI   C2322082   1.224   6.158   2.329  0.4674 -1.1703  0.1292
  191SAPI   H3R22083   1.122   6.196   2.307  1.8607  1.4926 -2.0138
  191SAPI   H3S22084   1.299   6.206   2.263 -0.6116  0.6707  0.2170
  191SAPI   C2422085   1.254   6.187   2.473  0.5046 -0.7509 -0.2674
  191SAPI   H4R22086   1.360   6.154   2.481  1.1608  1.3495  0.0610
  191SAPI   H4S22087   1.178   6.133   2.533 -1.2691  1.4478 -0.4628
  191SAPI   C2522088   1.240   6.323   2.527  0.0568 -0.2546 -0.1217
  191SAPI   H5R22089   1.180   6.396   2.471  1.4886  0.7678 -0.3598
  191SAPI   C2622090   1.283   6.353   2.653  0.3561 -0.7403 -0.7654
  191SAPI   H6R22091   1.251   6.451   2.692  1.0204 -1.1638  0.8843
  191SAPI   C2722092   1.362   6.260   2.743  0.4600 -0.2556  0.6614
  191SAPI   H7R22093   1.451   6.321   2.771 -0.2380  0.3934  1.4965
  191SAPI   H7S22094   1.400   6.181   2.675 -1.6295 -1.4127  0.8028
  191SAPI   C2822095   1.304   6.183   2.860  0.5442 -0.3146  0.9325
  191SAPI   H8R22096   1.264   6.086   2.828 -0.9832  0.6367 -0.1334
  191SAPI   C2922097   1.310   6.214   2.990  0.0738 -0.4396 -0.0131
  191SAPI   H9R22098   1.258   6.147   3.059 -1.1741 -1.5473 -1.9980
  191SAPI  C21022099   1.387   6.327   3.054  0.5809 -0.3909  0.4329
  191SAPI  H10R22100   1.453   6.374   2.979 -0.7707  0.6172 -0.1463
  191SAPI  H10S22101   1.451   6.287   3.135 -0.5979 -0.2207  1.4738
  191SAPI  C21122102   1.306   6.445   3.102 -0.1792  0.2110 -1.0946
  191SAPI  H11R22103   1.274   6.518   3.026  0.3159  1.1342 -0.4242
  191SAPI  C21222104   1.276   6.469   3.230  0.0673 -0.3745  0.2089
  191SAPI  H12R22105   1.228   6.566   3.250  0.6590 -0.3302  1.4430
  191SAPI  C21322106   1.315   6.390   3.358 -0.0423  0.1166  0.7099
  191SAPI  H13R22107   1.380   6.302   3.338  0.4328  0.7241 -0.5141
  191SAPI  H13S22108   1.226   6.349   3.410 -0.6071  1.3125  0.6898
  191SAPI  C21422109   1.394   6.478   3.450 -0.5784 -1.6403 -0.0307
  191SAPI  H14R22110   1.500   6.498   3.428 -0.8260 -0.9892 -0.6472
  191SAPI  C21522111   1.353   6.540   3.554 -0.0952  0.0429 -0.2809
  191SAPI  H15R22112   1.432   6.566   3.626  1.0989  1.8274 -2.1909
  191SAPI  C21622113   1.215   6.546   3.612 -0.4609 -0.4761 -0.2662
  191SAPI  H16R22114   1.196   6.476   3.696  1.0998 -1.3964 -0.6643
  191SAPI  H16S22115   1.133   6.520   3.541 -1.5685 -0.3141  0.9415
  191SAPI  C21722116   1.187   6.689   3.649  0.5660  0.2126  0.0614
  191SAPI  H17R22117   1.209   6.755   3.563  1.2833  0.9938  0.8287
  191SAPI  H17S22118   1.261   6.732   3.721 -0.6266  1.6225  0.4823
  191SAPI  C21822119   1.043   6.713   3.697 -0.5129 -0.8442 -0.2281
  191SAPI  H18R22120   0.974   6.673   3.619  0.5628 -1.1439 -1.0391
  191SAPI  H18S22121   1.021   6.822   3.699 -1.3439 -0.9951 -0.9621
  191SAPI  C21922122   1.022   6.659   3.835  0.2347 -0.2035 -0.1928
  191SAPI  H19R22123   1.101   6.689   3.907  0.6677 -0.4383 -0.5725
  191SAPI  H19S22124   1.041   6.550   3.836  1.5827  0.0212 -0.3421
  191SAPI  C22022125   0.889   6.679   3.896 -0.6158  0.1364  0.0977
  191SAPI  H20R22126   0.876   6.789   3.902  2.0360  0.6531 -2.1820
  191SAPI  H20S22127   0.879   6.630   3.995  3.8202  0.3647  0.7719
  191SAPI  H20T22128   0.808   6.639   3.832 -2.4935  0.2227  2.3628
  191SAPI   C3322129   1.522   5.762   2.638  0.2141  0.0580 -0.3270
  191SAPI   H3X22130   1.519   5.862   2.589  1.8768  1.8310  3.0104
  191SAPI   H3Y22131   1.614   5.711   2.601  1.5371  2.0259  0.1966
  191SAPI   C3422132   1.543   5.781   2.787  0.2102 -0.3419 -0.0297
  191SAPI   H4X22133   1.583   5.691   2.838  2.9070  1.1233  0.5343
  191SAPI   H4Y22134   1.453   5.825   2.835  0.2625 -0.3771  0.1022
  191SAPI   C3522135   1.653   5.886   2.810 -0.5198  0.6919 -0.0398
  191SAPI   H5X22136   1.627   5.977   2.751 -0.4000  0.5674 -0.2856
  191SAPI   H5Y22137   1.741   5.835   2.766 -1.8716 -2.8953  1.2515
  191SAPI   C3622138   1.686   5.914   2.955 -0.0115 -0.5680 -0.2362
  191SAPI   H6X22139   1.751   6.004   2.949 -0.4496 -0.1305  1.2344
  191SAPI   H6Y22140   1.750   5.830   2.990  0.2556  0.1682  1.0951
  191SAPI   C3722141   1.573   5.950   3.043  0.3734  0.1034 -0.2919
  191SAPI   H7X22142   1.499   5.869   3.028 -0.1272  0.9187 -2.3760
  191SAPI   H7Y22143   1.507   6.036   3.017 -1.3051 -0.2811  2.4300
  191SAPI   C3822144   1.607   5.946   3.198 -0.2450 -0.4192  0.1019
  191SAPI   H8X22145   1.705   5.993   3.220 -2.1619  3.2067  1.2172
  191SAPI   H8Y22146   1.620   5.837   3.217 -0.1817 -0.7090 -1.4947
  191SAPI   C3922147   1.490   5.999   3.274 -0.0002  0.7362  0.0211
  191SAPI   H9X22148   1.395   5.977   3.221 -1.1010 -0.7049  2.4998
  191SAPI   H9Y22149   1.489   6.110   3.282  2.1756  0.7685 -0.0513
  191SAPI  C31022150   1.463   5.933   3.413  0.5064 -0.0449  0.3397
  191SAPI  H10X22151   1.438   5.826   3.396  1.8747 -0.2025 -0.8391
  191SAPI  H10Y22152   1.378   5.978   3.467  0.4746 -1.4680  1.5179
  191SAPI  C31122153   1.580   5.941   3.507  0.2793 -0.3777 -0.0276
  191SAPI  H11X22154   1.603   6.048   3.525  2.1457 -0.4730 -1.6255
  191SAPI  H11Y22155   1.656   5.892   3.443 -1.1055  0.2840 -2.2568
  191SAPI  C31222156   1.568   5.874   3.640 -0.1416 -0.8183 -0.4320
  191SAPI  H12X22157   1.658   5.889   3.704 -0.5191 -1.0183  0.1484
  191SAPI  H12Y22158   1.538   5.769   3.622 -0.5628 -0.3618 -2.5851
  191SAPI  C31322159   1.445   5.919   3.716  0.5762  0.2990 -0.0263
  191SAPI  H13X22160   1.361   5.862   3.672  2.7881 -2.7424 -0.5243
  191SAPI  H13Y22161   1.436   6.029   3.701 -0.8518  0.4293  1.5952
  191SAPI  C31422162   1.454   5.903   3.868 -0.2123  0.0545 -0.3745
  191SAPI  H14X22163   1.360   5.939   3.914 -0.5366  1.3367 -1.9794
  191SAPI  H14Y22164   1.534   5.962   3.919  1.1674 -1.2332 -1.0147
  191SAPI  C31522165   1.492   5.762   3.903 -0.2855 -0.7632 -1.1950
  191SAPI  H15X22166   1.597   5.755   3.937 -0.5161  0.5425 -0.1576
  191SAPI  H15Y22167   1.488   5.709   3.806 -0.0156 -1.3836 -0.8690
  191SAPI  C31622168   1.385   5.707   3.999 -0.0580  0.1951  0.6208
  191SAPI  H16X22169   1.286   5.734   3.958 -0.0018  0.3015  0.5557
  191SAPI  H16Y22170   1.397   5.755   4.098  1.3156 -0.8926  1.0072
  191SAPI  C31722171   1.389   5.555   4.029  0.3812  0.0019  0.1094
  191SAPI  H17X22172   1.497   5.531   4.035  0.8311  1.5292 -1.3134
  191SAPI  H17Y22173   1.354   5.489   3.946 -0.5751 -1.0303  1.3057
  191SAPI  C31822174   1.292   5.519   4.145 -0.1238 -0.0573  0.7056
  191SAPI  H18X22175   1.289   5.592   4.228  0.7661 -0.8697  1.4593
  191SAPI  H18Y22176   1.326   5.419   4.177 -0.4212 -0.8595 -1.3943
  191SAPI  H18Z22177   1.187   5.514   4.108  0.2415 -0.6622 -0.2776
  192SAPI   C1222178   3.187   7.325   1.963 -0.1553 -0.5987  1.2383
  192SAPI    H222179   3.256   7.387   2.024 -0.7867 -1.7998  3.2426
  192SAPI    O222180   3.147   7.398   1.844  0.3537 -0.2039  0.0992
  192SAPI   HO222181   3.090   7.463   1.886  0.2648 -1.8008  2.5579
  192SAPI   C1322182   3.264   7.198   1.925 -0.5918 -0.0783  0.5258
  192SAPI    H322183   3.306   7.147   2.015  1.8474  1.2880  0.1975
  192SAPI    O322184   3.380   7.223   1.841 -0.2788  0.0460 -0.2654
  192SAPI   HO322185   3.360   7.235   1.748  0.7870 -1.0108 -0.6506
  192SAPI   C1422186   3.171   7.094   1.869  0.3994  0.2918  0.0606
  192SAPI    H422187   3.134   7.140   1.775 -0.1383  0.4467  0.3484
  192SAPI    O422188   3.245   6.973   1.835 -0.6340 -0.0934 -0.2663
  192SAPI   HO422189   3.264   6.961   1.741  0.1826  0.4705 -0.1786
  192SAPI   C1522190   3.056   7.068   1.966  0.0567  0.2500 -0.1895
  192SAPI    H522191   3.092   7.026   2.063 -0.6549 -1.1341 -0.5140
  192SAPI    O522192   2.967   6.973   1.916  0.3013 -0.1204  0.5715
  192SAPI   HO522193   2.900   6.955   1.983 -0.0611  1.4566  0.6510
  192SAPI   C1622194   2.981   7.191   1.995 -0.5356 -0.2053  0.2005
  192SAPI    H622195   2.951   7.244   1.902 -0.0805 -0.9348 -0.3721
  192SAPI    O622196   2.863   7.166   2.087  0.0517 -0.2400 -0.2615
  192SAPI   HO622197   2.885   7.132   2.174 -0.2927  1.4477  0.5016
  192SAPI   C1122198   3.075   7.296   2.059 -0.3964  0.3170  0.3878
  192SAPI    H122199   3.112   7.248   2.152  2.5289 -0.7627 -1.2768
  192SAPI     P22200   3.025   7.509   2.216 -0.3054 -0.7641  0.0509
  192SAPI   O1322201   2.940   7.631   2.214 -0.6334  0.1264 -0.2483
  192SAPI   O1422202   3.172   7.532   2.224  0.6704 -0.4363  0.4065
  192SAPI   O1222203   3.010   7.422   2.078 -0.5105  0.5781 -0.4490
  192SAPI   O1122204   2.963   7.422   2.333 -0.1907  1.0038 -0.0809
  192SAPI    C122205   2.949   7.474   2.463  0.6207 -0.0858  0.3540
  192SAPI    HA22206   3.019   7.558   2.484 -0.0377  0.1458  1.6608
  192SAPI    HB22207   2.853   7.527   2.475  0.3854 -0.0252 -1.7223
  192SAPI    C222208   2.962   7.373   2.583  0.1850  0.6823  0.3401
  192SAPI    HS22209   2.864   7.321   2.589 -0.7978  2.5192  0.5369
  192SAPI   O2122210   3.002   7.439   2.703 -0.3248 -0.4354 -0.0152
  192SAPI   C2122211   2.931   7.418   2.811  0.0031  0.0639  0.2433
  192SAPI   O2222212   2.823   7.363   2.824  0.3756 -0.1399  0.6859
  192SAPI   C2222213   3.022   7.447   2.927  0.0748  0.1071 -0.1118
  192SAPI   H2R22214   3.108   7.376   2.926  0.8706  1.0620 -0.7920
  192SAPI   H2S22215   3.066   7.549   2.921  0.4201  0.0579  1.3113
  192SAPI    C322216   3.075   7.275   2.540  0.7647  0.4867 -0.7408
  192SAPI    HX22217   3.154   7.350   2.521  0.2737  0.8196 -1.5222
  192SAPI    HY22218   3.059   7.223   2.443  0.3026 -2.9619  1.1077
  192SAPI   O3122219   3.122   7.186   2.641  0.1840 -0.3828 -0.8460
  192SAPI   C3122220   3.033   7.093   2.665 -0.3947 -0.3325  0.8674
  192SAPI   O3222221   2.950   7.065   2.584 -0.0623  0.3100  0.2400
  192SAPI   C3222222   3.041   7.016   2.794  0.2179  0.1682 -0.2072
  192SAPI   H2X22223   3.103   7.070   2.869  0.8212 -1.2508  0.3147
  192SAPI   H2Y22224   3.105   6.930   2.768 -0.0256  0.0789 -0.5282
  192SAPI   C2322225   2.964   7.440   3.072  0.2691  0.0763 -0.6199
  192SAPI   H3R22226   2.904   7.347   3.077 -2.8338  2.0055 -0.4482
  192SAPI   H3S22227   2.880   7.511   3.086 -0.4163 -0.7356 -0.5801
  192SAPI   C2422228   3.066   7.433   3.187  0.0858 -0.1822  0.8925
  192SAPI   H4R22229   3.098   7.537   3.209 -2.5240  0.8427  0.0424
  192SAPI   H4S22230   3.152   7.367   3.163 -0.8201 -1.7096  1.6747
  192SAPI   C2522231   2.999   7.371   3.303 -0.2161  0.0108  0.1207
  192SAPI   H5R22232   3.008   7.263   3.326 -0.0891  0.5529  2.7367
  192SAPI   C2622233   2.945   7.438   3.406  0.5891 -0.0426  0.0479
  192SAPI   H6R22234   2.887   7.390   3.486  1.8110 -0.0394  0.9458
  192SAPI   C2722235   2.943   7.594   3.430 -0.4912  0.8244 -0.5752
  192SAPI   H7R22236   2.919   7.641   3.332 -0.9579 -1.2280 -1.4772
  192SAPI   H7S22237   3.039   7.626   3.476  0.3274 -1.7251 -0.4143
  192SAPI   C2822238   2.825   7.625   3.518 -0.3526  0.8184 -0.0037
  192SAPI   H8R22239   2.724   7.595   3.487 -0.6067  2.5660 -0.9575
  192SAPI   C2922240   2.831   7.703   3.624  0.1651 -0.4728  0.5679
  192SAPI   H9R22241   2.735   7.732   3.668 -0.5840 -0.4899 -1.0436
  192SAPI  C21022242   2.962   7.760   3.678 -0.1655  0.0673  1.0471
  192SAPI  H10R22243   2.935   7.847   3.742 -0.1339  0.7549  0.1325
  192SAPI  H10S22244   3.007   7.808   3.589  3.1007 -2.5100  1.1999
  192SAPI  C21122245   3.065   7.673   3.743  0.5828  0.5975 -0.5334
  192SAPI  H11R22246   3.131   7.621   3.673 -0.6935 -0.6017 -0.8821
  192SAPI  C21222247   3.079   7.659   3.882 -0.8596  0.2131  0.0556
  192SAPI  H12R22248   3.152   7.584   3.916 -1.2856 -0.5891 -0.7989
  192SAPI  C21322249   2.997   7.732   3.996 -0.1271 -0.1537  0.4503
  192SAPI  H13R22250   2.984   7.655   4.075  2.5956 -1.8890 -0.7089
  192SAPI  H13S22251   2.894   7.748   3.958  0.2654 -0.6194 -0.8461
  192SAPI  C21422252   3.048   7.867   4.051  0.2220 -0.0681 -0.3800
  192SAPI  H14R22253   3.147   7.854   4.095  0.1931 -0.4484 -0.4319
  192SAPI  C21522254   2.973   7.973   4.073 -0.0262  0.2431  0.1709
  192SAPI  H15R22255   3.024   8.055   4.125 -1.8679  2.6488 -1.6743
  192SAPI  C21622256   2.828   8.000   4.035 -0.3958  0.3575 -0.6628
  192SAPI  H16R22257   2.780   7.918   3.977  1.0839  1.6967 -3.9135
  192SAPI  H16S22258   2.819   8.094   3.976 -0.4947  0.4604 -0.4849
  192SAPI  C21722259   2.733   8.015   4.158 -1.2530  0.2651  0.4568
  192SAPI  H17R22260   2.640   8.058   4.114 -1.4267  2.9528  3.3193
  192SAPI  H17S22261   2.773   8.099   4.217 -0.4722 -0.6759  1.2858
  192SAPI  C21822262   2.703   7.883   4.234 -0.7793 -0.2569  0.0653
  192SAPI  H18R22263   2.797   7.833   4.263 -0.9049  0.1341  1.1763
  192SAPI  H18S22264   2.633   7.820   4.175 -1.3361 -0.8088  1.2965
  192SAPI  C21922265   2.628   7.912   4.370 -0.5593 -0.1822  0.2929
  192SAPI  H19R22266   2.574   7.822   4.407 -2.3111  0.1282 -1.4376
  192SAPI  H19S22267   2.551   7.990   4.359 -0.1682  0.3336  1.1677
  192SAPI  C22022268   2.724   7.962   4.475 -1.2813  0.2818 -0.0227
  192SAPI  H20R22269   2.668   7.975   4.569 -0.6661  0.7489  0.2828
  192SAPI  H20S22270   2.759   8.064   4.450 -1.9418  0.3944 -0.4985
  192SAPI  H20T22271   2.807   7.887   4.481 -1.6307 -0.1497 -0.4738
  192SAPI   C3322272   2.902   6.969   2.841  0.6357 -0.1694 -0.1141
  192SAPI   H3X22273   2.870   6.893   2.767 -0.0946  0.7285 -0.7362
  192SAPI   H3Y22274   2.828   7.052   2.835  2.5637  1.5792 -0.1184
  192SAPI   C3422275   2.902   6.915   2.985  0.8659  0.2184  0.3675
  192SAPI   H4X22276   2.995   6.857   3.003 -1.0115 -2.3388  2.1186
  192SAPI   H4Y22277   2.818   6.846   3.006 -0.2148  0.2716 -3.4692
  192SAPI   C3522278   2.899   7.036   3.090 -0.0182  0.7810  0.7514
  192SAPI   H5X22279   2.806   7.095   3.073 -0.7935 -0.1964  1.5157
  192SAPI   H5Y22280   2.989   7.100   3.085  0.0773  0.4863 -1.6038
  192SAPI   C3622281   2.891   6.985   3.236  0.5340 -0.0624  0.4451
  192SAPI   H6X22282   2.798   6.925   3.249  0.3497  0.6337  2.4972
  192SAPI   H6Y22283   2.886   7.075   3.300 -3.8517  1.3595 -1.7295
  192SAPI   C3722284   3.017   6.908   3.283 -0.2006  0.2996  0.4431
  192SAPI   H7X22285   3.102   6.917   3.212 -1.8319  1.5883 -1.4287
  192SAPI   H7Y22286   2.990   6.800   3.279  1.0333 -0.0223  0.6334
  192SAPI   C3822287   3.049   6.929   3.426 -0.0468  0.2146 -0.0824
  192SAPI   H8X22288   2.959   6.944   3.489  1.6894  2.0160  2.0397
  192SAPI   H8Y22289   3.128   7.008   3.429  1.2089 -0.8003 -3.3804
  192SAPI   C3922290   3.113   6.794   3.479 -0.0904  0.5434  0.3303
  192SAPI   H9X22291   3.205   6.774   3.420 -1.1059 -1.4356 -0.6129
  192SAPI   H9Y22292   3.045   6.707   3.467 -0.0507  0.5204  0.2738
  192SAPI  C31022293   3.150   6.806   3.630 -0.0213 -0.5823 -0.7228
  192SAPI  H10X22294   3.060   6.848   3.680 -0.8788  0.3691 -3.0405
  192SAPI  H10Y22295   3.239   6.872   3.641  0.4251 -1.4366  1.1541
  192SAPI  C31122296   3.179   6.671   3.693 -0.5924  0.3978  0.4534
  192SAPI  H11X22297   3.098   6.598   3.673 -1.8497  0.7641  3.9358
  192SAPI  H11Y22298   3.203   6.675   3.801  2.2145 -4.5325  0.1323
  192SAPI  C31222299   3.308   6.612   3.644  0.2946  0.0481  0.4467
  192SAPI  H12X22300   3.293   6.573   3.541  0.0742 -0.9424  0.8520
  192SAPI  H12Y22301   3.319   6.520   3.705  0.5609 -0.0987  0.1779
  192SAPI  C31322302   3.431   6.696   3.676 -0.4659  0.0935 -0.5420
  192SAPI  H13X22303   3.424   6.748   3.774 -0.3540 -0.1808 -0.3887
  192SAPI  H13Y22304   3.432   6.782   3.605 -2.0378  0.1010 -0.5743
  192SAPI  C31422305   3.564   6.615   3.679 -0.0264 -0.3234 -0.2779
  192SAPI  H14X22306   3.568   6.572   3.576 -3.5503  0.6503 -0.9084
  192SAPI  H14Y22307   3.549   6.535   3.755 -0.7805  0.3662  0.3082
  192SAPI  C31522308   3.687   6.699   3.700 -0.2183  0.0051 -1.0147
  192SAPI  H15X22309   3.775   6.631   3.702 -0.5251 -0.4613 -2.4866
  192SAPI  H15Y22310   3.681   6.750   3.798  0.5568  1.2718 -1.6035
  192SAPI  C31622311   3.705   6.795   3.580 -0.2702 -0.4771  0.6942
  192SAPI  H16X22312   3.620   6.866   3.575 -0.2182 -0.4211  0.6157
  192SAPI  H16Y22313   3.702   6.732   3.489 -2.3405 -0.4811  0.7491
  192SAPI  C31722314   3.838   6.864   3.593  0.2147 -0.0027  0.3260
  192SAPI  H17X22315   3.918   6.796   3.628  0.1450 -0.6887 -0.8457
  192SAPI  H17Y22316   3.820   6.935   3.677 -0.1885 -0.6494  0.7860
  192SAPI  C31822317   3.877   6.941   3.473 -0.5733 -0.1084  0.0641
  192SAPI  H18X22318   3.878   6.878   3.382  1.6392  2.9645 -2.1522
  192SAPI  H18Y22319   3.975   6.990   3.494 -0.8094  0.4986 -0.2336
  192SAPI  H18Z22320   3.801   7.021   3.458 -1.4822 -0.7443  1.2132
  193SOD    SOD22321   2.661   2.189   6.595 -0.0533 -0.1558  0.6263
  194SOD    SOD22322   2.944   3.154   7.859 -0.1162  0.4659  0.0086
  195SOD    SOD22323   4.786   4.859   0.557 -0.1613  0.3235 -0.2918
  196SOD    SOD22324   4.074   4.972   6.967  0.0113  0.4981  0.3765
  197SOD    SOD22325   4.236   5.517   1.875  0.7196 -0.8455  0.3246
  198SOD    SOD22326   2.343   4.136   1.804  0.2811  0.0392  0.0696
  199SOD    SOD22327   3.954   3.269   7.558  0.2691  0.3608 -0.2171
  200SOD    SOD22328   1.079   2.529   2.492 -0.1460 -0.1435 -0.1181
  201SOD    SOD22329   1.371   3.707   1.612  0.3475 -0.4857 -0.0903
  202SOD    SOD22330   2.058   3.536   1.449  0.0496  0.4033 -0.2549
  203SOD    SOD22331   6.146   5.767   7.405  0.3482  0.0544  0.4160
  204SOD    SOD22332   6.005   0.595   7.525 -0.1338  0.0119  0.0881
  205SOD    SOD22333   3.387   4.847   7.986  0.3575  0.3191 -0.4646
  206SOD    SOD22334   4.127   2.534   0.861  0.1526  0.1838  0.2690
  207SOD    SOD22335   2.274   3.034   6.221  0.0127  0.0094  0.6091
  208SOD    SOD22336   5.440   6.435   1.159 -0.4843 -0.2060  0.0219
  209SOD    SOD22337   1.705   7.168   8.339 -0.4070 -0.1515 -0.2680
  210SOD    SOD22338   3.971   0.942   7.083 -0.5380 -0.2467  0.2698
  211SOD    SOD22339   3.464   2.124   8.073  0.1224  0.0656  0.0620
  212SOD    SOD22340   4.540   0.682   8.478  0.1036  0.0833 -0.1857
  213SOD    SOD22341   3.737   4.720   0.078  0.4150  0.2588 -0.8165
  214SOD    SOD22342   4.909   0.421   7.467 -0.1761 -0.2965 -0.4355
  215SOD    SOD22343   4.450   0.588   7.008  0.3232 -0.4167 -0.1460
  216SOD    SOD22344   5.643   5.075   8.372 -0.2391  0.3008 -0.0692
  217SOD    SOD22345   0.478   5.722   0.450 -0.6865  0.3012  0.4653
  218SOD    SOD22346   1.832   5.473   0.552 -0.1061  0.2083 -0.1614
  219SOD    SOD22347   6.017   5.905   1.192 -0.3054  0.6515 -0.0678
  220SOD    SOD22348   6.647   2.391   1.123 -0.0184 -0.1479 -0.3877
  221SOD    SOD22349   3.652   4.547   1.743 -0.0544 -0.2338  0.3615
  222SOD    SOD22350   1.710   6.545   7.253 -0.2897 -0.0758 -0.0330
  223SOD    SOD22351   2.535   6.827   6.690 -0.1892  0.3480 -0.1547
  224SOD    SOD22352   0.205   0.687   1.888 -0.1095  0.2616  0.1854
  225SOD    SOD22353   0.018   6.096   6.389 -0.2119 -0.2358 -0.1143
  226SOD    SOD22354   2.295   5.889   7.227 -0.0214  0.2601  0.3600
  227SOD    SOD22355   0.047   4.617   0.761 -0.3320  0.0158  0.2399
  228SOD    SOD22356   3.654   7.113   7.995 -0.7204  0.3299 -0.3517
  229SOD    SOD22357   7.293   5.655   8.330  0.6723  0.0159  0.2763
  230CLA    CLA22358   1.961   7.146   8.210 -0.1927  0.4197 -0.0329
  231CLA    CLA22359   4.342   7.083   7.800  0.3536 -0.0321 -0.3785
  232CLA    CLA22360   6.187   7.298   7.567  0.1198  0.0397 -0.0908
  233CLA    CLA22361   4.181   4.483   1.984  0.3975 -0.3946 -0.1615
  234CLA    CLA22362   3.467   3.821   1.158 -0.1728 -0.0209  0.1306
  235CLA    CLA22363   7.135   4.538   7.523  0.4373  0.7334  0.1055
  236CLA    CLA22364   4.096   0.093   7.506 -0.1473 -0.4418 -0.2290
  237CLA    CLA22365   0.840   3.791   2.137  0.1221  0.1627 -0.1121
  238CLA    CLA22366   3.308   2.592   0.961  0.1725  0.0625  0.4780
  239CLA    CLA22367   1.879   4.942   7.378  0.0451 -0.3422  0.4277
  240CLA    CLA22368   1.841   5.982   7.022  0.0900  0.1451 -0.0885
  241CLA    CLA22369   6.015   4.514   7.172 -0.1386 -0.0149  0.3423
  242CLA    CLA22370   3.377   1.465   0.651 -0.1900 -0.0066 -0.0332
  243CLA    CLA22371   3.862   0.863   7.578 -0.1582 -0.0412  0.0348
  244CLA    CLA22372   4.044   4.090   0.675  0.5133 -0.5263 -0.1429
  245CLA    CLA22373   2.861   4.327   7.281  0.3522 -0.3016  0.4744
  246CLA    CLA22374   4.648   6.523   0.699 -0.2279 -0.0305  0.0816
  247TIP3   OH222375   3.196   3.206   7.452  0.2827 -0.3025 -0.2768
  247TIP3    H122376   3.229   3.169   7.535  0.5127 -0.5058 -0.4590
  247TIP3    H222377   3.121   3.151   7.430  0.3024 -0.3307 -0.2733
  248TIP3   OH222378   4.060   4.142   6.562 -0.5443  0.2155 -0.0128
  248TIP3    H122379   3.999   4.192   6.508  0.3927  0.7013 -0.6312
  248TIP3    H222380   4.101   4.080   6.501  0.7456  0.9797  0.0611
  249TIP3   OH222381   5.361   4.278   7.224 -0.7722 -0.2564 -0.3526
  249TIP3    H122382   5.371   4.338   7.299 -0.5688 -1.0263  0.2395
  249TIP3    H222383   5.361   4.336   7.148 -1.6773  0.6038  0.2744
  250TIP3   OH222384   3.755   2.486   7.220  0.6053  0.1847 -0.0196
  250TIP3    H122385   3.796   2.477   7.306  0.7928 -2.6681 -0.3595
  250TIP3    H222386   3.827   2.472   7.158 -0.0343 -0.3486 -0.6433
  251TIP3   OH222387   1.434   5.188   0.624  0.6023 -0.1685 -0.5201
  251TIP3    H122388   1.464   5.101   0.648 -1.1400 -1.0768 -1.5347
  251TIP3    H222389   1.398   5.178   0.536  0.3328  1.5628 -0.6316
  252TIP3   OH222390   4.923   4.683   7.221 -0.3513  0.2648 -0.3239
  252TIP3    H122391   5.010   4.643   7.218  0.6412  2.2000  1.4435
  252TIP3    H222392   4.872   4.634   7.156  1.0807 -3.1332  1.0008
  253TIP3   OH222393   5.030   5.070   7.138  0.0605  0.1372  0.1690
  253TIP3    H122394   5.089   5.121   7.194  0.2589 -0.3567  0.4035
  253TIP3    H222395   5.080   4.992   7.114  0.3257  0.7688 -1.4400
  254TIP3   OH222396   1.645   3.062   6.856 -0.2231 -0.1458  0.5894
  254TIP3    H122397   1.733   3.075   6.822  0.6918 -0.7642  2.7070
  254TIP3    H222398   1.588   3.079   6.781  1.6548  0.8468 -0.6351
  255TIP3   OH222399   2.671   5.525   7.168  0.2015  0.4774 -0.3669
  255TIP3    H122400   2.588   5.493   7.202 -0.3063  2.1103 -0.0257
  255TIP3    H222401   2.647   5.573   7.088  1.0391 -0.7274 -1.3515
  256TIP3   OH222402   3.399   1.717   6.635  0.1556 -0.3688 -0.4068
  256TIP3    H122403   3.463   1.765   6.689 -1.2003 -1.1321  1.9334
  256TIP3    H222404   3.330   1.781   6.619  0.0601 -0.4561 -0.3407
  257TIP3   OH222405   3.176   2.904   6.187  0.4802 -0.1562 -0.1680
  257TIP3    H122406   3.111   2.974   6.188  0.0541 -0.5472 -0.0424
  257TIP3    H222407   3.235   2.924   6.260  2.4296  1.9697 -2.2445
  258TIP3   OH222408   2.674   0.833   0.188 -0.2718 -0.9269  0.3404
  258TIP3    H122409   2.694   0.907   0.245  0.4433 -0.3543 -0.6279
  258TIP3    H222410   2.687   0.867   0.099  1.3945 -2.5820 -0.0910
  259TIP3   OH222411   6.409   1.945   6.858  0.2131  0.0879  0.2950
  259TIP3    H122412   6.433   1.873   6.799  0.6160  1.1071 -0.7851
  259TIP3    H222413   6.374   1.900   6.936  1.2230 -1.3044 -0.0226
  260TIP3   OH222414   6.166   4.377   7.602  0.0152  0.4374  0.1121
  260TIP3    H122415   6.156   4.448   7.538 -0.0691  1.4700  1.2432
  260TIP3    H222416   6.076   4.344   7.615  0.0796 -0.0061 -0.5531
  261TIP3   OH222417   2.628   2.387   6.471  0.6445 -0.3618 -0.1958
  261TIP3    H122418   2.587   2.376   6.385 -0.4909  0.7739  0.1793
  261TIP3    H222419   2.584   2.463   6.509  1.0633 -0.8941  1.4206
  262TIP3   OH222420   5.454   2.588   6.589  0.0284  0.2637  0.4040
  262TIP3    H122421   5.506   2.614   6.665 -0.4742  0.9498  0.5206
  262TIP3    H222422   5.447   2.493   6.596 -0.5816  0.3833  1.5998
  263TIP3   OH222423   5.427   4.526   8.089  0.0082 -0.1089 -0.0737
  263TIP3    H122424   5.415   4.455   8.152 -0.9789  1.0031  0.9964
  263TIP3    H222425   5.513   4.563   8.110  0.1416 -0.4160 -0.0730
  264TIP3   OH222426   5.130   2.066   0.003 -0.1081 -0.5469 -0.3123
  264TIP3    H122427   5.181   2.113   0.069 -0.9511  0.9940 -0.7254
  264TIP3    H222428   5.168   2.094  -0.081 -1.7080  0.7065 -0.6244
  265TIP3   OH222429   6.738   4.619   7.185 -0.6168 -0.2678  0.0715
  265TIP3    H122430   6.721   4.677   7.259 -0.7205 -1.4456  0.9718
  265TIP3    H222431   6.831   4.600   7.189 -0.7161 -0.7316  0.1904
  266TIP3   OH222432   3.414   2.898   0.109  0.5884  0.5519  0.1228
  266TIP3    H122433   3.502   2.937   0.117  1.5297 -0.9418 -2.3641
  266TIP3    H222434   3.363   2.965   0.063  1.2928  0.2049 -1.1906
  267TIP3   OH222435   3.851   4.088   6.140 -0.0849 -0.1709  0.1707
  267TIP3    H122436   3.940   4.123   6.150 -0.2911 -0.0273  1.6596
  267TIP3    H222437   3.853   4.006   6.188 -0.1712 -1.2401 -1.6161
  268TIP3   OH222438   4.159   0.016   7.946  0.2966 -0.6965 -0.0686
  268TIP3    H122439   4.239  -0.028   7.920  1.1290  0.3077  0.7508
  268TIP3    H222440   4.110   0.027   7.864 -0.1549 -3.5203 -0.2228
  269TIP3   OH222441   2.973   6.194   1.309 -0.1058  0.1310  0.1236
  269TIP3    H122442   3.056   6.169   1.349 -0.5042 -1.2519  0.1190
  269TIP3    H222443   2.913   6.204   1.382 -0.1776  0.1876  0.0568
  270TIP3   OH222444   2.822   7.306   7.141 -0.6376  0.2328  0.2457
  270TIP3    H122445   2.772   7.252   7.202  1.3802  1.0455  2.7316
  270TIP3    H222446   2.768   7.383   7.127 -0.6849  0.5037  1.8399
  271TIP3   OH222447   1.534   7.222   7.118 -0.0734  0.2345 -0.1596
  271TIP3    H122448   1.570   7.281   7.052  1.1617  2.6908  2.6023
  271TIP3    H222449   1.463   7.271   7.158 -1.6639 -1.7272 -0.4993
  272TIP3   OH222450   0.294   0.007   7.177 -0.2869 -1.0594  0.1563
  272TIP3    H122451   0.233   0.013   7.251  0.6467 -1.7134  0.9938
  272TIP3    H222452   0.259  -0.064   7.123 -0.8718 -0.7033  0.0651
  273TIP3   OH222453   7.050   6.698   7.737  0.7787  0.0065  0.1679
  273TIP3    H122454   7.068   6.610   7.703  3.3709  0.7452 -0.4425
  273TIP3    H222455   7.034   6.751   7.659 -1.2973  0.0066  0.5594
  274TIP3   OH222456   6.147   0.899   7.942 -0.1929  0.7052 -0.0283
  274TIP3    H122457   6.136   0.908   7.848  2.4275  1.8383 -0.2894
  274TIP3    H222458   6.119   0.984   7.978  1.1298  1.1697 -0.0561
  275TIP3   OH222459   4.171   1.685   0.579  0.1910 -0.1858 -0.0942
  275TIP3    H122460   4.225   1.699   0.657  0.7880  0.8516 -0.6826
  275TIP3    H222461   4.219   1.621   0.527  1.2816  1.3470 -1.0029
  276TIP3   OH222462   2.381   0.140   8.444 -0.8532 -0.2536 -0.6709
  276TIP3    H122463   2.473   0.115   8.452 -1.0799 -0.4518  1.3318
  276TIP3    H222464   2.358   0.178   8.529 -2.3458  0.7251 -1.4831
  277TIP3   OH222465   7.298   4.282   7.617  0.1170  0.1808  0.3683
  277TIP3    H122466   7.253   4.356   7.576 -0.3018 -0.6399 -0.6677
  277TIP3    H222467   7.391   4.301   7.603  0.0714  1.2521  1.4209
  278TIP3   OH222468   4.977   0.113   7.844 -0.0759  0.9883 -0.6128
  278TIP3    H122469   5.008   0.051   7.778 -1.5918  1.1117 -1.4596
  278TIP3    H222470   5.055   0.135   7.895  0.3590 -2.1546  0.1661
  279TIP3   OH222471   0.625   1.075   6.622  0.0930  0.4143  0.0186
  279TIP3    H122472   0.611   0.980   6.619  1.6459  0.1948 -0.5736
  279TIP3    H222473   0.591   1.101   6.708 -0.2358 -0.6883  0.2335
  280TIP3   OH222474   1.322   1.181   6.421 -0.2770  0.6618  0.5154
  280TIP3    H122475   1.261   1.216   6.487  0.3706  0.3020  1.3165
  280TIP3    H222476   1.384   1.128   6.472 -0.0344  0.0142 -0.4421
  281TIP3   OH222477   7.339   3.107   7.110  0.0864 -0.3820 -0.1105
  281TIP3    H122478   7.278   3.035   7.127 -0.5119 -0.2169 -1.4812
  281TIP3    H222479   7.379   3.085   7.026 -1.5433  1.8371 -1.5235
  282TIP3   OH222480   2.080   0.435   6.357 -0.2726 -0.6302  0.1587
  282TIP3    H122481   2.018   0.507   6.368 -1.3631 -1.7541  1.6120
  282TIP3    H222482   2.051   0.368   6.419 -0.2089 -2.9749 -2.2168
  283TIP3   OH222483   1.809   3.827   8.147  0.1416 -0.2191  0.2347
  283TIP3    H122484   1.815   3.854   8.239 -0.3889 -1.7441  0.7292
  283TIP3    H222485   1.885   3.771   8.133 -0.1622 -0.5557 -0.0727
  284TIP3   OH222486   5.142   7.253   8.281  0.0435 -0.0644  0.4186
  284TIP3    H122487   5.053   7.256   8.245 -0.3743 -0.9460  1.3807
  284TIP3    H222488   5.130   7.242   8.375  1.1772 -0.5853  0.5102
  285TIP3   OH222489   4.156   6.633   0.664 -0.0998 -0.3206  0.3233
  285TIP3    H122490   4.068   6.597   0.673 -0.2479 -0.1507 -0.4309
  285TIP3    H222491   4.142   6.727   0.657 -0.0152 -0.4503 -1.8648
  286TIP3   OH222492   0.887   6.529   6.835  0.2844 -0.6669 -0.6934
  286TIP3    H122493   0.877   6.483   6.918  1.1075  1.0136  0.3547
  286TIP3    H222494   0.958   6.483   6.791  0.4468 -1.0065 -0.0830
  287TIP3   OH222495   7.250   1.900   6.190 -0.1659  0.3012  0.1171
  287TIP3    H122496   7.204   1.847   6.256  0.5210 -0.9815 -0.4026
  287TIP3    H222497   7.323   1.844   6.162  0.9515  1.8069  0.0112
  288TIP3   OH222498   6.602   1.614   5.899 -0.3838 -0.3030 -0.0034
  288TIP3    H122499   6.658   1.692   5.903 -0.4888 -0.2170 -0.2077
  288TIP3    H222500   6.537   1.628   5.967  2.0565 -2.1245  2.8494
  289TIP3   OH222501   0.580   0.041   6.610 -0.0856  0.2347 -0.2440
  289TIP3    H122502   0.496   0.005   6.638 -0.3272  1.2159  0.3245
  289TIP3    H222503   0.585   0.021   6.517 -0.3219 -1.0347  0.0046
  290TIP3   OH222504   0.259   5.330   7.498 -0.1763 -0.1405  0.2184
  290TIP3    H122505   0.280   5.240   7.521 -1.6420 -0.8289 -1.0238
  290TIP3    H222506   0.264   5.332   7.402  0.5876  1.2914  0.2738
  291TIP3   OH222507   0.440   0.488   7.000  0.3140  0.1318  0.0402
  291TIP3    H122508   0.399   0.532   6.926 -0.1965  1.3715  1.0464
  291TIP3    H222509   0.380   0.418   7.024 -0.5067  0.9879  0.5365
  292TIP3   OH222510   4.728   7.098   6.620 -0.5105 -0.0708 -0.1269
  292TIP3    H122511   4.640   7.103   6.585 -0.4844  1.0450 -0.0285
  292TIP3    H222512   4.775   7.039   6.560 -0.8597  0.6668 -1.1247
  293TIP3   OH222513   1.916   2.052   6.805  0.4955 -0.2613 -0.7671
  293TIP3    H122514   1.909   1.965   6.845 -1.7960 -0.3002 -1.1459
  293TIP3    H222515   1.888   2.112   6.875  0.2521 -0.0056 -1.0831
  294TIP3   OH222516   0.176   5.101   8.313 -0.1558 -0.4665  0.7613
  294TIP3    H122517   0.126   5.033   8.268  0.9115  0.2082 -1.4802
  294TIP3    H222518   0.187   5.170   8.248 -0.5641  1.5428  2.7728
  295TIP3   OH222519   1.133   3.391   1.978 -0.3099  0.0716 -0.4905
  295TIP3    H122520   1.225   3.416   1.986 -0.1563 -0.2404 -1.2686
  295TIP3    H222521   1.087   3.472   1.958 -0.5579  0.6887  2.3411
  296TIP3   OH222522   4.691   3.052   2.486  0.7044  0.1917 -0.5909
  296TIP3    H122523   4.706   3.011   2.572  0.1594  0.4241 -0.3797
  296TIP3    H222524   4.687   2.978   2.425  0.4824 -0.0231 -0.3236
  297TIP3   OH222525   0.425   6.812   1.483 -0.2712  0.0514 -0.0743
  297TIP3    H122526   0.419   6.874   1.411  0.5307 -0.2061 -0.3724
  297TIP3    H222527   0.459   6.863   1.557  1.1361 -0.2050 -0.5403
  298TIP3   OH222528   4.150   3.606   0.103  0.7239  0.0361  0.2228
  298TIP3    H122529   4.064   3.576   0.073  0.7927  1.3797 -1.3587
  298TIP3    H222530   4.147   3.594   0.198 -0.9511 -0.5700  0.1210
  299TIP3   OH222531   2.318   4.669   0.940  0.0066  0.1396 -0.0883
  299TIP3    H122532   2.377   4.594   0.930 -0.8142 -0.4802 -0.3824
  299TIP3    H222533   2.337   4.704   1.026  2.4995  1.4211 -1.1261
  300TIP3   OH222534   2.629   6.926   1.355  0.7502  0.0790  0.2578
  300TIP3    H122535   2.600   6.990   1.420 -0.2329  0.8297 -0.8906
  300TIP3    H222536   2.693   6.872   1.401 -0.2489  0.3141  1.9815
  301TIP3   OH222537   3.301   5.786   2.462  0.3014  0.0413  0.3640
  301TIP3    H122538   3.279   5.818   2.549  1.2162 -0.2584  0.7155
  301TIP3    H222539   3.218   5.753   2.427  0.3104 -1.8141  1.9719
  302TIP3   OH222540   0.974   0.229   0.792 -0.4497  0.0754  0.0936
  302TIP3    H122541   0.878   0.222   0.788 -0.3353 -0.9073 -1.2950
  302TIP3    H222542   1.004   0.195   0.708  1.1243  0.5361  0.4515
  303TIP3   OH222543   6.109   3.022   0.470 -0.3469 -0.9495  0.0849
  303TIP3    H122544   6.140   2.976   0.548 -1.8173 -0.0722  1.2003
  303TIP3    H222545   6.177   3.006   0.405  0.4980 -2.3951  1.2841
  304TIP3   OH222546   6.267   5.139   1.955  0.1969 -0.3646  0.3680
  304TIP3    H122547   6.217   5.104   1.880  0.3177 -0.7447  0.4645
  304TIP3    H222548   6.315   5.213   1.919  0.1298 -0.4477  0.1038
  305TIP3   OH222549   1.755   4.687   1.035  0.2993 -0.1581 -0.0652
  305TIP3    H122550   1.825   4.637   0.992  0.4720 -0.7122  0.8517
  305TIP3    H222551   1.747   4.767   0.982  1.3304 -0.2855 -0.4274
  306TIP3   OH222552   2.077   5.144   2.126 -0.0644  0.5630  0.2121
  306TIP3    H122553   2.076   5.164   2.219  1.4267 -2.8983  1.0765
  306TIP3    H222554   1.989   5.108   2.109  0.1801 -0.2948  0.6937
  307TIP3   OH222555   4.414   2.216   7.783 -0.0017 -0.3740 -0.2518
  307TIP3    H122556   4.501   2.252   7.801 -0.2020 -0.7849  1.7037
  307TIP3    H222557   4.366   2.287   7.741  1.1483 -0.0114 -0.9756
  308TIP3   OH222558   3.261   2.516   1.834 -0.2114  0.6038  0.2760
  308TIP3    H122559   3.249   2.422   1.845  0.3048  0.2993 -1.5463
  308TIP3    H222560   3.173   2.554   1.843 -0.3221  0.0253  1.6507
  309TIP3   OH222561   2.651   1.081   0.898 -0.1963 -0.0869 -0.4617
  309TIP3    H122562   2.733   1.073   0.947 -1.0312 -1.9107  0.7009
  309TIP3    H222563   2.676   1.124   0.817  1.9535 -0.7731 -0.2015
  310TIP3   OH222564   4.854   5.563   0.316  0.5896  0.1268  0.3097
  310TIP3    H122565   4.812   5.546   0.231  0.7492 -1.1658  0.4772
  310TIP3    H222566   4.782   5.589   0.373  0.3752  0.2996 -0.0312
  311TIP3   OH222567   3.276   7.203   0.697  0.0101 -0.5215 -0.2414
  311TIP3    H122568   3.305   7.237   0.613  0.1623  1.5030  0.5971
  311TIP3    H222569   3.222   7.127   0.675  2.3447 -1.7244 -2.0024
  312TIP3   OH222570   1.714   5.548   2.458 -0.5956 -0.2025  0.0737
  312TIP3    H122571   1.722   5.535   2.553 -2.1212 -1.6859  0.0259
  312TIP3    H222572   1.630   5.508   2.436  0.0647 -0.4694 -2.0140
  313TIP3   OH222573   5.577   0.464   7.043 -0.0215  0.3751  0.7190
  313TIP3    H122574   5.502   0.483   6.986  0.4815 -0.9894 -0.4141
  313TIP3    H222575   5.551   0.385   7.091  0.0568  0.8225  1.5206
  314TIP3   OH222576   4.932   1.602   2.191  0.4536  0.3730  0.2820
  314TIP3    H122577   4.981   1.550   2.254 -0.9367 -0.3934  0.7558
  314TIP3    H222578   4.850   1.623   2.236 -0.4810 -0.0409 -1.1935
  315TIP3   OH222579   0.271   0.444   1.065  0.3070  0.5508 -0.2191
  315TIP3    H122580   0.294   0.516   1.123 -0.4452  1.1213 -0.6154
  315TIP3    H222581   0.176   0.437   1.071  0.3976 -0.5702 -0.0006
  316TIP3   OH222582   7.011   2.264   1.975 -0.6018  0.3592  0.1782
  316TIP3    H122583   6.950   2.336   1.988  0.9166  1.4924  1.1412
  316TIP3    H222584   6.999   2.208   2.052  0.6286  1.3864  1.1488
  317TIP3   OH222585   4.518   3.452   1.594 -0.0855 -0.4017  0.7162
  317TIP3    H122586   4.462   3.415   1.525 -0.2710 -2.0788  1.7492
  317TIP3    H222587   4.573   3.379   1.621  0.7987  0.5665  1.5434
  318TIP3   OH222588   6.253   5.151   1.272  0.2989 -0.2767 -0.1410
  318TIP3    H122589   6.168   5.193   1.283  0.0713 -0.5109 -0.9639
  318TIP3    H222590   6.243   5.066   1.315  1.0249  0.8226  2.2532
  319TIP3   OH222591   2.026   6.372   0.477  0.1440  0.3309  0.9404
  319TIP3    H122592   2.019   6.279   0.498  0.7307 -0.1103 -0.7687
  319TIP3    H222593   2.016   6.416   0.562  1.2925 -1.3463  1.9809
  320TIP3   OH222594   5.201   3.599   0.763  0.0881  0.0482 -0.5233
  320TIP3    H122595   5.120   3.630   0.804 -0.1625  0.6209 -1.4349
  320TIP3    H222596   5.215   3.512   0.801 -0.4157  0.3619  0.3807
  321TIP3   OH222597   1.289   7.042   1.297 -0.3032 -0.7791 -0.0837
  321TIP3    H122598   1.256   7.039   1.386 -3.4407  0.8947 -1.1254
  321TIP3    H222599   1.305   6.950   1.274  2.6817 -1.0719  2.8931
  322TIP3   OH222600   4.141   7.307   1.525  0.0755  0.2412  0.2947
  322TIP3    H122601   4.047   7.318   1.506  0.4513  0.1129 -1.8308
  322TIP3    H222602   4.147   7.223   1.570 -0.7205 -0.2525 -0.5016
  323TIP3   OH222603   5.233   6.153   2.307  0.2531 -0.5556 -0.0508
  323TIP3    H122604   5.282   6.143   2.226  0.1882 -0.6872 -0.0730
  323TIP3    H222605   5.300   6.172   2.373  0.1723  0.9716 -0.3933
  324TIP3   OH222606   1.745   0.523   1.396 -0.1711 -0.0740  0.1187
  324TIP3    H122607   1.820   0.518   1.456  0.2325 -1.4707 -0.4811
  324TIP3    H222608   1.696   0.442   1.412 -1.9239  1.1188  0.9614
  325TIP3   OH222609   2.240   1.455   2.161  0.5988 -0.0726  0.3713
  325TIP3    H122610   2.297   1.422   2.230  0.6717  1.3648  1.0134
  325TIP3    H222611   2.272   1.412   2.081  1.1409 -0.9851  1.0602
  326TIP3   OH222612   7.188   2.528   2.544  0.0858  0.1739  0.8209
  326TIP3    H122613   7.140   2.602   2.579 -2.3584 -1.1129  0.3185
  326TIP3    H222614   7.234   2.491   2.619 -1.3508  0.2378  1.7465
  327TIP3   OH222615   5.772   3.934   0.421  0.1895 -0.1122  0.1252
  327TIP3    H122616   5.710   3.903   0.487  0.2365  1.4469  0.9363
  327TIP3    H222617   5.853   3.949   0.470  0.1029  1.4543 -0.1906
  328TIP3   OH222618   0.429   6.787   2.366  0.3426  0.0196 -0.4404
  328TIP3    H122619   0.360   6.826   2.419  0.2725  0.4975 -0.8872
  328TIP3    H222620   0.509   6.828   2.397  0.2103  0.9672 -1.3065
  329TIP3   OH222621   5.645   1.401   2.310 -0.1268 -0.0340  0.1457
  329TIP3    H122622   5.688   1.398   2.395  0.9424 -0.4944 -0.3995
  329TIP3    H222623   5.556   1.370   2.327 -0.2664  0.9816  1.2902
  330TIP3   OH222624   2.896   0.113   1.528  0.2387 -0.2307 -0.1046
  330TIP3    H122625   2.852   0.139   1.609  1.3084 -0.8387  0.6795
  330TIP3    H222626   2.840   0.044   1.492 -0.4482  0.3178 -0.0839
  331TIP3   OH222627   5.621   5.473   7.932  0.4807  0.1721  0.5920
  331TIP3    H122628   5.598   5.494   7.842  0.0432 -0.9822  0.4182
  331TIP3    H222629   5.560   5.522   7.985 -1.9541 -2.2393  0.1547
  332TIP3   OH222630   0.386   5.129   0.582  0.0741  0.1967 -0.2046
  332TIP3    H122631   0.440   5.160   0.509  0.9295 -0.1946  0.2521
  332TIP3    H222632   0.412   5.184   0.655 -0.8435  0.6432 -0.2149
  333TIP3   OH222633   0.830   7.240   7.665 -0.6749 -0.4231 -0.5214
  333TIP3    H122634   0.898   7.305   7.679 -0.0416 -1.5929  2.1715
  333TIP3    H222635   0.766   7.256   7.734 -1.7208 -1.1089 -1.3139
  334TIP3   OH222636   5.751   4.400   2.204 -0.1329 -0.0208  0.5186
  334TIP3    H122637   5.723   4.335   2.268 -0.8599 -0.4574 -0.2313
  334TIP3    H222638   5.670   4.448   2.183 -0.4117 -1.4903 -1.8990
  335TIP3   OH222639   2.526   0.219   2.094  0.1562 -0.2890 -0.2220
  335TIP3    H122640   2.556   0.308   2.114  1.2173  0.1382 -3.3321
  335TIP3    H222641   2.554   0.167   2.169 -0.0867  1.9057  1.4454
  336TIP3   OH222642   3.492   0.344   6.586 -0.5014  0.0802  0.1910
  336TIP3    H122643   3.586   0.350   6.604 -1.1232  3.1597  2.8653
  336TIP3    H222644   3.481   0.391   6.503  0.2270  0.3904  0.2688
  337TIP3   OH222645   3.350   1.776   7.707 -0.2393 -0.7797  0.1943
  337TIP3    H122646   3.277   1.824   7.745  0.7367 -0.1591  1.3198
  337TIP3    H222647   3.385   1.835   7.639 -1.2998 -1.4323 -0.9367
  338TIP3   OH222648   4.480   2.011   7.965  0.3715 -0.2488  0.2059
  338TIP3    H122649   4.534   1.950   7.915 -1.7295 -0.5728 -1.7448
  338TIP3    H222650   4.492   2.095   7.921  2.5317  0.5945  2.3251
  339TIP3   OH222651   2.940   0.827   8.355  0.4686  0.4783 -0.1188
  339TIP3    H122652   2.868   0.879   8.390  1.5324  1.5520  0.5004
  339TIP3    H222653   2.995   0.891   8.310  0.2161 -0.5734 -1.9723
  340TIP3   OH222654   3.958   7.196   6.850 -0.4337  0.2918  0.1210
  340TIP3    H122655   4.023   7.242   6.904  0.4944 -0.0339 -0.7016
  340TIP3    H222656   4.007   7.124   6.810 -1.0984  0.5569 -1.1918
  341TIP3   OH222657   1.022   1.132   6.691 -0.2403 -0.3478 -0.2781
  341TIP3    H122658   0.968   1.098   6.619  0.5610 -0.8955 -0.6344
  341TIP3    H222659   1.015   1.066   6.760  0.4745 -0.7442 -0.5713
  342TIP3   OH222660   5.154   0.909   7.269  0.3706  0.1637 -0.0028
  342TIP3    H122661   5.179   0.869   7.186  0.3950  2.2903 -1.0624
  342TIP3    H222662   5.237   0.924   7.314  0.4296 -0.0939 -0.0241
  343TIP3   OH222663   1.924   4.287   0.799  0.0754 -0.5823  0.3858
  343TIP3    H122664   1.863   4.346   0.843  1.7684  1.5349 -0.0044
  343TIP3    H222665   2.002   4.287   0.855  1.3709  0.3009 -1.3502
  344TIP3   OH222666   0.879   1.031   6.489 -0.4015  0.1428  0.6427
  344TIP3    H122667   0.902   1.027   6.396 -1.7190  0.7140  0.2747
  344TIP3    H222668   0.907   0.946   6.525  0.4943  0.0870 -0.1830
  345TIP3   OH222669   2.169   4.407   7.948  0.1686 -0.6752 -0.3873
  345TIP3    H122670   2.183   4.451   7.865  0.5232 -1.4557 -0.7479
  345TIP3    H222671   2.084   4.364   7.939  0.3533 -1.0298 -0.4751
  346TIP3   OH222672   2.875   1.929   0.935  0.7852  0.0421  0.3531
  346TIP3    H122673   2.891   1.974   1.018  0.4968 -0.5984  0.7560
  346TIP3    H222674   2.962   1.916   0.897  0.9661 -0.3506  0.9096
  347TIP3   OH222675   1.724   0.348   1.171 -0.5577 -0.0360 -0.3229
  347TIP3    H122676   1.805   0.337   1.120  0.6718 -0.1849  1.6138
  347TIP3    H222677   1.744   0.420   1.231 -1.5360 -0.7075  0.8144
  348TIP3   OH222678   3.007   1.601   1.712 -0.6883  0.9857 -0.1385
  348TIP3    H122679   3.015   1.509   1.685  1.2589 -0.2416  4.1353
  348TIP3    H222680   3.088   1.642   1.682  0.3117  0.2430  1.4426
  349TIP3   OH222681   5.030   2.063   6.682 -0.4070 -0.0611  0.1735
  349TIP3    H122682   5.126   2.057   6.674 -0.3363  0.3159  0.7540
  349TIP3    H222683   5.000   1.972   6.672 -0.1175  0.0339 -1.6877
  350TIP3   OH222684   2.458   5.390   7.292 -0.2757 -0.0938 -0.1855
  350TIP3    H122685   2.474   5.311   7.343 -1.7096 -0.3933 -0.1860
  350TIP3    H222686   2.405   5.445   7.348  0.3988  0.7183 -0.3341
  351TIP3   OH222687   3.243   1.764   1.676 -0.4543 -0.0688 -0.0397
  351TIP3    H122688   3.185   1.840   1.680  0.7414  0.8623 -0.3076
  351TIP3    H222689   3.276   1.754   1.765  1.7039  1.5542 -0.6274
  352TIP3   OH222690   3.514   1.438   1.311  0.2866  0.4141  0.2503
  352TIP3    H122691   3.434   1.451   1.259 -1.5837  1.5043  3.2468
  352TIP3    H222692   3.508   1.348   1.343 -0.8061  1.1062  2.0872
  353TIP3   OH222693   2.759   1.720   6.655 -0.2166 -0.0480  0.3189
  353TIP3    H122694   2.679   1.703   6.607 -0.7264  1.9472  0.4063
  353TIP3    H222695   2.787   1.635   6.687 -1.5375 -0.9567 -0.8927
  354TIP3   OH222696   4.012   3.930   6.295 -0.1942  0.7605 -0.0788
  354TIP3    H122697   4.000   3.902   6.386  0.5626  0.4960 -0.0622
  354TIP3    H222698   4.012   3.848   6.245 -0.0667  0.8728 -0.2600
  355TIP3   OH222699   3.116   1.272   7.408 -0.8670 -0.1623  0.4164
  355TIP3    H122700   3.062   1.200   7.442  0.2527 -1.3028 -0.1526
  355TIP3    H222701   3.142   1.242   7.321  2.4788 -0.6337  1.5139
  356TIP3   OH222702   5.479   7.064   7.007 -0.2875  0.1783  0.2445
  356TIP3    H122703   5.394   7.079   6.966 -0.4747  1.3202  1.0112
  356TIP3    H222704   5.463   7.000   7.075 -0.3770 -0.2096 -0.1435
  357TIP3   OH222705   1.260   5.418   7.020 -0.0408  0.3094  0.5269
  357TIP3    H122706   1.276   5.372   7.102 -2.3803  2.1300  2.0755
  357TIP3    H222707   1.320   5.493   7.022  0.6332 -0.2099  0.0686
  358TIP3   OH222708   1.136   4.610   6.969  0.1590 -0.2138 -0.1997
  358TIP3    H122709   1.230   4.603   6.950  0.2928  0.6830  0.0899
  358TIP3    H222710   1.097   4.639   6.887  0.3211  0.7101  0.0462
  359TIP3   OH222711   2.416   6.919   1.168  0.0161  0.0014 -0.0534
  359TIP3    H122712   2.408   6.982   1.097  2.0614 -1.6710 -1.8478
  359TIP3    H222713   2.488   6.951   1.222  1.2957 -0.9348 -1.1683
  360TIP3   OH222714   0.872   6.326   5.938  0.1540 -0.1757 -0.3080
  360TIP3    H122715   0.853   6.293   5.850 -0.4297  0.1559 -0.3108
  360TIP3    H222716   0.938   6.266   5.973  0.3461 -0.3389 -0.9529
  361TIP3   OH222717   0.369   5.554   7.604 -0.0975 -0.0015 -0.0786
  361TIP3    H122718   0.405   5.572   7.517  1.0066 -2.3709 -0.1452
  361TIP3    H222719   0.310   5.480   7.591 -0.6231  0.2145  1.0318
  362TIP3   OH222720   1.149   6.760   6.109 -0.5631 -0.4183  0.0683
  362TIP3    H122721   1.084   6.708   6.062  0.1040  1.0753 -2.6168
  362TIP3    H222722   1.225   6.763   6.051  0.7392  0.5477  1.7431
  363TIP3   OH222723   2.481   1.368   7.589  0.6073  0.0222  0.0555
  363TIP3    H122724   2.545   1.410   7.532  0.5604  1.3993  1.0033
  363TIP3    H222725   2.419   1.326   7.529  0.3899  1.7215 -0.9307
  364TIP3   OH222726   2.900   1.717   7.118  0.7986  1.0282 -0.5007
  364TIP3    H122727   2.963   1.722   7.046 -0.2704  3.3533 -1.3284
  364TIP3    H222728   2.930   1.784   7.180  0.3727  0.6436  0.1226
  365TIP3   OH222729   1.902   7.134   7.060  0.1993  0.3354  0.6265
  365TIP3    H122730   1.926   7.227   7.051  1.4068 -0.1988 -2.0421
  365TIP3    H222731   1.828   7.122   7.000  1.1995 -0.8186 -0.4010
  366TIP3   OH222732   1.251   1.564   6.761 -0.2614 -0.2952 -0.1935
  366TIP3    H122733   1.164   1.603   6.748  0.7230  2.0243  0.0761
  366TIP3    H222734   1.245   1.479   6.717 -2.8204 -0.3815  0.2144
  367TIP3   OH222735   3.297   7.032   1.115  0.3398 -0.0183 -0.1490
  367TIP3    H122736   3.310   7.006   1.206  1.7532 -1.8181 -0.8539
  367TIP3    H222737   3.227   6.975   1.083  0.4478  0.0089 -0.4406
  368TIP3   OH222738   4.733   2.115   8.108  0.0461  0.1878  0.0575
  368TIP3    H122739   4.755   2.098   8.016 -0.2535 -0.4281  0.0959
  368TIP3    H222740   4.702   2.030   8.141 -0.3400  0.5314  0.5838
  369TIP3   OH222741   4.715   2.330   6.896  0.1481  0.1944 -0.3369
  369TIP3    H122742   4.766   2.321   6.816 -0.5062  2.3454 -1.0368
  369TIP3    H222743   4.645   2.266   6.887  1.5572 -1.3908 -0.2707
  370TIP3   OH222744   3.577   2.696   7.383  0.6077 -0.5990 -1.0392
  370TIP3    H122745   3.654   2.732   7.340 -0.4728  0.0291 -2.5018
  370TIP3    H222746   3.515   2.769   7.387 -0.5558 -1.5340 -1.4739
  371TIP3   OH222747   2.913   2.322   1.060  0.5965 -0.0816 -0.0129
  371TIP3    H122748   2.880   2.302   0.973  0.0366 -0.9909  0.4002
  371TIP3    H222749   2.896   2.243   1.111  0.2115  0.7180  1.1243
  372TIP3   OH222750   4.093   2.614   7.452  0.0682  0.6402 -0.5466
  372TIP3    H122751   4.115   2.640   7.362  0.4000 -2.5218 -1.4258
  372TIP3    H222752   4.176   2.613   7.498  0.6349 -2.4723 -1.5221
  373TIP3   OH222753   1.178   1.332   6.629 -0.0632 -0.0758 -0.1606
  373TIP3    H122754   1.135   1.256   6.666  0.5861  0.2774  1.3354
  373TIP3    H222755   1.116   1.365   6.564 -0.1000 -2.2172 -1.2753
  374TIP3   OH222756   0.320   2.216   6.338  0.8062 -0.5185  0.1734
  374TIP3    H122757   0.294   2.306   6.316 -1.3796 -0.9546  0.8019
  374TIP3    H222758   0.392   2.196   6.278  0.0472  0.9896 -1.2916
  375TIP3   OH222759   3.928   6.722   0.840  0.3001  0.2571  0.1164
  375TIP3    H122760   3.992   6.702   0.908  0.4616 -0.7296 -0.3344
  375TIP3    H222761   3.969   6.791   0.788  1.2186 -0.7410 -0.4953
  376TIP3   OH222762   4.833   2.421   0.743  0.1540  0.4416  0.7532
  376TIP3    H122763   4.766   2.354   0.761 -0.6836  0.8533 -0.7682
  376TIP3    H222764   4.888   2.381   0.675 -0.4410  1.3372 -0.2719
  377TIP3   OH222765   1.595   0.148   6.993 -0.2633 -0.2099 -0.6417
  377TIP3    H122766   1.635   0.190   7.069 -1.5189  0.9689 -0.6068
  377TIP3    H222767   1.651   0.175   6.920  0.1011 -0.1274 -0.3365
  378TIP3   OH222768   1.288   0.560   6.680 -0.1155 -0.0657 -0.5509
  378TIP3    H122769   1.363   0.597   6.632  1.2325 -0.3162  1.2947
  378TIP3    H222770   1.252   0.495   6.621  2.4009 -1.3823 -0.7065
  379TIP3   OH222771   6.671   5.396   7.381 -0.9988 -0.7805  0.5194
  379TIP3    H122772   6.601   5.418   7.443 -2.2362  2.0419 -1.7251
  379TIP3    H222773   6.744   5.452   7.407 -1.5638  0.4997 -0.6408
  380TIP3   OH222774   6.326   6.605   6.684  0.3041  0.3420 -0.1229
  380TIP3    H122775   6.242   6.638   6.714  0.6750 -0.3857  1.8277
  380TIP3    H222776   6.307   6.520   6.646  0.2907 -0.3198  1.3381
  381TIP3   OH222777   3.180   1.323   0.455  0.3834 -0.4235 -0.4748
  381TIP3    H122778   3.243   1.253   0.437  0.9345 -0.5237  1.7270
  381TIP3    H222779   3.223   1.377   0.521 -1.4711  0.0336  0.3691
  382TIP3   OH222780   2.846   6.713   7.096 -0.0363 -0.5516  0.1689
  382TIP3    H122781   2.837   6.799   7.055  0.3222 -0.4332  0.3285
  382TIP3    H222782   2.825   6.729   7.188 -0.0836 -0.6566  0.1752
  383TIP3   OH222783   2.992   2.610   1.862  0.3091 -0.0197 -0.2876
  383TIP3    H122784   2.965   2.587   1.951 -0.5378 -1.4784 -0.8966
  383TIP3    H222785   2.938   2.554   1.805  1.0037  0.7143 -1.7080
  384TIP3   OH222786   5.167   2.440   6.612 -0.4305  0.9040 -0.3326
  384TIP3    H122787   5.162   2.493   6.692  0.5891 -1.1566  1.1293
  384TIP3    H222788   5.232   2.373   6.632  1.0437  1.3192 -3.4856
  385TIP3   OH222789   1.160   5.569   8.256  0.1915  0.1792 -0.0023
  385TIP3    H122790   1.215   5.599   8.184  0.6703 -1.8824 -0.5421
  385TIP3    H222791   1.222   5.547   8.326 -0.1068  0.1109  0.2446
  386TIP3   OH222792   1.687   3.726   1.913  0.5773 -0.7691  0.0885
  386TIP3    H122793   1.652   3.680   1.990 -2.1338 -1.1921 -1.3186
  386TIP3    H222794   1.609   3.759   1.869  2.1301 -0.1796 -2.2569
  387TIP3   OH222795   7.179   6.833   7.079 -0.3329 -0.8126  0.1081
  387TIP3    H122796   7.148   6.849   7.168  2.3517 -0.2078  0.9715
  387TIP3    H222797   7.155   6.912   7.030 -1.7551 -1.1212  0.2915
  388TIP3   OH222798   2.220   1.527   1.417 -0.4634 -0.2454  0.7447
  388TIP3    H122799   2.150   1.588   1.443 -0.5624 -0.9681  2.2610
  388TIP3    H222800   2.301   1.576   1.432 -0.6211  0.4473 -0.6155
  389TIP3   OH222801   4.695   6.658   1.936 -0.3179  0.4084  0.0555
  389TIP3    H122802   4.734   6.583   1.982  0.1737  0.7255  0.1618
  389TIP3    H222803   4.741   6.661   1.852 -1.9126 -0.7753 -0.8738
  390TIP3   OH222804   1.171   6.307   8.157  0.1422  0.5566 -0.3334
  390TIP3    H122805   1.194   6.399   8.165  0.9705  0.3138  0.1463
  390TIP3    H222806   1.124   6.286   8.238  1.3599  0.1647  0.2927
  391TIP3   OH222807   6.766   1.462   6.509 -0.0436  0.4619 -0.3669
  391TIP3    H122808   6.851   1.447   6.550 -0.5477  1.1354  0.9648
  391TIP3    H222809   6.711   1.391   6.541  0.2466 -0.5002 -1.9488
  392TIP3   OH222810   3.559   1.009   6.825  0.8108  0.1350 -0.2904
  392TIP3    H122811   3.584   0.918   6.812  1.3999  0.1136  0.9270
  392TIP3    H222812   3.584   1.053   6.744  1.1261 -0.6532 -0.6213
  393TIP3   OH222813   3.808   5.917   1.273 -0.1288 -0.3163  0.1737
  393TIP3    H122814   3.800   5.973   1.196 -3.4404 -0.0120  0.6440
  393TIP3    H222815   3.865   5.965   1.332  0.9692  0.2946 -1.3545
  394TIP3   OH222816   6.179   3.694   6.396  0.2005 -0.0902 -0.2567
  394TIP3    H122817   6.218   3.755   6.333 -0.0911  0.0203 -0.3305
  394TIP3    H222818   6.094   3.671   6.358  1.2368 -2.2632 -1.3119
  395TIP3   OH222819   6.012   3.506   8.161  0.4140 -0.7942 -0.1806
  395TIP3    H122820   5.991   3.492   8.069 -0.0504  0.1325 -0.2181
  395TIP3    H222821   6.006   3.419   8.200  2.0350 -1.4468 -1.2987
  396TIP3   OH222822   1.810   6.715   1.411  0.5227 -0.2039  0.8768
  396TIP3    H122823   1.847   6.772   1.479 -1.3494  1.0611  0.8784
  396TIP3    H222824   1.872   6.723   1.338  0.9689  0.8008  1.3495
  397TIP3   OH222825   7.330   5.791   7.499  0.3629  0.5768  0.0383
  397TIP3    H122826   7.421   5.811   7.475 -0.0029 -1.0187 -2.9661
  397TIP3    H222827   7.333   5.701   7.531 -0.0502  0.7622  0.5996
  398TIP3   OH222828   2.635   0.223   6.115 -0.3673 -0.1946  0.3501
  398TIP3    H122829   2.627   0.260   6.027  0.4074  1.4068  0.9282
  398TIP3    H222830   2.707   0.160   6.109  0.1467  0.4263 -0.0012
  399TIP3   OH222831   6.867   0.905   6.887  0.2742  0.3397  0.2253
  399TIP3    H122832   6.849   0.902   6.793  1.1455  1.1116  0.0168
  399TIP3    H222833   6.864   0.814   6.915  0.1023  0.0934 -0.5705
  400TIP3   OH222834   6.582   6.984   7.426 -0.4520 -0.9204  0.1202
  400TIP3    H122835   6.603   7.024   7.510  0.0451 -0.4045 -0.2449
  400TIP3    H222836   6.486   6.985   7.422 -0.4380  2.5457 -0.9573
  401TIP3   OH222837   2.868   5.578   7.552  0.0779  0.4968  0.3352
  401TIP3    H122838   2.920   5.615   7.624 -0.2857 -0.6698  1.2093
  401TIP3    H222839   2.926   5.514   7.512 -0.2131  0.1659  0.4496
  402TIP3   OH222840   0.334   0.936   1.133 -0.2160 -0.1269 -0.4427
  402TIP3    H122841   0.263   0.895   1.182 -1.0248 -0.3704 -1.7695
  402TIP3    H222842   0.331   1.028   1.157 -1.5641  0.0304 -1.1396
  403TIP3   OH222843   4.931   0.842   0.011  0.4326 -0.0213  0.3638
  403TIP3    H122844   4.964   0.837   0.101 -1.5265 -2.2543  1.0074
  403TIP3    H222845   4.842   0.876   0.021 -0.6474 -2.5009 -0.4788
  404TIP3   OH222846   2.388   1.037   1.028  0.2216  0.5476  0.0126
  404TIP3    H122847   2.412   1.041   1.121 -0.0190 -0.2450  0.1151
  404TIP3    H222848   2.468   1.058   0.981  1.0209 -1.6308  0.3539
  405TIP3   OH222849   2.142   0.494   6.664  0.1906  0.0831 -0.1156
  405TIP3    H122850   2.141   0.563   6.598  0.3789 -0.5737 -0.8082
  405TIP3    H222851   2.224   0.448   6.649  0.3906  0.1309  0.7942
  406TIP3   OH222852   0.336   6.197   7.517  0.3547  0.0169 -0.3873
  406TIP3    H122853   0.268   6.194   7.450  0.3132 -1.7171 -0.2819
  406TIP3    H222854   0.417   6.215   7.468 -0.0253  1.1896 -0.6081
  407TIP3   OH222855   0.225   4.828   7.796  0.4777 -0.0478 -0.2183
  407TIP3    H122856   0.170   4.882   7.739  0.6270  0.4657  0.1217
  407TIP3    H222857   0.226   4.742   7.754 -0.9916 -0.2050  0.0372
  408TIP3   OH222858   1.816   0.534   7.914  0.0534 -0.5116 -0.1849
  408TIP3    H122859   1.758   0.512   7.987 -0.9736  2.3308 -0.0586
  408TIP3    H222860   1.797   0.468   7.848 -1.9454 -0.7605  0.6006
  409TIP3   OH222861   5.142   4.187   2.296 -0.0152  0.1696 -0.3573
  409TIP3    H122862   5.062   4.239   2.289  0.3715  0.9364  0.6673
  409TIP3    H222863   5.116   4.099   2.271 -1.2557  0.3460  0.2470
  410TIP3   OH222864   3.346   3.970   8.068 -0.4152  0.2497  0.2121
  410TIP3    H122865   3.352   3.890   8.015 -0.9854  0.5711 -0.3520
  410TIP3    H222866   3.318   4.038   8.005  1.9335  1.3056  0.2682
  411TIP3   OH222867   2.699   1.992   6.732 -0.2566  0.3746 -0.4446
  411TIP3    H122868   2.749   1.930   6.678 -0.4467 -0.6892  0.5904
  411TIP3    H222869   2.639   1.937   6.782 -0.2386  1.3847  0.6981
  412TIP3   OH222870   3.521   1.602   7.184  0.0031 -0.8822 -0.0455
  412TIP3    H122871   3.613   1.625   7.194 -0.1298 -0.9029  1.2496
  412TIP3    H222872   3.513   1.515   7.223 -1.0137  0.0886  2.0002
  413TIP3   OH222873   6.998   1.595   6.292 -0.1698  0.7725 -0.1035
  413TIP3    H122874   6.913   1.638   6.301 -0.2966  0.3774  0.6616
  413TIP3    H222875   7.006   1.576   6.199 -0.3012  2.0649 -0.3901
  414TIP3   OH222876   5.700   4.377   1.002  0.1570  0.2082  0.4147
  414TIP3    H122877   5.756   4.453   0.986 -2.1334  1.7116 -0.7245
  414TIP3    H222878   5.678   4.382   1.095  1.2905  0.0414  0.6886
  415TIP3   OH222879   6.738   0.962   1.164 -0.5235 -0.4594 -0.1037
  415TIP3    H122880   6.793   0.921   1.098 -1.6085  0.1638 -1.4302
  415TIP3    H222881   6.706   0.890   1.218  2.4322 -0.7183  1.3723
  416TIP3   OH222882   3.323   4.943   6.817  0.0779 -0.2859  0.1206
  416TIP3    H122883   3.346   5.035   6.801  2.3673 -1.1451 -1.8487
  416TIP3    H222884   3.372   4.919   6.896  1.5355 -0.5015 -0.8237
  417TIP3   OH222885   3.438   0.152   6.828 -0.0017  0.2407 -0.2773
  417TIP3    H122886   3.468   0.173   6.740 -0.7863  0.0930 -0.5898
  417TIP3    H222887   3.473   0.221   6.884  1.0614 -0.0395 -0.5980
  418TIP3   OH222888   3.398   5.831   6.835  0.1873 -0.1736  0.4065
  418TIP3    H122889   3.445   5.787   6.907 -2.0623 -1.9736  0.8374
  418TIP3    H222890   3.393   5.765   6.766 -0.1535  0.5920 -0.3081
  419TIP3   OH222891   4.989   0.674   7.811  0.5148 -0.2716 -0.5225
  419TIP3    H122892   4.925   0.744   7.825  0.6373 -0.3752  0.5949
  419TIP3    H222893   4.995   0.666   7.716  0.3634  1.1081 -0.6602
  420TIP3   OH222894   0.381   6.336   0.362  0.2456  0.0772  0.4609
  420TIP3    H122895   0.429   6.413   0.392 -0.2390  0.0838  1.2277
  420TIP3    H222896   0.310   6.371   0.309 -1.3588  0.2960  2.7132
  421TIP3   OH222897   3.652   6.873   0.862 -0.1533 -0.3465  0.4466
  421TIP3    H122898   3.591   6.947   0.870  0.7416  0.2129  2.4434
  421TIP3    H222899   3.713   6.885   0.935  2.3109 -0.9284 -1.4738
  422TIP3   OH222900   2.807   1.489   6.816  0.2522 -0.0273 -0.8230
  422TIP3    H122901   2.772   1.544   6.885  0.0049 -0.0641 -0.9160
  422TIP3    H222902   2.874   1.436   6.858 -1.0350 -1.2256 -0.2357
  423TIP3   OH222903   0.674   0.350   6.339  0.2921 -0.3693  1.0147
  423TIP3    H122904   0.689   0.400   6.259 -0.5373  1.8508  2.2323
  423TIP3    H222905   0.762   0.331   6.372  0.6104  1.0909  1.0394
  424TIP3   OH222906   2.545   0.399   6.768 -0.2261  0.0993  0.7420
  424TIP3    H122907   2.509   0.406   6.679  1.4628 -0.1967  0.0049
  424TIP3    H222908   2.475   0.359   6.819 -1.4211  0.7880 -0.3401
  425TIP3   OH222909   2.225   0.008   1.440 -0.1395  0.1111  0.0354
  425TIP3    H122910   2.153   0.026   1.500 -0.5932 -0.9662 -0.1808
  425TIP3    H222911   2.194  -0.064   1.386 -0.0359  1.5519 -2.0160
  426TIP3   OH222912   4.739   7.145   0.226 -0.2711 -0.3191  0.1044
  426TIP3    H122913   4.735   7.192   0.143  0.2024 -2.1794 -0.9944
  426TIP3    H222914   4.813   7.186   0.273 -0.7972  1.0071 -0.1988
  427TIP3   OH222915   4.667   0.835   6.798 -0.0215  0.5203  0.4025
  427TIP3    H122916   4.680   0.742   6.781  0.2689  0.6442 -0.0856
  427TIP3    H222917   4.622   0.839   6.882 -1.6285 -0.1330 -0.4049
  428TIP3   OH222918   3.954   0.430   1.071  0.1870 -0.3229  0.0283
  428TIP3    H122919   3.977   0.412   1.162  0.7688 -1.8540 -0.4023
  428TIP3    H222920   4.037   0.425   1.024 -0.0562  0.8653 -0.5254
  429TIP3   OH222921   4.093   3.703   8.124 -0.5639 -0.3848  0.1676
  429TIP3    H122922   4.071   3.782   8.074 -1.5156  0.3688  1.7326
  429TIP3    H222923   4.097   3.732   8.215  1.8107 -1.6023  0.4986
  430TIP3   OH222924   2.486   6.080   7.488  0.1168  0.1454 -0.3333
  430TIP3    H122925   2.390   6.073   7.487  0.1536 -0.3642 -0.7564
  430TIP3    H222926   2.505   6.159   7.438 -0.1382  1.0027  0.9053
  431TIP3   OH222927   3.208   0.967   7.334 -0.5482 -0.5992  0.2782
  431TIP3    H122928   3.137   0.934   7.388 -0.3815  0.7187  1.3450
  431TIP3    H222929   3.277   0.901   7.341 -1.6464 -1.8460 -0.7143
  432TIP3   OH222930   4.654   4.316   7.427 -0.4709  0.3213 -0.2327
  432TIP3    H122931   4.696   4.244   7.381  1.1235  1.2506 -0.2471
  432TIP3    H222932   4.625   4.376   7.357 -0.0120  0.6638 -0.1303
  433TIP3   OH222933   2.968   1.101   0.549 -0.2153 -0.6400  0.1450
  433TIP3    H122934   3.012   1.034   0.602 -0.2564 -0.1233  0.8368
  433TIP3    H222935   3.035   1.168   0.535 -0.5697 -0.1982  0.5790
  434TIP3   OH222936   1.712   6.460   7.467  0.2834 -0.0700  0.0348
  434TIP3    H122937   1.618   6.445   7.467  0.3465 -0.4888  0.0174
  434TIP3    H222938   1.743   6.417   7.547  0.5790 -0.7339 -0.4354
  435TIP3   OH222939   7.328   6.202   8.481 -0.2288 -0.0989 -0.1015
  435TIP3    H122940   7.342   6.280   8.428  0.1455  2.0043  2.9864
  435TIP3    H222941   7.414   6.162   8.489  0.6550  2.1747  2.7185
  436TIP3   OH222942   1.478   0.114   2.017 -0.0971  0.1932 -0.2274
  436TIP3    H122943   1.469   0.195   1.967 -1.2924 -0.0117 -0.3699
  436TIP3    H222944   1.388   0.084   2.030  0.0904  0.8920  3.1330
  437TIP3   OH222945   1.084   5.914   7.169 -0.2078 -0.1579  0.0928
  437TIP3    H122946   1.115   5.962   7.245  0.3881 -0.7635  0.2419
  437TIP3    H222947   1.154   5.851   7.151 -0.5151 -0.2734 -0.7221
  438TIP3   OH222948   2.175   4.244   6.658 -0.0228  0.2153 -0.0610
  438TIP3    H122949   2.188   4.305   6.731  0.0154  0.0408  0.0790
  438TIP3    H222950   2.086   4.211   6.671  0.1995 -0.2684  0.2492
  439TIP3   OH222951   3.163   3.034   7.835  0.0978  0.1276 -0.4323
  439TIP3    H122952   3.250   3.066   7.812  0.1569  0.8152  0.7360
  439TIP3    H222953   3.176   2.983   7.914 -0.4358 -0.4708 -0.7269
  440TIP3   OH222954   3.814   0.503   6.847 -0.0703  0.7065 -0.0720
  440TIP3    H122955   3.892   0.456   6.876  0.1056  1.0685  0.0395
  440TIP3    H222956   3.803   0.478   6.755 -0.4014 -0.1314  0.1913
  441TIP3   OH222957   5.032   7.187   0.377 -0.6473  0.6074 -0.8760
  441TIP3    H122958   5.009   7.224   0.462 -0.2894  0.0630 -0.5375
  441TIP3    H222959   5.096   7.119   0.397 -1.5685 -0.4442 -1.4511
  442TIP3   OH222960   1.160   7.024   0.800  0.2417 -1.1602 -0.3079
  442TIP3    H122961   1.183   7.117   0.801  0.6065 -1.2483 -0.0779
  442TIP3    H222962   1.149   7.001   0.893 -0.0555 -1.2950 -0.3758
  443TIP3   OH222963   5.567   2.760   0.329 -0.5282 -0.2637  0.0098
  443TIP3    H122964   5.648   2.772   0.279  0.1533 -0.7259  0.9824
  443TIP3    H222965   5.588   2.691   0.392 -1.2218  0.6225  1.2363
  444TIP3   OH222966   2.674   2.554   7.811  0.6753  0.3500 -0.0995
  444TIP3    H122967   2.694   2.462   7.795 -1.4985 -0.2843  0.6703
  444TIP3    H222968   2.651   2.589   7.725  1.2497  0.1214 -0.3495
  445TIP3   OH222969   6.039   7.332   6.465  0.1405 -0.2802 -0.6808
  445TIP3    H122970   6.061   7.424   6.452 -1.3239 -0.1385 -2.3711
  445TIP3    H222971   5.943   7.330   6.469  0.1905 -1.6176  0.3423
  446TIP3   OH222972   2.439   2.203   6.634  0.6764 -0.6020  0.0736
  446TIP3    H122973   2.379   2.229   6.703  1.0038 -0.2426  0.2233
  446TIP3    H222974   2.383   2.195   6.556  0.5295  0.3196  0.0747
  447TIP3   OH222975   0.327   5.886   1.006  0.1761  0.2453 -0.6577
  447TIP3    H122976   0.341   5.966   0.955 -2.3052 -0.5838 -2.7343
  447TIP3    H222977   0.245   5.902   1.053  0.5844 -0.4228  0.2904
  448TIP3   OH222978   0.317   4.783   8.085  0.1757 -0.2566 -0.9038
  448TIP3    H122979   0.272   4.808   8.005 -0.2467  1.0568 -0.2707
  448TIP3    H222980   0.271   4.704   8.115 -0.9954  0.4339 -0.8531
  449TIP3   OH222981   3.464   0.295   7.640  0.4910  0.0829 -0.3336
  449TIP3    H122982   3.503   0.312   7.726  2.3033  1.1741 -1.3431
  449TIP3    H222983   3.526   0.238   7.596 -0.1275  0.0352 -1.1566
  450TIP3   OH222984   0.122   6.733   2.023  0.1132  0.0666  0.3129
  450TIP3    H122985   0.144   6.667   2.089 -0.0427 -1.3600 -1.0279
  450TIP3    H222986   0.052   6.784   2.064  0.7137 -0.1418  1.6478
  451TIP3   OH222987   2.387   4.386   0.037 -0.6707  0.6513  0.3160
  451TIP3    H122988   2.311   4.393  -0.021 -1.0979  0.1685  0.8158
  451TIP3    H222989   2.364   4.316   0.098 -0.4221  1.5040  1.3812
  452TIP3   OH222990   3.721   1.904   1.368  0.0059  0.3905  0.0633
  452TIP3    H122991   3.640   1.854   1.378  0.0491  0.0370 -1.1754
  452TIP3    H222992   3.704   1.988   1.411 -1.1583  0.4538 -0.4978
  453TIP3   OH222993   1.674   4.750   8.334  0.0762 -0.6540 -0.2709
  453TIP3    H122994   1.623   4.764   8.414 -1.0791  3.2116 -1.5533
  453TIP3    H222995   1.628   4.681   8.287 -1.5730 -0.1260  0.5552
  454TIP3   OH222996   6.551   7.024   8.368 -0.3795  0.4098 -0.2102
  454TIP3    H122997   6.577   6.933   8.356 -2.0233 -0.1885  0.5283
  454TIP3    H222998   6.584   7.047   8.455  1.0891  0.9154 -0.8905
  455TIP3   OH222999   7.252   4.247   0.820 -0.2612 -0.2998  0.2139
  455TIP3    H123000   7.167   4.216   0.852 -0.0858 -0.7293  0.2609
  455TIP3    H223001   7.309   4.170   0.822  0.3206  0.1361  0.8416
  456TIP3   OH223002   1.304   3.748   7.090 -0.2746 -0.0519 -0.2666
  456TIP3    H123003   1.303   3.749   6.995 -0.0084  1.9815 -0.2681
  456TIP3    H223004   1.343   3.832   7.115 -2.2419  0.3423  1.6512
  457TIP3   OH223005   2.865   0.392   6.594  0.6243 -0.0361  0.1590
  457TIP3    H123006   2.809   0.376   6.670 -0.5952  1.4085 -0.3952
  457TIP3    H223007   2.832   0.332   6.526  0.1522  0.3435  0.0440
  458TIP3   OH223008   6.022   6.663   6.601 -0.1513 -0.7854  0.0805
  458TIP3    H123009   6.044   6.697   6.514  0.1532 -2.0137 -0.3319
  458TIP3    H223010   5.994   6.573   6.585  0.4472 -1.2002  1.3247
  459TIP3   OH223011   2.851   0.372   0.957 -0.6750  0.4434  0.1152
  459TIP3    H123012   2.851   0.390   0.863  0.1122 -1.4369 -0.2590
  459TIP3    H223013   2.923   0.426   0.992 -0.9077  1.0699 -0.3695
  460TIP3   OH223014   0.896   6.680   6.511 -0.2349  0.4105 -0.2108
  460TIP3    H123015   0.886   6.774   6.527 -1.2191  0.2261  0.2851
  460TIP3    H223016   0.989   6.663   6.530 -0.3026  1.0774  0.7832
  461TIP3   OH223017   2.172   1.144   0.652  0.0510 -0.6272  0.6071
  461TIP3    H123018   2.184   1.235   0.680 -2.7843  0.3192 -1.0770
  461TIP3    H223019   2.134   1.100   0.727  2.9170 -0.8856  1.9956
  462TIP3   OH223020   6.876   7.241   0.362  0.1049 -0.2080 -0.1902
  462TIP3    H123021   6.899   7.306   0.296  2.2179 -0.5629  0.1639
  462TIP3    H223022   6.959   7.216   0.401 -1.0718 -0.3086  2.3423
  463TIP3   OH223023   4.704   1.888   1.346 -0.5878  0.0088  0.7946
  463TIP3    H123024   4.635   1.917   1.406 -0.8268 -0.9023  0.9795
  463TIP3    H223025   4.657   1.854   1.270 -0.3435 -0.3539  0.8009
  464TIP3   OH223026   1.378   7.306   7.706  0.1368  0.4430 -0.9337
  464TIP3    H123027   1.367   7.337   7.616 -2.2810 -3.1596 -2.0150
  464TIP3    H223028   1.303   7.342   7.753 -1.1468 -1.3587 -1.5304
  465TIP3   OH223029   3.069   1.539   7.423  0.3638 -0.0439  0.1663
  465TIP3    H123030   3.084   1.501   7.337 -0.1366 -0.1047  0.1034
  465TIP3    H223031   3.114   1.481   7.484  1.0266  0.2001 -0.0853
  466TIP3   OH223032   1.459   2.008   6.324  0.0847  0.1128  0.2274
  466TIP3    H123033   1.369   2.012   6.292  0.0879 -0.4886  0.1442
  466TIP3    H223034   1.453   2.035   6.416 -0.3728 -1.2003  0.5914
  467TIP3   OH223035   3.633   0.662   6.482  0.0177  0.2771  0.9694
  467TIP3    H123036   3.539   0.663   6.500 -0.1474  2.2800  0.1261
  467TIP3    H223037   3.640   0.634   6.391  0.2525 -0.0704  1.0936
  468TIP3   OH223038   0.805   2.531   6.255 -0.0726  0.5431  0.5705
  468TIP3    H123039   0.893   2.512   6.224 -0.2061  0.1937  0.4042
  468TIP3    H223040   0.765   2.581   6.183  0.4004  1.8058  1.1569
  469TIP3   OH223041   2.842   1.766   8.497  0.2252 -0.0715 -0.2611
  469TIP3    H123042   2.828   1.784   8.590 -1.0058 -1.3299 -0.1962
  469TIP3    H223043   2.847   1.671   8.491  1.5774  0.0462 -1.3158
  470TIP3   OH223044   0.248   0.684   6.813  0.6615 -0.4064  0.2711
  470TIP3    H123045   0.238   0.590   6.799 -0.5193 -0.2863  0.3021
  470TIP3    H223046   0.188   0.704   6.885 -0.5969  0.7176 -1.0659
  471TIP3   OH223047   4.114   6.252   6.630 -0.1417 -0.1240 -0.2213
  471TIP3    H123048   4.079   6.284   6.547 -0.9466  1.5095  0.7407
  471TIP3    H223049   4.200   6.293   6.638 -0.4084  0.3659  0.1428
  472TIP3   OH223050   3.688   0.066   6.092  0.2643 -0.0738 -0.1984
  472TIP3    H123051   3.758   0.002   6.078  0.7462  0.1987  0.9339
  472TIP3    H223052   3.641   0.068   6.009  0.8643 -1.1500 -0.5793
  473TIP3   OH223053   1.903   0.995   6.121 -0.3224 -0.5064 -0.1151
  473TIP3    H123054   1.870   0.981   6.210 -0.6311 -1.3230 -0.3576
  473TIP3    H223055   1.994   0.967   6.125  0.0658  0.7871  0.2966
  474TIP3   OH223056   2.010   6.928   6.894 -0.1125  0.0354  0.5880
  474TIP3    H123057   2.104   6.940   6.908  0.2367 -2.1369  0.3959
  474TIP3    H223058   1.968   6.992   6.952  1.4711  0.4011  1.3585
  475TIP3   OH223059   2.198   1.138   1.439  0.1627  0.7596  0.2838
  475TIP3    H123060   2.155   1.220   1.465 -0.8621  0.1656  0.4808
  475TIP3    H223061   2.127   1.074   1.434  0.8465  0.0594 -0.6325
  476TIP3   OH223062   2.943   0.137   5.872  0.2574  0.5501 -0.1799
  476TIP3    H123063   2.898   0.106   5.951 -0.2019  1.0485 -0.2396
  476TIP3    H223064   3.028   0.094   5.874  0.4245  0.9185  0.8368
  477TIP3   OH223065   1.368   1.933   6.728 -0.9608 -0.4828  0.3824
  477TIP3    H123066   1.276   1.916   6.707 -1.5237  2.3496  0.3427
  477TIP3    H223067   1.391   2.011   6.677  1.2901 -0.7934  0.8522
  478TIP3   OH223068   2.080   0.380   1.032  0.1237 -0.1426  0.4200
  478TIP3    H123069   2.076   0.371   0.936 -0.5670 -0.5720  0.4796
  478TIP3    H223070   2.109   0.294   1.062 -0.1036 -0.1496  0.6203
  479TIP3   OH223071   5.015   5.006   0.816 -0.4430 -0.5236  0.4199
  479TIP3    H123072   5.067   5.067   0.763  0.0917  1.0592  2.6888
  479TIP3    H223073   4.969   4.951   0.752 -0.4219  1.8268 -1.6789
  480TIP3   OH223074   2.729   1.201   7.763 -0.0697  0.0119 -0.8597
  480TIP3    H123075   2.697   1.289   7.784 -0.2914 -0.1280 -0.5951
  480TIP3    H223076   2.824   1.208   7.767 -0.0994  0.0608 -0.0698
  481TIP3   OH223077   2.652   0.172   8.139 -0.5596 -0.0715  0.5333
  481TIP3    H123078   2.617   0.200   8.054  1.9027 -1.0765 -0.8694
  481TIP3    H223079   2.720   0.236   8.160  0.2548 -0.9862  0.7269
  482TIP3   OH223080   3.539   2.564   8.145  0.9700 -0.2959 -0.5519
  482TIP3    H123081   3.631   2.547   8.168  0.3869 -0.3112  1.9772
  482TIP3    H223082   3.499   2.589   8.228 -1.6280 -1.6908 -1.3435
  483TIP3   OH223083   0.788   0.351   7.246 -0.0890  0.5357  0.0072
  483TIP3    H123084   0.853   0.396   7.300  1.4284 -1.4024 -0.1724
  483TIP3    H223085   0.785   0.262   7.281 -2.9778  0.6826  0.2932
  484TIP3   OH223086   4.352   1.591   0.410 -0.4414  0.0203  0.1820
  484TIP3    H123087   4.334   1.570   0.319  0.0971 -1.0484  0.3095
  484TIP3    H223088   4.445   1.569   0.422 -0.2831  0.9816  0.7574
  485TIP3   OH223089   0.373   7.196   6.955  0.7037 -0.5056  0.4310
  485TIP3    H123090   0.468   7.202   6.956  0.6277  0.6408  1.7905
  485TIP3    H223091   0.354   7.110   6.992  1.2452 -1.8182 -2.1516
  486TIP3   OH223092   0.411   0.208   6.414  0.1991  0.0129  0.3220
  486TIP3    H123093   0.438   0.120   6.389  0.7656  0.0900  0.6480
  486TIP3    H223094   0.491   0.261   6.405  0.1404  0.2587  1.2232
  487TIP3   OH223095   0.772   6.266   7.525 -0.1003 -0.4091  0.4842
  487TIP3    H123096   0.707   6.334   7.507 -0.7326 -1.1514 -0.0747
  487TIP3    H223097   0.824   6.301   7.597 -0.4354  0.6594  0.2119
  488TIP3   OH223098   3.695   2.652   1.108 -0.1680 -0.4768 -0.0819
  488TIP3    H123099   3.618   2.673   1.161 -0.9564 -3.5243  0.0328
  488TIP3    H223100   3.661   2.637   1.020  0.4909 -0.3954 -0.3560
  489TIP3   OH223101   6.370   6.014   7.027 -0.0475 -0.1614 -0.5748
  489TIP3    H123102   6.406   6.087   6.976  1.6878 -1.0404 -0.6361
  489TIP3    H223103   6.354   5.945   6.963 -2.5857  0.4500 -0.6658
  490TIP3   OH223104   5.714   2.645   6.407  0.0697  0.2966  0.3904
  490TIP3    H123105   5.744   2.567   6.453  3.5532  0.7504 -0.9453
  490TIP3    H223106   5.696   2.615   6.318  1.7287  1.0240 -0.2129
  491TIP3   OH223107   1.150   6.437   6.770  0.4550 -0.2417 -0.4960
  491TIP3    H123108   1.216   6.503   6.792  0.7868 -0.5501 -0.5455
  491TIP3    H223109   1.158   6.426   6.675  0.9554 -0.9297 -0.3764
  492TIP3   OH223110   6.306   6.497   0.938  0.3861 -0.4201 -0.2788
  492TIP3    H123111   6.389   6.471   0.898  0.1343  0.7447 -1.6216
  492TIP3    H223112   6.331   6.537   1.021  1.1588 -0.1891 -0.6207
  493TIP3   OH223113   3.972   2.852   7.953  0.3726  0.6743  0.7943
  493TIP3    H123114   4.037   2.835   7.885  0.3702 -0.5563  1.0783
  493TIP3    H223115   3.890   2.867   7.905  0.3154 -0.4514  0.5257
  494TIP3   OH223116   5.756   4.885   0.555  0.3280 -0.1099 -0.4465
  494TIP3    H123117   5.684   4.824   0.565 -0.7586  0.8248 -2.2898
  494TIP3    H223118   5.835   4.830   0.556 -0.4165 -1.1691  1.1563
  495TIP3   OH223119   0.950   5.438   0.629 -0.3299 -0.8620 -0.1985
  495TIP3    H123120   0.989   5.426   0.716 -0.7818  1.0512  0.2952
  495TIP3    H223121   1.023   5.433   0.569  0.3992  0.7027  0.5478
  496TIP3   OH223122   0.409   7.221   0.119  0.8444 -0.1729 -0.3452
  496TIP3    H123123   0.328   7.188   0.078 -0.4678  1.9807  0.4336
  496TIP3    H223124   0.479   7.183   0.066 -0.6431 -2.5220 -0.7217
  497TIP3   OH223125   3.689   5.802   7.616  0.3034  0.3768 -0.2825
  497TIP3    H123126   3.683   5.728   7.676 -0.4904  0.0619 -0.7414
  497TIP3    H223127   3.624   5.783   7.548  0.6101  1.1336 -0.7939
  498TIP3   OH223128   0.886   6.945   7.919  0.0857 -0.4958  0.3583
  498TIP3    H123129   0.807   6.905   7.956  0.0769  0.7131  1.7196
  498TIP3    H223130   0.874   6.938   7.825 -0.9026 -1.7594  0.5567
  499TIP3   OH223131   6.872   3.824   7.229 -0.3845  0.1917 -0.6508
  499TIP3    H123132   6.873   3.909   7.273  0.4414 -0.6080  0.9272
  499TIP3    H223133   6.842   3.843   7.140 -0.4555  2.0883 -0.2408
  500TIP3   OH223134   2.802   7.005   6.987 -0.7794  0.5396  0.2278
  500TIP3    H123135   2.840   7.086   6.953  0.5182  0.4629  1.4408
  500TIP3    H223136   2.772   7.028   7.075 -3.6243  0.6008 -0.7303
  501TIP3   OH223137   1.972   7.048   1.158 -0.1033 -0.1147 -0.1944
  501TIP3    H123138   1.983   7.110   1.086  2.8136  0.9257  1.0943
  501TIP3    H223139   1.973   7.102   1.237  3.8300 -1.8347  1.0452
  502TIP3   OH223140   4.662   0.441   0.386  0.9948 -0.1776 -0.7324
  502TIP3    H123141   4.571   0.464   0.402  1.8680  0.8437  3.2354
  502TIP3    H223142   4.663   0.346   0.387 -0.0264 -0.1979 -0.9128
  503TIP3   OH223143   7.104   0.728   6.735  0.5213  0.0490  0.2870
  503TIP3    H123144   7.044   0.680   6.793 -0.4483  1.6214  0.6386
  503TIP3    H223145   7.122   0.809   6.783  2.1335  0.0445 -0.2873
  504TIP3   OH223146   3.010   0.521   7.781 -0.1219  0.2772  1.1672
  504TIP3    H123147   2.919   0.494   7.768 -0.4605  0.9684  2.0395
  504TIP3    H223148   3.062   0.442   7.763 -0.7839  0.2776 -0.8259
  505TIP3   OH223149   1.544   0.606   7.418 -0.4618 -0.0551  0.5034
  505TIP3    H123150   1.540   0.547   7.343  0.1851 -0.4428  0.7661
  505TIP3    H223151   1.456   0.604   7.456 -0.4451 -0.8259  0.4957
  506TIP3   OH223152   3.179   0.662   7.327  0.3953 -0.2362 -0.0997
  506TIP3    H123153   3.173   0.657   7.231 -1.5110 -1.0336  0.0292
  506TIP3    H223154   3.271   0.646   7.346  0.6865 -0.6918 -1.7736
  507TIP3   OH223155   2.231   0.483   0.536  0.6837 -0.2495  0.5464
  507TIP3    H123156   2.181   0.487   0.618  0.8786 -1.5044  0.7325
  507TIP3    H223157   2.164   0.485   0.468  0.3999 -1.3077  0.7854
  508TIP3   OH223158   1.123   0.217   7.231 -0.4036  0.2674  0.4232
  508TIP3    H123159   1.055   0.152   7.211  0.2246 -0.7491  1.4886
  508TIP3    H223160   1.135   0.265   7.149  0.4192 -2.1829 -0.9434
  509TIP3   OH223161   0.814   0.544   6.598  0.4664  0.8221  0.0687
  509TIP3    H123162   0.880   0.507   6.539 -1.5337 -0.5698 -1.3680
  509TIP3    H223163   0.783   0.468   6.648 -1.8467  0.9861 -1.0804
  510TIP3   OH223164   6.770   6.786   7.339  0.0375 -0.1430 -0.1903
  510TIP3    H123165   6.742   6.735   7.263  1.1426  0.2388 -0.8685
  510TIP3    H223166   6.710   6.860   7.342 -0.2469 -0.3614 -0.4611
  511TIP3   OH223167   2.489   7.135   6.351  0.2825  0.1636  0.2303
  511TIP3    H123168   2.582   7.139   6.373 -0.0640  1.9278  1.4369
  511TIP3    H223169   2.471   7.219   6.309 -0.6941 -0.3413 -0.3750
  512TIP3   OH223170   5.324   2.311   0.917  0.2761  0.2112 -0.1332
  512TIP3    H123171   5.411   2.350   0.931 -0.1512  0.6324  1.4233
  512TIP3    H223172   5.264   2.369   0.963 -0.9010  0.1786 -1.6120
  513TIP3   OH223173   0.613   2.776   6.517  0.0483  0.8016  0.4447
  513TIP3    H123174   0.562   2.761   6.438 -0.3050  0.3833  0.7463
  513TIP3    H223175   0.560   2.839   6.567 -0.8113 -0.5982  1.3360
  514TIP3   OH223176   2.458   0.069   6.269  0.3253 -0.1288  0.0841
  514TIP3    H123177   2.540   0.099   6.231 -0.2808 -1.2946 -2.2088
  514TIP3    H223178   2.395   0.138   6.249  0.1395 -0.4711 -0.5147
  515TIP3   OH223179   5.666   6.268   1.145 -0.4843 -0.3428 -0.3347
  515TIP3    H123180   5.670   6.192   1.203  0.1251 -0.2748 -0.2899
  515TIP3    H223181   5.687   6.234   1.059  1.6712  0.1101 -0.0062
  516TIP3   OH223182   6.427   5.646   1.588 -0.2618 -1.0140  0.3658
  516TIP3    H123183   6.385   5.560   1.578  0.5738 -1.3942  0.1367
  516TIP3    H223184   6.448   5.673   1.499 -1.1660 -0.2408  0.3754
  517TIP3   OH223185   5.496   3.074   7.511  0.1229 -0.0796  0.1279
  517TIP3    H123186   5.429   3.127   7.469 -0.0552  0.5926  1.2234
  517TIP3    H223187   5.578   3.115   7.487  0.1334 -0.7085 -0.9464
  518TIP3   OH223188   2.740   6.433   7.164 -0.7561  0.1939 -0.2780
  518TIP3    H123189   2.769   6.522   7.147 -0.5409  0.4005  1.0800
  518TIP3    H223190   2.785   6.380   7.098  1.9265  0.6348  1.1018
  519TIP3   OH223191   1.658   0.834   2.038 -0.3561 -0.0532  0.1502
  519TIP3    H123192   1.564   0.819   2.025 -0.2820 -0.0029 -0.4776
  519TIP3    H223193   1.677   0.794   2.123 -1.0742  0.4955  0.5840
  520TIP3   OH223194   0.790   0.298   6.729 -0.0681  0.3994 -0.0921
  520TIP3    H123195   0.826   0.288   6.818 -0.9101  0.2815  0.2343
  520TIP3    H223196   0.696   0.304   6.742 -0.0632  2.2940 -0.8301
  521TIP3   OH223197   4.518   1.157   6.727 -0.0148 -0.5980  0.3698
  521TIP3    H123198   4.469   1.238   6.737  1.2132  0.1542  0.3683
  521TIP3    H223199   4.561   1.164   6.641  1.6266 -0.3791  1.1758
  522TIP3   OH223200   3.365   0.833   7.673 -0.2535 -0.2215  0.0799
  522TIP3    H123201   3.391   0.915   7.631  0.1646 -0.4001 -0.0148
  522TIP3    H223202   3.344   0.858   7.763 -1.4091  0.2033 -0.3098
  523TIP3   OH223203   4.188   1.171   6.504 -0.1095 -0.3027  0.4995
  523TIP3    H123204   4.203   1.080   6.478 -2.7712 -0.5360 -0.3951
  523TIP3    H223205   4.254   1.188   6.571  1.9072 -2.1578 -0.9194
  524TIP3   OH223206   1.765   0.901   7.392 -0.2931  0.2400 -0.2824
  524TIP3    H123207   1.767   0.817   7.438  2.4143  0.0881 -0.6028
  524TIP3    H223208   1.790   0.965   7.459  0.3378  0.4466 -0.7211
  525TIP3   OH223209   2.232   1.438   6.174  0.2627  0.4224 -0.4732
  525TIP3    H123210   2.218   1.487   6.255  0.7586 -0.7156  0.3073
  525TIP3    H223211   2.148   1.442   6.129 -0.8403 -1.2580  1.3640
  526TIP3   OH223212   4.410   6.904   0.784 -0.2205 -0.3061  0.0792
  526TIP3    H123213   4.380   6.851   0.710  0.6405 -1.8411  0.8043
  526TIP3    H223214   4.464   6.844   0.836  0.8264  1.3125  0.8861
  527TIP3   OH223215   1.402   6.978   6.640  0.2671  0.0749 -0.6669
  527TIP3    H123216   1.329   7.004   6.584 -0.1972 -0.1946 -0.1839
  527TIP3    H223217   1.412   6.884   6.626 -0.9548 -0.3312  0.9727
  528TIP3   OH223218   3.190   0.499   6.204 -0.8987  0.5191  0.1916
  528TIP3    H123219   3.176   0.580   6.155  0.8679  0.1454 -0.9593
  528TIP3    H223220   3.171   0.429   6.141  0.9461  0.0367  0.1465
  529TIP3   OH223221   3.425   5.790   7.859 -0.0353  0.0557  0.8147
  529TIP3    H123222   3.389   5.810   7.773 -0.0094  0.5087  0.9080
  529TIP3    H223223   3.517   5.770   7.842  0.3606  1.6866  0.9225
  530TIP3   OH223224   2.740   7.109   7.732 -0.1541 -0.7037  0.3217
  530TIP3    H123225   2.766   7.110   7.824 -1.1755 -0.6289  0.6106
  530TIP3    H223226   2.691   7.028   7.721  0.7549 -1.1792 -0.3880
  531TIP3   OH223227   4.766   6.701   7.477 -0.7396 -0.8915 -0.5115
  531TIP3    H123228   4.783   6.643   7.403  0.0734 -0.1448 -0.9007
  531TIP3    H223229   4.695   6.758   7.447  0.3335  0.1366 -1.1079
  532TIP3   OH223230   3.133   0.291   6.008 -0.5661 -0.2261  0.3763
  532TIP3    H123231   3.067   0.256   5.948  0.1040 -2.5103  0.9198
  532TIP3    H223232   3.197   0.220   6.016  1.7021  1.7631  0.2327
  533TIP3   OH223233   4.221   6.551   6.553  0.1357  0.4696  0.4501
  533TIP3    H123234   4.190   6.631   6.597  1.9221  0.7429  1.2839
  533TIP3    H223235   4.204   6.566   6.460 -0.9489  1.1786  0.7563
  534TIP3   OH223236   1.910   4.530   7.986 -0.1077  0.2852  1.0270
  534TIP3    H123237   1.909   4.497   8.076 -1.1248 -0.7600  0.6496
  534TIP3    H223238   1.818   4.552   7.968  0.2149  1.2295  0.4990
  535TIP3   OH223239   4.272   0.777   7.362  0.2671  0.2565  1.1598
  535TIP3    H123240   4.191   0.732   7.389  0.1812 -0.0755  0.3648
  535TIP3    H223241   4.304   0.818   7.442  0.6250 -1.6633  2.0421
  536TIP3   OH223242   3.744   0.662   7.760 -0.1295 -0.1956 -0.2162
  536TIP3    H123243   3.665   0.648   7.707  0.2437  1.0977 -1.1299
  536TIP3    H223244   3.798   0.720   7.707  1.1630 -0.5542  0.6955
  537TIP3   OH223245   4.341   2.647   7.017  0.0954  0.2839 -1.2959
  537TIP3    H123246   4.365   2.740   7.018 -0.2900  0.3812 -1.1194
  537TIP3    H223247   4.423   2.602   6.996  0.5504  0.5793 -0.1787
  538TIP3   OH223248   1.396   0.849   6.946 -0.0119 -0.2739 -0.0663
  538TIP3    H123249   1.430   0.860   7.035  0.0168 -2.5640  0.2386
  538TIP3    H223250   1.429   0.764   6.918 -0.6124  0.1146 -2.0167
  539TIP3   OH223251   3.682   7.258   0.921 -0.4729 -0.3742 -0.2075
  539TIP3    H123252   3.677   7.274   1.015 -0.4198 -1.4016 -0.0315
  539TIP3    H223253   3.624   7.184   0.906  0.3744 -0.9161 -0.8209
  540TIP3   OH223254   3.534   0.162   7.264 -0.0018  0.4033 -0.3378
  540TIP3    H123255   3.475   0.086   7.262  0.8126 -0.2125 -2.6062
  540TIP3    H223256   3.476   0.237   7.252 -0.6302  0.0353  0.3123
  541TIP3   OH223257   5.586   1.210   6.458  0.2181  0.4387 -0.6029
  541TIP3    H123258   5.580   1.303   6.439 -0.3311 -0.0468 -2.9683
  541TIP3    H223259   5.498   1.176   6.443  0.9579 -0.8668 -2.1677
  542TIP3   OH223260   1.936   1.368   6.740  0.2623  0.7738 -0.1841
  542TIP3    H123261   1.902   1.424   6.810 -0.8706  0.6429 -0.6083
  542TIP3    H223262   1.887   1.395   6.662 -0.0662 -0.5851 -0.4650
  543TIP3   OH223263   3.618   3.654   7.980 -0.5210  0.1567 -0.3224
  543TIP3    H123264   3.636   3.736   8.026  0.2025 -1.6550  2.7790
  543TIP3    H223265   3.702   3.631   7.940 -0.5903  0.6603 -0.7631
  544TIP3   OH223266   6.040   7.110   6.782  0.1461  0.0995 -0.2758
  544TIP3    H123267   6.069   7.044   6.718 -0.3161  2.4748 -3.0412
  544TIP3    H223268   6.117   7.166   6.794  0.4913 -0.8172  1.9476
  545TIP3   OH223269   2.838   0.049   6.146 -0.3758  0.0022 -0.0749
  545TIP3    H123270   2.919   0.002   6.127 -1.3871 -0.9774 -2.1038
  545TIP3    H223271   2.794  -0.005   6.213  0.7414  0.6911  1.2489
  546TIP3   OH223272   3.218   3.224   6.659 -0.4976  0.1968 -0.2891
  546TIP3    H123273   3.174   3.151   6.703 -0.8169 -1.1262 -2.7252
  546TIP3    H223274   3.302   3.233   6.704 -1.2137 -0.4554  1.2116
  547TIP3   OH223275   2.367   0.745   6.747 -0.2794  0.4171 -0.2226
  547TIP3    H123276   2.363   0.834   6.782  3.0231 -0.1226  1.8027
  547TIP3    H223277   2.306   0.745   6.673  0.6423  4.7507 -1.1162
  548TIP3   OH223278   3.216   6.725   8.427  0.3551  0.0153  0.0380
  548TIP3    H123279   3.165   6.775   8.490 -0.8136 -0.5312 -0.4367
  548TIP3    H223280   3.182   6.635   8.435  0.3868 -0.1135 -1.1504
  549TIP3   OH223281   3.367   3.943   6.707  0.6853  0.7611  0.1101
  549TIP3    H123282   3.314   3.957   6.785  1.2308 -0.4259  0.7090
  549TIP3    H223283   3.360   4.025   6.658  0.2505  1.4717  1.3443
  550TIP3   OH223284   2.320   2.203   5.928 -0.0730 -0.3735 -0.4285
  550TIP3    H123285   2.349   2.220   6.018  0.5051 -1.9400 -0.2944
  550TIP3    H223286   2.278   2.284   5.901  0.5376  0.4352  0.9466
  551TIP3   OH223287   5.508   0.895   8.299  0.0548  0.2902  0.5188
  551TIP3    H123288   5.451   0.874   8.226 -0.4221 -0.0990  0.9948
  551TIP3    H223289   5.594   0.861   8.273  0.0520  0.8265 -0.1723
  552TIP3   OH223290   0.612   4.890   7.326  0.2458  0.7633 -0.1829
  552TIP3    H123291   0.530   4.874   7.372  0.1017 -0.8896 -0.9864
  552TIP3    H223292   0.591   4.960   7.264 -1.1431 -1.1193 -1.8893
  553TIP3   OH223293   2.178   7.255   6.297 -0.2645 -0.5440 -0.1079
  553TIP3    H123294   2.117   7.184   6.316 -1.4234 -0.1243 -2.0564
  553TIP3    H223295   2.127   7.316   6.244  1.2302  0.8788  0.0570
  554TIP3   OH223296   4.913   3.875   7.024 -0.9011  0.2078  0.4989
  554TIP3    H123297   4.897   3.865   7.118 -1.6149  2.9197  0.6950
  554TIP3    H223298   5.009   3.878   7.016 -0.7911 -1.4388  0.9443
  555TIP3   OH223299   3.565   1.279   0.455 -0.4458 -0.1979  0.2258
  555TIP3    H123300   3.509   1.308   0.528  0.0497 -1.0938  0.9726
  555TIP3    H223301   3.509   1.285   0.378 -1.5986 -1.1278  0.9715
  556TIP3   OH223302   1.762   0.409   6.296 -0.0832 -0.4866 -0.2021
  556TIP3    H123303   1.745   0.488   6.244  0.6974  0.2624  0.6336
  556TIP3    H223304   1.715   0.339   6.251 -1.0585  0.5206 -0.7861
  557TIP3   OH223305   2.642   0.745   8.178  0.8653 -0.1460  0.7535
  557TIP3    H123306   2.568   0.805   8.185  0.7420 -0.2669  0.5136
  557TIP3    H223307   2.616   0.669   8.229  0.1482 -0.8478 -0.6378
  558TIP3   OH223308   3.378   1.325   6.134  0.5349 -0.4660 -0.3097
  558TIP3    H123309   3.409   1.396   6.076  0.2610 -0.4208 -0.4016
  558TIP3    H223310   3.288   1.310   6.106  0.6769 -1.0312 -0.4589
  559TIP3   OH223311   5.614   7.176   8.076 -0.2454  1.2732  0.8379
  559TIP3    H123312   5.548   7.146   8.139  0.5357 -0.3735  0.8874
  559TIP3    H223313   5.668   7.099   8.060 -0.0848  1.8351 -1.4226
  560TIP3   OH223314   3.140   2.432   6.126  0.4942 -0.3773 -0.0285
  560TIP3    H123315   3.178   2.422   6.214 -1.5385  1.6729  1.1427
  560TIP3    H223316   3.168   2.519   6.098 -0.5405 -0.2198 -0.5773
  561TIP3   OH223317   1.429   6.889   7.018  0.1606 -0.1595  0.2009
  561TIP3    H123318   1.355   6.949   7.028  0.3049  0.4035 -1.9130
  561TIP3    H223319   1.499   6.943   6.981  0.6502 -1.3598 -0.6768
  562TIP3   OH223320   2.531   6.392   0.215 -0.3933 -0.0341 -0.9762
  562TIP3    H123321   2.499   6.472   0.255  3.4171  0.9132  0.3649
  562TIP3    H223322   2.498   6.322   0.271 -0.2078  0.8792  0.2837
  563TIP3   OH223323   2.049   0.351   7.051 -0.3020 -0.7843 -0.3774
  563TIP3    H123324   2.121   0.393   7.099 -0.8271 -1.6814  1.2424
  563TIP3    H223325   1.998   0.424   7.016 -1.2803 -0.0025  2.5122
  564TIP3   OH223326   2.190   6.908   7.928 -0.5006  0.1453  0.2498
  564TIP3    H123327   2.150   6.958   7.857  1.3705  0.7170 -0.4321
  564TIP3    H223328   2.229   6.975   7.985  0.4784 -0.4420  0.2792
  565TIP3   OH223329   4.400   2.657   1.759 -0.3879  0.4725 -0.0354
  565TIP3    H123330   4.313   2.686   1.730  0.0095  1.1542 -0.5422
  565TIP3    H223331   4.390   2.643   1.853 -1.0022  0.7180 -0.0608
  566TIP3   OH223332   2.505   0.478   6.027 -0.4919 -0.0175 -0.0934
  566TIP3    H123333   2.546   0.564   6.034  0.1993 -0.2491 -1.2276
  566TIP3    H223334   2.565   0.426   5.973 -1.5768 -0.7959 -0.5680
  567TIP3   OH223335   4.859   3.485   7.407 -0.2215  0.6237  0.1757
  567TIP3    H123336   4.894   3.541   7.477  2.4761 -1.0537  0.2210
  567TIP3    H223337   4.843   3.401   7.450  0.1386  0.0018 -0.9009
  568TIP3   OH223338   7.240   0.841   7.043 -0.7567 -0.0063  0.4227
  568TIP3    H123339   7.170   0.836   7.108  0.0821  0.9070  1.4060
  568TIP3    H223340   7.203   0.896   6.973 -0.7639  1.0942  1.2828
  569TIP3   OH223341   3.705   4.836   7.211  0.2077  0.0079 -0.6934
  569TIP3    H123342   3.732   4.900   7.277  1.1992  0.5893 -1.6493
  569TIP3    H223343   3.685   4.757   7.261 -1.6368  1.2249  0.5749
  570TIP3   OH223344   0.569   3.906   7.442  0.4468  0.8979  0.1202
  570TIP3    H123345   0.631   3.919   7.370 -0.5584  1.9549 -0.5803
  570TIP3    H223346   0.521   3.989   7.447  1.1938  1.2002  2.6841
  571TIP3   OH223347   3.624   0.081   7.519 -0.0363 -0.0632 -0.2837
  571TIP3    H123348   3.612   0.080   7.424 -0.8816  1.4896 -0.2243
  571TIP3    H223349   3.715   0.056   7.532 -0.4267 -2.1741 -1.3901
  572TIP3   OH223350   4.205   1.651   6.750  0.1276 -0.6242 -0.4011
  572TIP3    H123351   4.239   1.733   6.716  0.3373 -0.3257  0.5148
  572TIP3    H223352   4.280   1.591   6.747  0.4143 -0.3219  0.4320
  573TIP3   OH223353   2.897   5.673   8.416  0.0928 -0.5684 -0.2786
  573TIP3    H123354   2.954   5.658   8.491  0.9332 -2.8687 -1.3205
  573TIP3    H223355   2.811   5.642   8.445  0.4522 -1.6192 -0.2945
  574TIP3   OH223356   2.118   6.249   7.881 -0.4781  0.8431  0.0725
  574TIP3    H123357   2.027   6.222   7.897 -0.6692  1.4540  0.0225
  574TIP3    H223358   2.169   6.189   7.936 -0.9390  0.7931  0.4620
  575TIP3   OH223359   1.307   3.696   1.102 -0.2493 -0.0750  0.6052
  575TIP3    H123360   1.219   3.665   1.122 -0.2786  1.2516  2.7089
  575TIP3    H223361   1.293   3.773   1.047 -0.3479 -0.5918 -0.1031
  576TIP3   OH223362   3.847   0.140   7.115  0.4815  0.0783 -0.0358
  576TIP3    H123363   3.783   0.131   7.185  1.9482  0.0003  1.3231
  576TIP3    H223364   3.919   0.189   7.154  0.7701  1.1823 -1.8674
  577TIP3   OH223365   3.741   0.962   7.020  0.7915  0.1510 -0.6452
  577TIP3    H123366   3.711   0.988   6.932 -0.7170 -0.9523 -0.4740
  577TIP3    H223367   3.711   0.872   7.030  1.5938  0.0287  0.7300
  578TIP3   OH223368   6.552   0.900   7.192 -0.1095  0.1569  0.1739
  578TIP3    H123369   6.589   0.815   7.213  1.4573  1.0990  1.3046
  578TIP3    H223370   6.457   0.888   7.199  0.0144 -1.9150 -1.3896
  579TIP3   OH223371   0.598   7.079   8.474  0.0957  0.2566  0.0676
  579TIP3    H123372   0.688   7.066   8.443  0.6158 -1.0141  1.9670
  579TIP3    H223373   0.555   6.995   8.456  0.4586 -0.5901  2.7550
  580TIP3   OH223374   4.466   7.149   1.774  0.1892  0.1335 -0.2692
  580TIP3    H123375   4.429   7.188   1.853  0.3325  1.2969 -0.7502
  580TIP3    H223376   4.553   7.118   1.799  0.6523  1.4431 -0.2100
  581TIP3   OH223377   1.653   2.744   6.750  0.4562 -0.2302  0.1173
  581TIP3    H123378   1.563   2.714   6.754  0.3293 -0.0787 -1.2981
  581TIP3    H223379   1.654   2.826   6.799 -0.1285 -0.3543  0.3289
  582TIP3   OH223380   2.329   0.246   6.862  0.0823  0.4610  0.3405
  582TIP3    H123381   2.268   0.182   6.825  0.4339  0.2138  0.1902
  582TIP3    H223382   2.272   0.313   6.900 -0.3084  1.4374 -1.8437
  583TIP3   OH223383   2.541   1.256   8.064 -0.0056 -0.2446  0.9226
  583TIP3    H123384   2.594   1.310   8.005  0.3916  2.0175  3.2871
  583TIP3    H223385   2.537   1.170   8.021  2.6193  0.5515 -0.9998
  584TIP3   OH223386   7.322   2.016   6.676  0.1777  0.5233  0.1260
  584TIP3    H123387   7.294   2.024   6.585  1.1539 -2.1953 -0.4723
  584TIP3    H223388   7.394   2.077   6.685 -1.2381  2.2897 -0.3380
  585TIP3   OH223389   1.958   7.330   7.947 -0.2718 -0.0296 -0.4984
  585TIP3    H123390   2.052   7.338   7.928 -0.4249  2.6866 -0.2297
  585TIP3    H223391   1.955   7.293   8.036  0.4848 -2.7121 -1.5240
  586TIP3   OH223392   3.911   1.010   7.282 -0.0991 -0.2395  0.6467
  586TIP3    H123393   3.844   1.077   7.270  0.9534  1.1334  2.1648
  586TIP3    H223394   3.904   0.986   7.375  2.6749  1.2429  1.2805
  587TIP3   OH223395   3.818   1.878   7.572  0.2346 -0.0376  0.2607
  587TIP3    H123396   3.725   1.899   7.571 -0.3344 -2.4100 -0.5255
  587TIP3    H223397   3.833   1.843   7.660  0.3916  0.4134  0.4119
  588TIP3   OH223398   1.347   0.253   6.833  0.5318  0.4045 -0.0401
  588TIP3    H123399   1.398   0.191   6.885  1.2257 -0.9299 -2.2400
  588TIP3    H223400   1.380   0.242   6.744 -2.4959  0.6938 -1.2446
  589TIP3   OH223401   3.910   0.508   8.401  0.6134  0.6008  0.1852
  589TIP3    H123402   3.862   0.588   8.380  2.0043  1.7543  1.3161
  589TIP3    H223403   3.844   0.439   8.396 -0.4043  1.6654 -1.7579
  590TIP3   OH223404   4.875   6.273   8.240  0.4482  0.4696  0.3377
  590TIP3    H123405   4.924   6.337   8.291  1.6420  1.7850 -2.3043
  590TIP3    H223406   4.929   6.259   8.162 -0.3807 -2.8693  0.2721
  591TIP3   OH223407   3.900   2.144   2.060  0.8908 -0.0858 -0.6590
  591TIP3    H123408   3.897   2.206   1.988  0.6828 -0.3607 -0.8881
  591TIP3    H223409   3.947   2.068   2.025 -0.7744 -0.9544 -1.0865
  592TIP3   OH223410   0.847   1.411   6.779  0.0309  0.6571 -0.0396
  592TIP3    H123411   0.901   1.373   6.849  2.8756  3.0267 -0.8340
  592TIP3    H223412   0.842   1.504   6.801 -3.6975  0.5108 -0.0810
  593TIP3   OH223413   7.031   4.832   6.870 -0.1029 -0.2174  0.4489
  593TIP3    H123414   6.957   4.800   6.921  1.6802 -2.0437  2.0020
  593TIP3    H223415   7.108   4.795   6.914  1.8986  3.5421  0.3594
  594TIP3   OH223416   0.131   6.832   8.027 -0.1767 -0.6273 -0.1482
  594TIP3    H123417   0.145   6.900   8.092  0.4885 -0.1299 -0.8017
  594TIP3    H223418   0.064   6.776   8.065 -0.2905  0.0468  0.6595
  595TIP3   OH223419   4.088   3.296   6.783 -0.4006 -0.0116  0.7014
  595TIP3    H123420   4.068   3.358   6.714 -0.7383 -0.8880 -0.0048
  595TIP3    H223421   4.054   3.337   6.863 -1.3241  0.3618  0.1262
  596TIP3   OH223422   1.604   6.566   6.434 -0.1751  0.5707  0.0427
  596TIP3    H123423   1.633   6.502   6.499  1.4732  1.0142 -0.2321
  596TIP3    H223424   1.644   6.538   6.352 -1.3108  0.6711 -0.5655
  597TIP3   OH223425   2.481   7.110   7.891 -0.4919 -0.3112 -0.7329
  597TIP3    H123426   2.552   7.069   7.940 -1.1208  0.5000  0.8911
  597TIP3    H223427   2.413   7.127   7.956  1.1291  6.6236 -0.4806
  598TIP3   OH223428   0.915   0.129   6.213  0.1461  0.7216 -0.2514
  598TIP3    H123429   0.910   0.169   6.126  0.3078  0.6149 -0.3107
  598TIP3    H223430   0.824   0.112   6.237  0.0792  1.1046 -0.2345
  599TIP3   OH223431   2.884   5.284   6.672 -0.5804  0.4114 -0.3780
  599TIP3    H123432   2.872   5.365   6.624 -0.5200  0.4267 -0.3678
  599TIP3    H223433   2.886   5.216   6.605 -2.7884  0.1746 -0.2492
  600TIP3   OH223434   2.250   0.538   6.002 -0.2294 -0.4771  0.0199
  600TIP3    H123435   2.344   0.517   5.998 -0.1960 -0.3415  0.0908
  600TIP3    H223436   2.209   0.457   6.034 -0.2289 -0.8014 -0.7838
  601TIP3   OH223437   0.178   6.639   5.914 -0.7042 -0.1382  0.1563
  601TIP3    H123438   0.164   6.619   6.006  2.4904  1.5123  1.0719
  601TIP3    H223439   0.192   6.734   5.911 -1.9769  0.0176 -2.1907
  602TIP3   OH223440   2.505   2.366   1.969  0.4177 -0.3754  0.2149
  602TIP3    H123441   2.429   2.357   2.027  1.3691 -1.1549  1.3593
  602TIP3    H223442   2.528   2.459   1.974  0.7241 -0.5174  1.3643
  603TIP3   OH223443   3.794   2.835   7.276  0.2407  0.1388  0.0864
  603TIP3    H123444   3.808   2.814   7.183 -0.2561  0.0338  0.0326
  603TIP3    H223445   3.866   2.894   7.298  0.8077 -0.4596 -0.1496
  604TIP3   OH223446   3.703   3.040   6.743 -0.4857  0.1227  0.2482
  604TIP3    H123447   3.693   3.047   6.648  0.2992  0.9529  0.2266
  604TIP3    H223448   3.733   3.126   6.770  0.3168 -0.4244  1.1242
  605TIP3   OH223449   2.718   0.181   7.404  1.0149 -0.9752  0.4262
  605TIP3    H123450   2.699   0.194   7.311 -0.9286 -1.5875  0.7162
  605TIP3    H223451   2.789   0.243   7.423  1.6066 -1.0364 -1.5132
  606TIP3   OH223452   6.633   3.153   0.336  0.0716 -0.3934  0.2192
  606TIP3    H123453   6.709   3.095   0.329 -0.6057 -1.2457 -0.1274
  606TIP3    H223454   6.641   3.212   0.260 -0.6484 -1.7287 -0.9114
  607TIP3   OH223455   2.437   2.988   8.243 -0.2878 -0.3170  1.1546
  607TIP3    H123456   2.389   3.044   8.303 -1.2135  0.3690 -0.2163
  607TIP3    H223457   2.441   2.903   8.288 -2.8740 -0.4301  1.2591
  608TIP3   OH223458   2.389   0.972   6.389  0.0044  0.0718  0.3340
  608TIP3    H123459   2.302   1.012   6.386 -0.4683 -0.8953  0.8989
  608TIP3    H223460   2.380   0.889   6.341  0.3344 -0.5455  1.3217
  609TIP3   OH223461   3.427   0.838   0.345 -0.3969  0.0903  0.3407
  609TIP3    H123462   3.435   0.874   0.434  3.1046  2.7118 -0.9265
  609TIP3    H223463   3.479   0.758   0.347 -0.3188  0.1472  0.6767
  610TIP3   OH223464   2.662   0.851   6.266  0.4902  0.5719  0.3966
  610TIP3    H123465   2.613   0.908   6.325  0.9657 -0.6230  1.9633
  610TIP3    H223466   2.690   0.908   6.195  0.7747  2.2409  1.8284
  611TIP3   OH223467   2.018   6.558   7.351  0.3948 -0.5252 -0.1552
  611TIP3    H123468   1.967   6.577   7.430 -0.4340 -1.4963 -0.4425
  611TIP3    H223469   2.079   6.631   7.344 -0.1993  0.0826  0.8313
  612TIP3   OH223470   1.190   3.278   7.058  0.3948  0.2912  0.6098
  612TIP3    H123471   1.103   3.256   7.024  1.0373  0.9858 -1.6127
  612TIP3    H223472   1.184   3.264   7.152 -1.9529 -0.2278  0.4080
  613TIP3   OH223473   5.094   5.772   6.628  0.3074  0.3038  0.2080
  613TIP3    H123474   5.149   5.795   6.554  0.4708 -0.7766 -0.0074
  613TIP3    H223475   5.147   5.794   6.705 -0.0275  1.8312  0.0248
  614TIP3   OH223476   2.699   0.219   7.141  0.3225 -0.3236  0.2610
  614TIP3    H123477   2.720   0.304   7.102  0.1014 -0.7966 -0.8899
  614TIP3    H223478   2.620   0.190   7.096 -0.8370 -0.1711  2.1478
  615TIP3   OH223479   3.839   0.045   6.373  0.2485  0.1672 -0.7704
  615TIP3    H123480   3.764   0.007   6.418 -0.9514  2.6625 -0.6139
  615TIP3    H223481   3.805   0.124   6.331  2.3683  0.3309 -2.2645
  616TIP3   OH223482   1.491   6.465   7.244  0.1675  0.4330 -0.6225
  616TIP3    H123483   1.403   6.500   7.258 -0.6835 -0.4184 -3.5628
  616TIP3    H223484   1.482   6.370   7.257  0.6933  0.3662 -0.7197
  617TIP3   OH223485   6.860   4.971   0.347 -0.0481  0.2847  0.4854
  617TIP3    H123486   6.799   4.963   0.273 -1.7881 -1.7729  2.0786
  617TIP3    H223487   6.850   5.061   0.376 -2.7808 -0.1566  1.0589
  618TIP3   OH223488   4.154   2.247   7.066  0.5540 -0.4124  0.8309
  618TIP3    H123489   4.248   2.251   7.047  0.3677  1.8774  0.2541
  618TIP3    H223490   4.117   2.197   6.993  1.1039  0.1521  0.1597
  619TIP3   OH223491   2.979   7.176   6.864  0.0523  0.3438  0.7289
  619TIP3    H123492   3.007   7.101   6.810 -0.3539  1.2117 -0.7243
  619TIP3    H223493   3.045   7.182   6.933  1.0649 -0.2665 -0.1654
  620TIP3   OH223494   4.210   0.931   7.133 -0.0065  0.5386 -1.0966
  620TIP3    H123495   4.211   0.881   7.215 -1.4093  0.9758 -0.7873
  620TIP3    H223496   4.302   0.940   7.109  0.5670  1.9539  1.4016
  621TIP3   OH223497   1.198   3.922   1.004 -0.2238 -0.2232  0.2691
  621TIP3    H123498   1.116   3.884   0.974 -1.6325  0.8564  2.5806
  621TIP3    H223499   1.185   4.016   0.996  0.4708 -0.0218  1.4170
  622TIP3   OH223500   3.437   0.559   7.115 -0.4130 -0.2255 -0.1907
  622TIP3    H123501   3.392   0.477   7.135  0.2990 -0.8945 -1.2764
  622TIP3    H223502   3.452   0.556   7.021 -0.5679  1.2522 -0.2717
  623TIP3   OH223503   3.594   7.069   7.411  0.4289  0.0814 -0.4271
  623TIP3    H123504   3.646   7.128   7.466 -1.5389 -0.1203  1.7027
  623TIP3    H223505   3.548   7.127   7.350  0.9479  0.4647 -0.4614
  624TIP3   OH223506   5.063   2.630   1.674 -0.6960  0.2004 -0.1205
  624TIP3    H123507   5.109   2.654   1.755  0.4319  1.0035 -0.9697
  624TIP3    H223508   5.059   2.535   1.676  2.1069  0.0302 -0.5718
  625TIP3   OH223509   3.033   2.892   0.093 -0.4430  0.0289 -0.3119
  625TIP3    H123510   2.945   2.882   0.130 -0.3815  1.5760  0.2830
  625TIP3    H223511   3.086   2.925   0.166 -0.1756  2.5196 -1.5819
  626TIP3   OH223512   1.662   7.073   6.153  0.5074  0.6125 -0.1327
  626TIP3    H123513   1.663   7.123   6.234  2.3622  2.7183 -1.3660
  626TIP3    H223514   1.735   7.011   6.162 -0.7989 -0.8542  0.7429
  627TIP3   OH223515   3.230   1.923   6.631 -0.0431 -0.4716 -0.9000
  627TIP3    H123516   3.145   1.964   6.644  0.1168 -0.3542 -0.1909
  627TIP3    H223517   3.292   1.983   6.675  0.2706 -1.1206 -0.4510
  628TIP3   OH223518   5.175   1.266   6.814 -0.3763 -0.4447  0.5727
  628TIP3    H123519   5.246   1.274   6.750 -0.9351  3.3525  0.3223
  628TIP3    H223520   5.100   1.239   6.762 -0.1539 -0.1334  0.0818
  629TIP3   OH223521   2.936   0.163   7.679  0.8086 -0.1703  0.2809
  629TIP3    H123522   2.899   0.231   7.736  0.5038  0.3136 -0.4808
  629TIP3    H223523   2.948   0.207   7.594 -0.3061 -1.3257 -0.4914
  630TIP3   OH223524   6.051   1.109   8.091  0.6249  0.0362 -0.6542
  630TIP3    H123525   6.106   1.124   8.168 -1.2308  0.0903  0.6917
  630TIP3    H223526   5.996   1.186   8.085 -1.5472 -1.4335 -0.0540
  631TIP3   OH223527   1.161   2.371   6.531 -0.1813 -0.3279  0.5764
  631TIP3    H123528   1.113   2.358   6.612  0.5848  2.0434  1.4524
  631TIP3    H223529   1.193   2.461   6.536  1.4938 -0.7633 -1.4989
  632TIP3   OH223530   3.327   0.658   6.548 -0.6808  0.1251 -0.2051
  632TIP3    H123531   3.295   0.629   6.633 -1.4247  1.7987  0.1077
  632TIP3    H223532   3.266   0.621   6.485 -0.0001 -1.3091 -0.0519
  633TIP3   OH223533   3.740   1.365   6.994 -0.4930 -0.7002  0.0185
  633TIP3    H123534   3.739   1.291   6.934 -1.4205  0.1097 -0.9993
  633TIP3    H223535   3.672   1.424   6.960  0.2340  0.6103  0.7959
  634TIP3   OH223536   1.564   4.759   0.591 -0.8077 -0.4881  0.1913
  634TIP3    H123537   1.612   4.828   0.545 -1.2263 -0.4419 -0.1894
  634TIP3    H223538   1.478   4.758   0.548 -1.0281 -0.7959  0.6356
  635TIP3   OH223539   4.222   7.282   6.817  0.1613  0.2153  0.5067
  635TIP3    H123540   4.206   7.235   6.735 -3.6939 -0.6662  1.6413
  635TIP3    H223541   4.303   7.244   6.851  1.4141  0.0616 -2.4649
  636TIP3   OH223542   4.376   1.986   6.358 -0.3608 -0.1179  0.0338
  636TIP3    H123543   4.354   1.919   6.293 -1.6857  1.9589 -1.7127
  636TIP3    H223544   4.294   2.031   6.377  0.4288  0.7948  1.4587
  637TIP3   OH223545   4.624   7.083   1.116  0.1526 -0.1066 -0.4482
  637TIP3    H123546   4.645   7.138   1.192 -0.0112 -2.3001  1.2571
  637TIP3    H223547   4.545   7.122   1.080  0.8902  1.6705 -0.2109
  638TIP3   OH223548   3.855   7.278   7.449 -0.4644 -0.0750  0.2245
  638TIP3    H123549   3.944   7.307   7.469 -0.5129 -1.3560  2.4145
  638TIP3    H223550   3.861   7.245   7.359  1.5500 -1.2068  0.7305
  639TIP3   OH223551   5.679   6.711   1.774 -0.0357 -0.1053 -0.1772
  639TIP3    H123552   5.770   6.682   1.775 -0.1630 -0.5041  0.6180
  639TIP3    H223553   5.684   6.806   1.759  0.6538  0.2628  2.1794
  640TIP3   OH223554   1.101   3.272   6.449 -0.2097  0.6341 -0.2209
  640TIP3    H123555   1.014   3.297   6.479 -0.4846  0.5963 -0.9603
  640TIP3    H223556   1.085   3.212   6.376  0.4324  0.4652 -0.2270
  641TIP3   OH223557   4.856   6.351   7.470 -0.7438  0.0407 -0.4030
  641TIP3    H123558   4.932   6.403   7.444  1.5884 -1.7918  2.3852
  641TIP3    H223559   4.794   6.415   7.506  1.1948  1.1848  1.0318
  642TIP3   OH223560   3.192   0.004   7.088  0.5255 -0.0200  0.4387
  642TIP3    H123561   3.105  -0.011   7.126  1.2867 -1.0745  1.7790
  642TIP3    H223562   3.173   0.037   7.000 -1.2483  0.8351  1.1033
  643TIP3   OH223563   4.141   1.641   5.908  0.3171  0.6239  0.4821
  643TIP3    H123564   4.180   1.555   5.927  0.3170  0.4497 -0.3043
  643TIP3    H223565   4.144   1.687   5.992  1.1194  0.1718  0.7090
  644TIP3   OH223566   1.735   1.356   1.888  0.1968  0.0735  0.3409
  644TIP3    H123567   1.646   1.392   1.896 -0.2867 -0.8320 -0.8393
  644TIP3    H223568   1.728   1.268   1.926 -0.2668 -1.3211 -2.8814
  645TIP3   OH223569   4.200   6.445   7.486  0.2613  0.2502 -0.2107
  645TIP3    H123570   4.234   6.533   7.498  1.1530 -0.1999  0.6130
  645TIP3    H223571   4.166   6.419   7.572  1.6333 -0.8745  0.0205
  646TIP3   OH223572   2.285   0.503   7.033  0.1961  0.1387  0.2746
  646TIP3    H123573   2.361   0.552   7.065 -0.3021  2.1223 -1.4801
  646TIP3    H223574   2.235   0.567   6.982 -1.2095 -1.8605 -0.9176
  647TIP3   OH223575   5.011   1.663   7.072 -0.2324 -0.4092  0.0950
  647TIP3    H123576   5.042   1.655   6.981  1.4162  0.1938  0.5799
  647TIP3    H223577   4.993   1.573   7.099  1.0026 -0.7861 -0.2668
  648TIP3   OH223578   5.937   6.379   7.531  0.0337  0.0563  0.2004
  648TIP3    H123579   5.906   6.468   7.549  0.7334  0.5007 -0.7441
  648TIP3    H223580   5.858   6.330   7.510 -0.1942  0.8529 -0.8428
  649TIP3   OH223581   2.677   1.534   1.260  0.5377  0.4548 -0.1877
  649TIP3    H123582   2.693   1.596   1.189 -0.1035  0.6965 -0.1200
  649TIP3    H223583   2.686   1.448   1.219  1.8600  0.5780 -0.1873
  650TIP3   OH223584   3.351   5.145   7.591 -0.3081  0.1855  0.0356
  650TIP3    H123585   3.435   5.146   7.637 -1.1428  1.4410  1.5730
  650TIP3    H223586   3.291   5.193   7.649 -2.0060 -0.4099 -1.1881
  651TIP3   OH223587   2.586   6.861   8.350 -0.0818 -0.0733 -0.3806
  651TIP3    H123588   2.603   6.786   8.407 -0.6597 -0.7294 -1.0650
  651TIP3    H223589   2.661   6.919   8.364  0.8011 -1.1633 -0.4661
  652TIP3   OH223590   2.953   2.257   6.245  0.4748 -0.5421 -0.3240
  652TIP3    H123591   2.881   2.216   6.197 -0.7392  0.1653  0.8330
  652TIP3    H223592   2.982   2.329   6.190  0.2044 -0.7536 -0.7417
  653TIP3   OH223593   2.373   0.898   8.196  0.0675 -0.1298  0.2476
  653TIP3    H123594   2.356   0.992   8.204  2.8370  0.5535 -1.3324
  653TIP3    H223595   2.372   0.867   8.287 -3.2123  0.9353  0.6396
  654TIP3   OH223596   2.943   4.894   7.254  0.2638 -0.4066 -0.0148
  654TIP3    H123597   2.857   4.912   7.216 -0.2294  1.2389  1.8051
  654TIP3    H223598   3.002   4.890   7.179 -1.3990 -1.7422 -1.3042
  655TIP3   OH223599   3.810   1.331   0.207 -0.4644  0.3819 -0.0189
  655TIP3    H123600   3.776   1.333   0.117 -0.7721  1.8264  0.1182
  655TIP3    H223601   3.761   1.259   0.248  2.4295 -2.9085 -2.0236
  656TIP3   OH223602   3.949   3.680   6.827  0.1192  0.1960 -0.1427
  656TIP3    H123603   3.926   3.693   6.735  0.0111 -0.4380 -0.2033
  656TIP3    H223604   3.994   3.761   6.852 -1.5392  1.1536 -0.2269
  657TIP3   OH223605   4.448   0.349   6.110 -0.6902  0.2814  0.0981
  657TIP3    H123606   4.368   0.400   6.101  0.0563  1.7389  1.4513
  657TIP3    H223607   4.506   0.405   6.161  0.4536 -1.5949  0.8947
  658TIP3   OH223608   3.800   5.055   8.158  0.0589 -0.0849  0.1339
  658TIP3    H123609   3.824   5.004   8.082 -0.0298 -1.6577  1.1430
  658TIP3    H223610   3.873   5.045   8.219 -0.4216  0.1167  0.7606
  659TIP3   OH223611   4.802   7.259   8.473 -0.4068  0.5302 -0.2657
  659TIP3    H123612   4.891   7.234   8.498 -1.1283 -0.4503  1.3132
  659TIP3    H223613   4.787   7.341   8.519 -0.3687  0.6473 -0.4596
  660TIP3   OH223614   3.344   5.891   7.636  0.2259 -0.1642  0.2752
  660TIP3    H123615   3.374   5.979   7.658  1.2876 -0.0422 -1.5890
  660TIP3    H223616   3.272   5.905   7.574 -0.2911 -0.5904  0.7709
  661TIP3   OH223617   5.043   3.633   7.541 -0.3027  0.1358 -0.6048
  661TIP3    H123618   5.125   3.683   7.547 -1.0188  1.3965 -1.1567
  661TIP3    H223619   4.982   3.681   7.596 -1.1044  0.0873 -1.4474
  662TIP3   OH223620   3.618   0.592   6.190  0.0470  0.3370 -0.2131
  662TIP3    H123621   3.549   0.620   6.129  1.1746 -1.1630 -2.2251
  662TIP3    H223622   3.691   0.651   6.173  0.4458 -0.2294 -0.4863
  663TIP3   OH223623   3.427   0.469   7.432 -0.2266  0.0888 -0.0373
  663TIP3    H123624   3.460   0.556   7.451  0.8847 -0.3595  0.1394
  663TIP3    H223625   3.438   0.421   7.514 -2.2214  0.1914  0.3113
  664TIP3   OH223626   4.573   7.336   7.402  0.3115  0.2341 -0.4535
  664TIP3    H123627   4.489   7.301   7.433  0.0102 -0.1139 -1.6328
  664TIP3    H223628   4.638   7.302   7.464 -0.1555 -1.2642 -0.7680
  665TIP3   OH223629   4.470   4.123   7.084  0.0022 -0.4375  0.4334
  665TIP3    H123630   4.527   4.186   7.129  0.0748 -1.1915  1.4060
  665TIP3    H223631   4.525   4.046   7.072 -0.2594 -0.5146 -0.2643
  666TIP3   OH223632   3.409   0.429   6.328  0.1953  0.1295 -0.0689
  666TIP3    H123633   3.333   0.456   6.277  0.3816  2.3108  0.7601
  666TIP3    H223634   3.485   0.462   6.279  0.5455 -0.7789 -0.1516
  667TIP3   OH223635   3.038   5.877   6.685 -0.0016  0.2952 -0.2598
  667TIP3    H123636   3.082   5.840   6.761  1.8032 -1.6662 -2.1906
  667TIP3    H223637   2.951   5.838   6.685 -0.2322  0.7783  1.0963
  668TIP3   OH223638   1.194   6.704   7.580  0.0796  0.0401  0.5976
  668TIP3    H123639   1.117   6.648   7.574 -1.2835  1.9309 -0.0014
  668TIP3    H223640   1.215   6.725   7.489  1.1723 -0.2708  0.7722
  669TIP3   OH223641   3.360   5.361   7.979 -1.0136 -1.1500 -0.2689
  669TIP3    H123642   3.428   5.331   7.919  0.2824  0.7194  0.2467
  669TIP3    H223643   3.391   5.334   8.066  0.3512  1.8601  0.2506
  670TIP3   OH223644   2.496   6.207   8.259 -0.7119 -0.3546 -0.2314
  670TIP3    H123645   2.477   6.121   8.222  0.1326 -0.5654 -0.1860
  670TIP3    H223646   2.444   6.268   8.207  0.6967 -0.6134 -1.9807
  671TIP3   OH223647   5.205   2.167   7.182 -0.8025 -0.1331 -0.5224
  671TIP3    H123648   5.298   2.179   7.202 -0.6016 -0.5713 -1.1694
  671TIP3    H223649   5.173   2.108   7.250 -0.2890 -1.0626 -1.0843
  672TIP3   OH223650   1.005   4.036   0.141  0.1348 -1.1325  0.3420
  672TIP3    H123651   1.017   4.089   0.220  0.8384  0.2812 -0.6937
  672TIP3    H223652   1.093   4.017   0.111 -0.1271 -0.9111 -0.5886
  673TIP3   OH223653   2.546   1.843   7.531  0.7016  0.0129  0.0329
  673TIP3    H123654   2.465   1.885   7.503 -0.1051 -0.8552  1.0517
  673TIP3    H223655   2.608   1.863   7.461 -0.2435  1.1005 -0.5195
  674TIP3   OH223656   3.864   7.166   7.172 -0.4535 -0.0998  0.4787
  674TIP3    H123657   3.850   7.249   7.125  1.2967  0.1494  0.3881
  674TIP3    H223658   3.958   7.151   7.168 -0.7153 -1.9907  0.6954
  675TIP3   OH223659   6.488   7.274   7.041  0.3899 -0.1156  0.2363
  675TIP3    H123660   6.568   7.309   7.080  0.5179 -2.0435  1.8206
  675TIP3    H223661   6.420   7.290   7.107  0.0508 -0.9607  0.1037
  676TIP3   OH223662   2.536   6.708   7.042 -0.5823 -0.2640  0.0289
  676TIP3    H123663   2.489   6.677   7.119  1.3319 -1.3951  0.7829
  676TIP3    H223664   2.629   6.704   7.066  0.1346 -1.7453 -2.6645
  677TIP3   OH223665   5.792   1.595   6.894  0.3160 -0.0606  0.3990
  677TIP3    H123666   5.794   1.534   6.820  0.5671  0.2535  0.1456
  677TIP3    H223667   5.762   1.542   6.968  0.7577 -0.5474  0.2345
  678TIP3   OH223668   3.471   1.514   5.974 -0.1412 -0.0918 -0.1266
  678TIP3    H123669   3.424   1.518   5.891 -0.4209 -1.7057 -0.0692
  678TIP3    H223670   3.433   1.584   6.028 -2.1523 -1.0592 -0.2491
  679TIP3   OH223671   3.763   4.335   6.097 -0.2462 -0.0831 -0.1326
  679TIP3    H123672   3.796   4.245   6.100  1.2972  0.5235  1.8185
  679TIP3    H223673   3.691   4.337   6.160 -2.1293 -0.6112 -2.1756
  680TIP3   OH223674   3.378   1.813   7.410  0.2014 -0.1613 -0.9857
  680TIP3    H123675   3.452   1.800   7.351  0.9100  1.6576 -0.5345
  680TIP3    H223676   3.357   1.725   7.442  3.0782 -0.5614 -0.0275
  681TIP3   OH223677   3.775   6.813   7.739  0.8973  0.2728  0.3057
  681TIP3    H123678   3.761   6.779   7.651 -0.0380  0.9062  0.2122
  681TIP3    H223679   3.868   6.795   7.756  1.2305  0.6628 -1.0258
  682TIP3   OH223680   2.752   6.404   8.054  0.5692  0.0070 -0.1689
  682TIP3    H123681   2.760   6.378   8.146  0.6203 -0.2395 -0.2406
  682TIP3    H223682   2.728   6.497   8.057  0.7441  0.0437  0.0900
  683TIP3   OH223683   3.547   2.323   8.005  0.1113  0.2798 -0.2507
  683TIP3    H123684   3.591   2.328   7.920 -2.1771  2.1977 -1.3951
  683TIP3    H223685   3.573   2.403   8.050  0.6722 -0.3484  0.5538
  684TIP3   OH223686   5.773   0.208   0.871 -0.0511  0.0260  0.4219
  684TIP3    H123687   5.846   0.216   0.932  1.6298  1.6372 -1.7185
  684TIP3    H223688   5.811   0.165   0.794 -1.5768 -0.0046 -0.3274
  685TIP3   OH223689   1.735   2.114   6.202  0.3311  0.2907  0.2078
  685TIP3    H123690   1.640   2.105   6.198  0.0832  2.4682  0.4927
  685TIP3    H223691   1.765   2.037   6.249 -1.3483 -0.1344  0.6077
  686TIP3   OH223692   3.364   1.090   7.566 -0.4009 -0.3458 -0.3373
  686TIP3    H123693   3.291   1.088   7.505 -0.6641 -1.1776  0.0066
  686TIP3    H223694   3.415   1.168   7.541 -1.5915  0.4337 -0.3534
  687TIP3   OH223695   5.691   6.440   8.258  0.3214  0.3483 -0.1398
  687TIP3    H123696   5.619   6.416   8.316 -0.1302  0.1887 -0.7634
  687TIP3    H223697   5.758   6.476   8.317  0.3455 -0.9048  0.6157
  688TIP3   OH223698   2.188   1.070   7.602 -0.0724  0.4013  0.1403
  688TIP3    H123699   2.184   1.085   7.696  1.0103 -0.3364  0.3215
  688TIP3    H223700   2.268   1.114   7.574  2.3736 -3.5901  0.4503
  689TIP3   OH223701   2.928   6.964   7.915  0.0690  0.2097  0.0749
  689TIP3    H123702   2.959   7.015   7.840  2.1862  0.0330  0.8141
  689TIP3    H223703   3.007   6.928   7.954 -0.9008  1.0588  2.9525
  690TIP3   OH223704   1.488   3.100   1.884 -0.0032  0.4439  0.2194
  690TIP3    H123705   1.464   3.101   1.977 -0.0881  0.4537  0.1975
  690TIP3    H223706   1.417   3.147   1.841  0.7912  1.7776  0.3385
  691TIP3   OH223707   2.206   7.141   6.555  0.5103 -0.1416  0.1552
  691TIP3    H123708   2.235   7.191   6.480  1.5254 -0.4410  0.3479
  691TIP3    H223709   2.251   7.180   6.630  0.6846 -0.8242  0.4092
  692TIP3   OH223710   2.111   0.432   7.434 -0.2962  0.2710  0.4697
  692TIP3    H123711   2.023   0.468   7.421 -0.6823 -0.2265  1.6379
  692TIP3    H223712   2.161   0.505   7.471 -0.4925  0.2623  0.7572
  693TIP3   OH223713   2.053   4.691   7.772 -0.2026 -1.0536  0.0145
  693TIP3    H123714   1.998   4.658   7.843 -0.5603 -1.1615 -0.3131
  693TIP3    H223715   2.087   4.613   7.728 -0.1109 -0.9862 -0.0367
  694TIP3   OH223716   6.900   0.627   6.930  0.2719  0.3103  0.2879
  694TIP3    H123717   6.935   0.575   7.003  1.1895 -1.9627 -1.6805
  694TIP3    H223718   6.807   0.607   6.929  0.6135 -1.3698 -0.4483
  695TIP3   OH223719   6.542   6.331   7.643 -0.0496  0.1762  0.0007
  695TIP3    H123720   6.511   6.342   7.553  0.2567 -0.7909 -0.2269
  695TIP3    H223721   6.481   6.268   7.682  0.1767  0.1356  0.2929
  696TIP3   OH223722   2.412   5.462   7.574  0.0124  0.3090 -0.7785
  696TIP3    H123723   2.320   5.438   7.588  0.1577 -0.6053 -1.3803
  696TIP3    H223724   2.450   5.460   7.662 -0.1112 -1.1273 -0.7451
  697TIP3   OH223725   1.674   1.055   6.016 -0.3095 -0.2842  0.2201
  697TIP3    H123726   1.762   1.035   6.045 -0.2721 -1.2513 -0.5502
  697TIP3    H223727   1.617   1.000   6.070 -0.4851  0.7281  1.0849
  698TIP3   OH223728   4.721   0.274   7.520 -0.8833 -0.1807 -0.1095
  698TIP3    H123729   4.685   0.190   7.549 -1.2777 -0.3540 -1.0837
  698TIP3    H223730   4.644   0.330   7.507 -0.6909 -0.0068 -0.5033
  699TIP3   OH223731   2.102   0.004   6.772 -0.1004 -0.0133 -0.1024
  699TIP3    H123732   2.112  -0.052   6.695  0.0722  1.5491 -1.2335
  699TIP3    H223733   2.155  -0.039   6.839 -0.4268 -1.5131 -0.7708
  700TIP3   OH223734   3.746   6.907   6.878 -0.1491  0.2943  0.1495
  700TIP3    H123735   3.737   6.813   6.864 -0.1470  0.2411  0.4864
  700TIP3    H223736   3.761   6.943   6.791 -0.7283  0.0537 -0.0503
  701TIP3   OH223737   3.402   0.653   6.043 -0.1780 -0.3707  0.1420
  701TIP3    H123738   3.399   0.598   5.965  0.5702  1.1242 -0.9643
  701TIP3    H223739   3.321   0.705   6.038 -0.6889 -1.0893  0.9681
  702TIP3   OH223740   3.959   3.077   6.918  0.0956 -0.1607  0.0582
  702TIP3    H123741   3.909   3.013   6.867  0.7405  0.6945 -1.6782
  702TIP3    H223742   3.991   3.140   6.854 -0.7758  2.1222  1.7692
  703TIP3   OH223743   2.723   7.163   0.515  0.3111 -0.3058  0.3283
  703TIP3    H123744   2.648   7.126   0.562 -0.7854 -0.6870 -1.6623
  703TIP3    H223745   2.780   7.196   0.584 -1.1731 -0.9842  1.9351
  704TIP3   OH223746   2.866   3.018   8.369 -0.2629  0.3739  0.5232
  704TIP3    H123747   2.815   2.938   8.381 -0.5263  0.5555  0.6057
  704TIP3    H223748   2.957   2.990   8.383 -0.1829 -0.2824 -1.2341
  705TIP3   OH223749   2.254   0.273   0.147 -0.5436 -0.6212 -1.0187
  705TIP3    H123750   2.334   0.271   0.200  0.4266  1.6474 -2.3573
  705TIP3    H223751   2.187   0.305   0.207 -0.1398 -1.1136 -0.2949
  706TIP3   OH223752   3.970   0.501   7.716  0.1385  0.4621 -0.4924
  706TIP3    H123753   3.957   0.474   7.626  0.2813  1.4509 -0.8208
  706TIP3    H223754   3.881   0.508   7.753 -0.0196  1.7195 -1.0703
  707TIP3   OH223755   1.754   6.112   7.275 -0.1557  0.3250 -0.6580
  707TIP3    H123756   1.663   6.127   7.247 -0.2748 -0.3891 -0.6587
  707TIP3    H223757   1.799   6.082   7.196  0.3100  1.5989 -0.8879
  708TIP3   OH223758   4.397   1.462   6.919 -0.0945 -0.0095  0.0615
  708TIP3    H123759   4.481   1.444   6.962  1.0805  1.1795 -1.6740
  708TIP3    H223760   4.362   1.538   6.966 -0.1197 -0.3711  0.6409
  709TIP3   OH223761   4.432   6.219   0.180  0.0224  0.0359 -0.3301
  709TIP3    H123762   4.446   6.145   0.122  3.1372  1.0872 -1.0054
  709TIP3    H223763   4.367   6.273   0.134  1.5228  0.2299 -2.2762
  710TIP3   OH223764   4.969   2.612   6.321 -0.3014  0.2119  0.7775
  710TIP3    H123765   4.964   2.687   6.380  0.0527  1.7439 -1.0876
  710TIP3    H223766   4.934   2.645   6.238  0.9007 -1.3655 -0.3862
  711TIP3   OH223767   2.753   1.165   7.193 -0.8231 -0.4441 -0.0056
  711TIP3    H123768   2.691   1.094   7.177  0.1758 -1.7910  1.8001
  711TIP3    H223769   2.837   1.120   7.206 -0.3178  0.9970  1.9676
  712TIP3   OH223770   2.123   0.732   0.595  0.1367  0.5514 -0.1905
  712TIP3    H123771   2.181   0.790   0.644  0.1871  0.1728  0.1996
  712TIP3    H223772   2.064   0.695   0.661  1.0379 -0.9632 -0.1983
  713TIP3   OH223773   5.781   7.073   6.701  0.2579 -0.3398  0.0562
  713TIP3    H123774   5.769   6.979   6.704 -0.4094 -0.2085  2.4037
  713TIP3    H223775   5.861   7.088   6.751  1.1742  0.2374 -1.5341
  714TIP3   OH223776   6.982   5.989   7.192  0.1995 -0.1426 -0.2837
  714TIP3    H123777   6.901   5.957   7.154 -0.2537  0.4782  0.1541
  714TIP3    H223778   6.964   5.993   7.286 -1.1307  5.2072 -0.6154
  715TIP3   OH223779   6.172   0.385   0.805  0.0913 -0.2853 -0.4450
  715TIP3    H123780   6.223   0.463   0.830 -0.1299  0.8332 -3.3329
  715TIP3    H223781   6.083   0.406   0.831  0.4477 -0.6932  1.1809
  716TIP3   OH223782   4.332   0.785   6.206 -0.2353  0.8343 -0.9142
  716TIP3    H123783   4.373   0.713   6.159 -0.1228  0.4350 -0.2027
  716TIP3    H223784   4.242   0.757   6.220 -0.6270  1.4837 -1.9902
  717TIP3   OH223785   6.850   0.088   0.128 -0.5612  0.1193  0.0708
  717TIP3    H123786   6.775   0.131   0.168 -0.7399 -0.3124  0.1986
  717TIP3    H223787   6.851   0.121   0.038 -0.6187  0.4915  0.2061
  718TIP3   OH223788   2.677   6.414   6.758  0.0161 -0.2010 -0.2469
  718TIP3    H123789   2.732   6.468   6.702 -0.3166  2.6075  2.0644
  718TIP3    H223790   2.593   6.460   6.761 -0.5919 -1.3679  0.9714
  719TIP3   OH223791   3.920   1.799   0.595 -0.1306 -0.3712 -0.6974
  719TIP3    H123792   4.015   1.792   0.605  0.0624  0.3299 -1.9626
  719TIP3    H223793   3.895   1.716   0.554 -0.0914 -0.6296 -0.2012
  720TIP3   OH223794   5.760   0.065   6.510  0.0665  0.0228 -0.1782
  720TIP3    H123795   5.753  -0.023   6.473 -0.0776  0.9960 -2.6176
  720TIP3    H223796   5.694   0.069   6.579 -2.9649 -0.4514 -2.9149
  721TIP3   OH223797   3.290   0.486   5.861  0.0762  0.7353  0.5115
  721TIP3    H123798   3.250   0.410   5.903 -1.4240  0.9147 -0.5499
  721TIP3    H223799   3.218   0.549   5.852  1.2992  2.2860  1.3625
  722TIP3   OH223800   5.924   1.497   8.349 -0.2058  0.3159  0.3376
  722TIP3    H123801   5.949   1.589   8.349  1.8333 -0.1832  2.1536
  722TIP3    H223802   5.875   1.485   8.430  0.2709 -0.3627  0.5310
  723TIP3   OH223803   6.939   6.637   8.134 -0.1269  0.2072 -0.1439
  723TIP3    H123804   6.967   6.717   8.178 -0.1024  0.3037 -0.3310
  723TIP3    H223805   6.903   6.668   8.050  0.0852  0.0023 -0.3112
  724TIP3   OH223806   2.507   1.322   6.973 -0.2677  0.6575 -0.4068
  724TIP3    H123807   2.463   1.315   6.888 -0.4840  0.8295 -0.3093
  724TIP3    H223808   2.569   1.249   6.974 -0.0174  0.8579 -0.8555
  725TIP3   OH223809   2.868   2.520   1.429  0.3921  0.3152 -0.3527
  725TIP3    H123810   2.862   2.547   1.337  1.9362 -1.3043 -0.9571
  725TIP3    H223811   2.779   2.493   1.452  0.2237 -0.3516 -1.7201
  726TIP3   OH223812   3.446   5.610   8.193  0.1242 -0.2624  0.7932
  726TIP3    H123813   3.452   5.587   8.100  1.0027  0.4684  0.6602
  726TIP3    H223814   3.400   5.536   8.233  1.0700 -1.2761  0.0335
  727TIP3   OH223815   3.075   2.167   7.293  0.2283  0.1198 -0.2052
  727TIP3    H123816   3.136   2.219   7.241 -0.0353  2.3730  1.6870
  727TIP3    H223817   3.131   2.121   7.357  0.2254 -0.1047 -0.3630
  728TIP3   OH223818   4.476   5.220   7.139  0.0343  0.0219  0.8520
  728TIP3    H123819   4.509   5.133   7.161  0.2311  0.5114  2.5828
  728TIP3    H223820   4.552   5.267   7.106 -0.0112 -0.3855  0.1729
  729TIP3   OH223821   5.304   7.056   8.176 -0.1279  0.4631 -0.1781
  729TIP3    H123822   5.378   7.062   8.236 -0.5496  1.6795  0.2454
  729TIP3    H223823   5.244   7.124   8.206 -0.3121  1.1383 -2.0269
  730TIP3   OH223824   2.941   0.988   7.147  0.2205  0.4245  0.3842
  730TIP3    H123825   2.956   0.902   7.186  1.2854 -0.0558 -1.0723
  730TIP3    H223826   2.989   0.987   7.065 -0.6129  2.0446 -0.1558
  731TIP3   OH223827   6.892   5.379   6.632 -0.8896  0.0606  0.1226
  731TIP3    H123828   6.827   5.450   6.633 -0.3344  0.5704  0.3620
  731TIP3    H223829   6.969   5.417   6.673  0.3483  0.2198 -2.2697
  732TIP3   OH223830   7.132   1.341   6.850  0.0069 -0.1387  0.3061
  732TIP3    H123831   7.204   1.284   6.823  0.3010  0.3682  0.0128
  732TIP3    H223832   7.070   1.283   6.895 -0.1678 -0.8618 -0.8547
  733TIP3   OH223833   5.484   0.964   0.240  0.7602 -0.3647 -0.1493
  733TIP3    H123834   5.502   0.872   0.255  0.2449 -0.6245 -1.0973
  733TIP3    H223835   5.432   0.966   0.160 -1.5218  0.5393  1.3008
  734TIP3   OH223836   4.794   1.494   6.776 -0.0133  0.2445 -0.0099
  734TIP3    H123837   4.885   1.466   6.774 -0.2189 -0.4292 -0.7914
  734TIP3    H223838   4.785   1.551   6.700 -0.2406  0.2931  0.0532
  735TIP3   OH223839   3.195   0.832   0.195  0.5579 -0.1788 -0.1710
  735TIP3    H123840   3.194   0.895   0.122 -1.6487 -0.6411 -0.5653
  735TIP3    H223841   3.288   0.826   0.219  1.1868  0.9174 -2.1330
  736TIP3   OH223842   4.609   2.082   6.467  0.9200  0.4180 -0.6682
  736TIP3    H123843   4.548   2.018   6.431  0.9880 -0.3576  0.5775
  736TIP3    H223844   4.693   2.037   6.470  1.3414  1.1358 -1.3704
  737TIP3   OH223845   3.934   3.017   0.159 -0.0962  0.3953  0.4317
  737TIP3    H123846   4.026   3.010   0.184 -0.1616  0.7034  0.7614
  737TIP3    H223847   3.934   3.078   0.085 -0.2531  1.9847  1.7183
  738TIP3   OH223848   4.252   0.886   8.341 -0.3041 -0.0953  0.2561
  738TIP3    H123849   4.306   0.965   8.349  0.0950 -0.4803  1.4155
  738TIP3    H223850   4.314   0.816   8.322 -0.6214 -0.2026 -0.4077
  739TIP3   OH223851   4.486   1.687   6.285 -0.2105  0.0375  0.3292
  739TIP3    H123852   4.545   1.753   6.247  0.1559  0.2728  1.2920
  739TIP3    H223853   4.408   1.691   6.231  0.8036 -0.5584 -1.2270
  740TIP3   OH223854   5.072   0.198   8.221  0.3702  0.4173 -0.3947
  740TIP3    H123855   5.112   0.208   8.134  0.1011 -0.6396 -0.6508
  740TIP3    H223856   4.994   0.145   8.205  1.2642 -1.2912  0.7440
  741TIP3   OH223857   4.840   2.044   6.923  0.2088  0.4119  0.2224
  741TIP3    H123858   4.887   2.021   6.843  2.7582 -2.4048  2.3976
  741TIP3    H223859   4.751   2.012   6.909  0.5273  0.2769 -1.5929
  742TIP3   OH223860   5.399   5.748   7.691 -0.1068 -0.3562  0.2433
  742TIP3    H123861   5.443   5.816   7.743  0.0039 -0.2052 -0.0475
  742TIP3    H223862   5.374   5.793   7.610 -0.5476 -0.5150  0.2958
  743TIP3   OH223863   0.447   2.913   2.056 -0.2936 -0.3499  0.4241
  743TIP3    H123864   0.484   2.840   2.106  1.2807 -0.6773 -1.1668
  743TIP3    H223865   0.387   2.956   2.117 -0.4624 -2.3522  1.7221
  744TIP3   OH223866   3.357   1.574   5.736 -0.5726 -0.4865 -0.0199
  744TIP3    H123867   3.424   1.637   5.711  0.3684  0.2367  4.0670
  744TIP3    H223868   3.274   1.617   5.716  0.1144  0.0041 -1.8566
  745TIP3   OH223869   6.451   3.400   7.959 -1.2687  0.6272  0.3712
  745TIP3    H123870   6.415   3.432   8.042  0.3022  2.1735  0.4863
  745TIP3    H223871   6.380   3.412   7.896 -1.6726  1.7094  1.0131
  746TIP3   OH223872   4.246   2.702   0.727 -0.1702  0.1195  0.3344
  746TIP3    H123873   4.225   2.771   0.665  1.9786  0.0718 -0.5075
  746TIP3    H223874   4.334   2.672   0.701 -0.3428 -1.7340  1.7411
  747TIP3   OH223875   4.953   1.395   7.131 -0.1256  0.1438  0.3376
  747TIP3    H123876   4.942   1.424   7.222  1.7692  0.5966  0.4403
  747TIP3    H223877   4.948   1.299   7.137 -0.5244  0.1899  0.8363
  748TIP3   OH223878   2.380   1.296   6.712 -0.5062 -0.4339 -0.0721
  748TIP3    H123879   2.299   1.248   6.695 -0.2861 -0.9991  0.4902
  748TIP3    H223880   2.384   1.361   6.641 -1.5366 -0.2887 -0.0072
  749TIP3   OH223881   5.059   0.029   7.369 -0.1679  0.1858  0.1499
  749TIP3    H123882   5.149   0.060   7.379 -0.6179  1.3555  0.6754
  749TIP3    H223883   5.067  -0.066   7.361  1.1996  0.3920 -1.0379
  750TIP3   OH223884   4.882   2.765   7.049 -0.0545 -0.4854 -0.0399
  750TIP3    H123885   4.825   2.813   6.990 -0.2167  0.0478  0.5446
  750TIP3    H223886   4.946   2.723   6.992 -1.9765 -2.4327 -0.8540
  751TIP3   OH223887   5.285   0.039   7.100 -0.2709 -0.1010  0.0574
  751TIP3    H123888   5.202   0.040   7.052  0.3598 -0.1882 -1.0433
  751TIP3    H223889   5.285  -0.046   7.144 -0.2753 -0.5687 -0.8285
  752TIP3   OH223890   3.903   0.923   1.451  0.1687 -0.0398 -0.0383
  752TIP3    H123891   3.906   0.985   1.379 -0.3265  0.6810  0.5525
  752TIP3    H223892   3.853   0.848   1.417  0.3092  0.1083 -0.5753
  753TIP3   OH223893   6.341   3.320   6.962 -0.0990 -0.3077 -0.0550
  753TIP3    H123894   6.368   3.260   7.032 -1.0292  0.6832  1.1756
  753TIP3    H223895   6.327   3.403   7.006 -1.3128  0.1810 -1.3225
  754TIP3   OH223896   6.559   6.246   0.272  0.0294 -0.0960  0.2891
  754TIP3    H123897   6.517   6.162   0.290 -1.7568  1.0201  1.4991
  754TIP3    H223898   6.569   6.248   0.177  1.0963 -2.1135  0.3172
  755TIP3   OH223899   3.107   6.736   7.791 -0.0473  0.4029  0.0865
  755TIP3    H123900   3.114   6.758   7.884  1.6758 -0.0604  0.0937
  755TIP3    H223901   3.161   6.802   7.747  1.0119 -0.7194 -0.3507
  756TIP3   OH223902   4.217   6.356   0.091  0.2284 -0.5059 -0.1704
  756TIP3    H123903   4.151   6.417   0.124  1.0978 -0.8120  2.2632
  756TIP3    H223904   4.185   6.330   0.005 -1.2603  1.6900 -0.3358
  757TIP3   OH223905   2.948   5.522   6.855 -0.0255  0.1022  0.0006
  757TIP3    H123906   2.995   5.603   6.835 -0.7758  0.3601 -0.7553
  757TIP3    H223907   2.969   5.504   6.946 -0.1306  1.3457  0.2834
  758TIP3   OH223908   5.841   3.327   0.765  0.1669 -0.0248 -0.0661
  758TIP3    H123909   5.844   3.416   0.731 -0.4787  1.0758  2.6630
  758TIP3    H223910   5.853   3.272   0.688  2.9071  2.4345 -1.4910
  759TIP3   OH223911   4.980   1.233   6.634  0.5263  0.1729 -0.0684
  759TIP3    H123912   4.908   1.233   6.697  0.2013  1.5943 -0.3987
  759TIP3    H223913   4.937   1.248   6.549  1.0241 -1.0190 -0.5416
  760TIP3   OH223914   5.184   5.968   7.246  0.4777 -0.6069  0.7431
  760TIP3    H123915   5.153   6.057   7.259 -1.1500 -1.5109  3.5523
  760TIP3    H223916   5.120   5.929   7.186  0.3785 -0.3240  0.6653
  761TIP3   OH223917   4.363   0.320   7.467 -0.2418  0.6220 -0.1106
  761TIP3    H123918   4.289   0.264   7.441 -0.7891  0.9646  0.6880
  761TIP3    H223919   4.396   0.280   7.547  1.0823 -0.1056 -1.0170
  762TIP3   OH223920   4.165   7.016   8.377  0.6096 -0.1192 -0.4316
  762TIP3    H123921   4.247   6.968   8.364  1.0613  0.3933  0.5067
  762TIP3    H223922   4.127   7.021   8.289  0.5438 -2.1815 -0.5629
  763TIP3   OH223923   3.664   2.202   7.335  0.4976 -0.1049 -0.5839
  763TIP3    H123924   3.638   2.128   7.280  0.3966  0.4904 -1.3341
  763TIP3    H223925   3.756   2.218   7.311 -0.2015  1.5985 -2.2176
  764TIP3   OH223926   4.704   1.572   1.375 -0.1661 -0.1216 -0.1113
  764TIP3    H123927   4.749   1.553   1.293  0.2717  0.8459 -0.1009
  764TIP3    H223928   4.769   1.617   1.429 -0.8314  0.3727  0.2897
  765TIP3   OH223929   4.368   2.017   6.942  0.1926 -0.1132 -0.2981
  765TIP3    H123930   4.403   2.105   6.953  0.5486 -0.1653 -0.9370
  765TIP3    H223931   4.445   1.962   6.927 -0.0479 -0.4805 -0.2133
  766TIP3   OH223932   4.087   2.050   6.916 -0.1881  0.1811  0.1262
  766TIP3    H123933   4.178   2.023   6.928 -0.3251 -0.8594 -1.0625
  766TIP3    H223934   4.042   1.970   6.888 -1.3696  0.7970  0.2568
  767TIP3   OH223935   7.098   6.499   7.535  0.4701  0.0353  0.2032
  767TIP3    H123936   7.137   6.540   7.459  1.4728  1.9465  1.7009
  767TIP3    H223937   7.166   6.438   7.567  0.7329  0.5033  0.5506
  768TIP3   OH223938   2.990   2.177   2.013 -0.3731  0.7168 -0.7937
  768TIP3    H123939   3.041   2.217   1.943  0.6318  1.2141  0.2090
  768TIP3    H223940   3.022   2.087   2.017  0.3904  1.0043 -0.2233
  769TIP3   OH223941   6.933   6.150   7.944 -0.9422  0.9958 -0.7936
  769TIP3    H123942   6.980   6.067   7.934  0.6178  1.4476  2.2232
  769TIP3    H223943   6.968   6.206   7.875 -0.3702 -0.1321 -1.4294
  770TIP3   OH223944   5.208   7.027   7.431  0.1459  0.3072  0.1752
  770TIP3    H123945   5.274   6.962   7.456 -0.8133 -0.7160  0.0492
  770TIP3    H223946   5.124   6.984   7.448 -0.5160  2.4324  2.5367
  771TIP3   OH223947   2.154   1.866   6.905 -0.6828 -0.9214  0.3971
  771TIP3    H123948   2.089   1.825   6.848  1.1596 -2.2766 -0.7657
  771TIP3    H223949   2.176   1.799   6.970 -0.8256 -0.2805  1.1171
  772TIP3   OH223950   5.544   6.593   8.058 -0.1219  0.0006  0.0859
  772TIP3    H123951   5.564   6.521   8.118 -0.2175  0.9263  1.2416
  772TIP3    H223952   5.505   6.661   8.114  0.0478  0.9831 -0.9766
  773TIP3   OH223953   4.326   2.091   1.202  0.4678 -0.0577  0.2592
  773TIP3    H123954   4.399   2.135   1.159  0.8225 -1.9403 -1.1037
  773TIP3    H223955   4.368   2.032   1.266  0.0911 -0.1917  0.3837
  774TIP3   OH223956   3.265   3.077   6.411 -0.2880 -0.6170  0.1953
  774TIP3    H123957   3.228   3.107   6.494  3.2889 -0.4670  1.8484
  774TIP3    H223958   3.312   3.152   6.377 -1.9309 -0.6069 -2.1723
  775TIP3   OH223959   4.202   1.457   6.476 -0.3382 -0.3037  0.3292
  775TIP3    H123960   4.187   1.362   6.479  0.9771 -0.6899 -3.3017
  775TIP3    H223961   4.295   1.466   6.500 -0.1328 -0.0571 -0.5528
  776TIP3   OH223962   5.222   4.340   0.499 -0.7546 -0.0182  0.0579
  776TIP3    H123963   5.157   4.352   0.568  0.5035  2.4425  0.8740
  776TIP3    H223964   5.293   4.292   0.542  0.0597  1.5761  0.5600
  777TIP3   OH223965   7.340   1.746   6.726 -0.3155  0.3262 -0.4152
  777TIP3    H123966   7.245   1.745   6.724 -0.3735 -2.3916  1.7992
  777TIP3    H223967   7.364   1.836   6.703 -3.3900  1.0539 -0.8784
  778TIP3   OH223968   4.882   1.251   1.348 -0.1893  0.6584  0.4085
  778TIP3    H123969   4.976   1.270   1.352 -0.0470 -0.4665  3.1929
  778TIP3    H223970   4.850   1.271   1.436 -2.1953 -0.8975  0.0607
  779TIP3   OH223971   6.236   4.824   6.983 -0.4586 -0.0549 -0.1951
  779TIP3    H123972   6.260   4.916   6.998  1.9542 -0.7156  0.2544
  779TIP3    H223973   6.154   4.813   7.030 -0.8327  1.9008 -0.3338
  780TIP3   OH223974   4.054   6.930   6.889 -0.2622  0.4440 -0.1220
  780TIP3    H123975   4.055   6.998   6.956 -1.3703 -0.9030  1.2924
  780TIP3    H223976   3.972   6.883   6.904 -0.1184 -0.4001 -1.8944
  781TIP3   OH223977   5.634   3.377   7.220 -0.1197  0.4521  0.0271
  781TIP3    H123978   5.554   3.331   7.196 -0.0109 -0.3118  1.0985
  781TIP3    H223979   5.612   3.423   7.302  0.3375  0.7717 -0.0234
  782TIP3   OH223980   3.207   7.038   7.814 -0.4031 -0.1950 -0.1454
  782TIP3    H123981   3.158   7.116   7.788  0.4683  1.1892  2.1737
  782TIP3    H223982   3.290   7.045   7.768  0.1921  0.9658  1.0848
  783TIP3   OH223983   4.497   1.228   7.755  0.1460  0.3785  0.0665
  783TIP3    H123984   4.531   1.225   7.666 -2.5510  1.5533 -1.0696
  783TIP3    H223985   4.417   1.175   7.751 -1.0135  2.0055  1.3226
  784TIP3   OH223986   2.805   1.999   7.876  0.2389  0.2550  0.1814
  784TIP3    H123987   2.868   2.015   7.806  0.8262 -0.2886  0.5849
  784TIP3    H223988   2.771   1.911   7.859  0.1072  0.2684  0.3727
  785TIP3   OH223989   4.921   0.805   8.207  0.4858 -0.4574 -0.1638
  785TIP3    H123990   4.943   0.800   8.300 -0.7957 -1.8673  0.0744
  785TIP3    H223991   4.965   0.730   8.167  1.4758  0.4493 -0.8017
  786TIP3   OH223992   7.059   3.149   7.174 -0.2437 -0.5701  0.5927
  786TIP3    H123993   7.065   3.233   7.220 -2.2605  0.0915 -0.2857
  786TIP3    H223994   7.140   3.144   7.123  2.1296 -1.4211  4.2578
  787TIP3   OH223995   4.639   0.916   0.287  0.2474  0.0043 -0.2492
  787TIP3    H123996   4.667   0.976   0.217 -0.2115  0.0598 -0.3905
  787TIP3    H223997   4.550   0.943   0.307  1.2666  1.6617  2.1858
  788TIP3   OH223998   4.760   1.654   6.561 -0.5663  0.3854 -0.6974
  788TIP3    H123999   4.683   1.710   6.570 -1.7988 -0.6960 -3.5546
  788TIP3    H224000   4.785   1.663   6.469  0.9250 -1.5172 -0.5090
  789TIP3   OH224001   2.741   6.757   6.775 -0.2581 -0.0814 -0.0245
  789TIP3    H124002   2.796   6.833   6.791 -0.1873 -0.2001  0.3016
  789TIP3    H224003   2.786   6.709   6.705  0.5279 -0.6487  0.8569
  790TIP3   OH224004   4.133   7.138   6.608 -0.3191  0.2148  0.1082
  790TIP3    H124005   4.184   7.059   6.590 -1.5900 -1.0232  1.8117
  790TIP3    H224006   4.103   7.168   6.522  2.8543  0.7097 -0.8915
  791TIP3   OH224007   0.381   6.069   6.663 -0.6650  0.2437  0.5893
  791TIP3    H124008   0.441   6.142   6.651 -1.6311  0.9563  0.0121
  791TIP3    H224009   0.327   6.069   6.584  0.6270 -2.3471 -0.3597
  792TIP3   OH224010   2.674   0.004   7.627 -0.2853 -0.1133 -0.0547
  792TIP3    H124011   2.754   0.056   7.618  0.6568 -1.3033  1.1659
  792TIP3    H224012   2.699  -0.069   7.684 -2.0450 -0.9294 -0.2828
  793TIP3   OH224013   5.849   7.327   6.901  0.0854 -0.0345 -0.4031
  793TIP3    H124014   5.936   7.365   6.891  0.2937 -0.4325 -0.0968
  793TIP3    H224015   5.865   7.234   6.911 -0.3984 -0.1475 -0.6843
  794TIP3   OH224016   6.594   6.991   6.337 -0.8172  0.7206 -0.5081
  794TIP3    H124017   6.649   6.984   6.259 -2.5212  0.2522 -1.7036
  794TIP3    H224018   6.585   7.085   6.352  0.7060  0.7962  0.0058
  795TIP3   OH224019   5.169   6.864   6.923 -0.0898  0.1497  0.4270
  795TIP3    H124020   5.120   6.818   6.855 -0.2208  1.2004 -0.1964
  795TIP3    H224021   5.174   6.955   6.892 -0.1262  0.6336  1.7997
  796TIP3   OH224022   6.531   5.439   6.547 -0.4989  0.6510 -0.1404
  796TIP3    H124023   6.587   5.508   6.510  0.8642  0.3846  1.3264
  796TIP3    H224024   6.555   5.360   6.499 -2.1464  1.1948 -1.9055
  797TIP3   OH224025   6.525   0.394   7.447  0.8061  0.2510 -0.2724
  797TIP3    H124026   6.441   0.433   7.421  1.6612  1.4293 -1.2715
  797TIP3    H224027   6.500   0.319   7.502 -0.8909  0.8708 -0.1667
  798TIP3   OH224028   4.948   3.529   0.134 -0.3419  0.0925 -0.2379
  798TIP3    H124029   5.003   3.566   0.203  1.3540 -1.9075 -0.4768
  798TIP3    H224030   4.872   3.495   0.181  0.4645 -0.6249  0.5671
  799TIP3   OH224031   5.907   4.731   0.174  0.3305  0.0956  0.1631
  799TIP3    H124032   5.953   4.657   0.213  0.5022  0.5510  0.8120
  799TIP3    H224033   5.827   4.691   0.137  0.6101 -0.4745  0.1620
  800TIP3   OH224034   1.625   7.199   7.673 -0.4886 -0.2295 -0.3386
  800TIP3    H124035   1.540   7.237   7.695  0.1824  1.1722 -0.1008
  800TIP3    H224036   1.655   7.159   7.754  0.3348  1.7327  0.3468
  801TIP3   OH224037   6.276   6.351   6.609 -0.3852 -0.3978  0.1639
  801TIP3    H124038   6.355   6.311   6.572 -0.7039  1.6067 -2.9341
  801TIP3    H224039   6.205   6.321   6.552 -1.3903  0.1447  1.1224
  802TIP3   OH224040   5.173   2.859   7.738  0.4257 -0.7885 -0.1290
  802TIP3    H124041   5.253   2.899   7.773  0.7316 -0.7664 -0.8237
  802TIP3    H224042   5.173   2.885   7.645 -0.8727 -0.0171  0.0747
  803TIP3   OH224043   3.914   0.632   8.050 -0.0490  0.2447  0.4580
  803TIP3    H124044   3.850   0.619   7.980  1.1449 -1.2377 -0.3869
  803TIP3    H224045   3.950   0.718   8.035 -0.0265  0.0579 -0.5615
  804TIP3   OH224046   5.962   3.304   7.585 -0.8591  0.4650 -0.6589
  804TIP3    H124047   5.992   3.395   7.588  2.1456 -0.3233 -3.3609
  804TIP3    H224048   6.015   3.259   7.651  0.0641  0.0837 -1.6449
  805TIP3   OH224049   5.997   1.983   5.797 -0.7682 -0.1518 -0.2661
  805TIP3    H124050   6.063   2.025   5.742 -0.7364  0.3389  0.1539
  805TIP3    H224051   6.014   1.889   5.787 -0.4696 -0.0520 -0.7282
  806TIP3   OH224052   5.715   1.235   0.752 -0.2197  0.2399  0.1288
  806TIP3    H124053   5.676   1.261   0.669  0.0766  1.9741  0.5257
  806TIP3    H224054   5.794   1.186   0.726 -1.8480 -2.0542 -0.6359
  807TIP3   OH224055   2.820   0.518   1.667  0.4314  0.0520 -0.2563
  807TIP3    H124056   2.838   0.461   1.742  0.4001 -0.6367 -0.7726
  807TIP3    H224057   2.887   0.495   1.603  1.6917  2.0225  0.2916
  808TIP3   OH224058   6.927   2.651   1.318 -0.4751 -0.8964  0.3748
  808TIP3    H124059   6.920   2.676   1.410  1.8279 -0.7984  0.5583
  808TIP3    H224060   6.962   2.562   1.320  1.1218 -0.3170 -0.3913
  809TIP3   OH224061   3.070   5.639   0.131  0.2133  0.1716  0.3765
  809TIP3    H124062   3.081   5.592   0.214  0.8424  0.3895  0.4191
  809TIP3    H224063   3.135   5.709   0.135 -2.1609  2.4506  1.3078
  810TIP3   OH224064   3.097   1.896   7.311 -0.0692  0.3108 -0.8368
  810TIP3    H124065   3.096   1.984   7.275  0.9460 -0.5968 -3.1560
  810TIP3    H224066   3.148   1.845   7.249 -0.4296 -1.8731  0.6000
  811TIP3   OH224067   2.754   0.750   0.502  0.5870 -0.5116 -0.3133
  811TIP3    H124068   2.716   0.820   0.448 -0.1080  0.3558  1.2666
  811TIP3    H224069   2.846   0.748   0.476  0.6837  1.1977 -0.1750
  812TIP3   OH224070   3.956   6.427   6.431  0.1053  0.0443  0.7749
  812TIP3    H124071   3.999   6.512   6.420  0.2296 -0.0819  0.2776
  812TIP3    H224072   3.866   6.442   6.403  0.2319 -0.0899  0.2931
  813TIP3   OH224073   5.944   0.546   8.079 -0.0298  0.2788 -0.7121
  813TIP3    H124074   5.901   0.461   8.066  1.2284 -0.3140 -1.0588
  813TIP3    H224075   5.881   0.610   8.046 -1.5775 -0.4015  0.8433
  814TIP3   OH224076   5.860   1.370   6.495 -0.0299 -0.3679 -0.5783
  814TIP3    H124077   5.778   1.413   6.468 -0.5518 -2.5110 -2.5758
  814TIP3    H224078   5.916   1.375   6.418  0.0194 -2.9418 -0.7420
  815TIP3   OH224079   4.873   2.077   0.095 -0.3670  0.4842 -0.4314
  815TIP3    H124080   4.900   1.988   0.071 -0.7211  0.0026  0.8838
  815TIP3    H224081   4.912   2.133   0.028  2.6907 -0.3367  0.5778
  816TIP3   OH224082   5.964   6.134   1.179 -0.3201 -0.1316  0.1681
  816TIP3    H124083   5.991   6.135   1.271 -2.5117  2.4545  0.8517
  816TIP3    H224084   6.015   6.205   1.139  0.7578 -1.3636 -0.7101
  817TIP3   OH224085   0.714   0.354   6.982  0.4027  0.0582 -0.2626
  817TIP3    H124086   0.730   0.359   7.076  1.0973  0.3068 -0.3971
  817TIP3    H224087   0.628   0.395   6.971 -1.8496 -4.1201  0.8398
  818TIP3   OH224088   5.514   0.777   7.667 -0.2131  0.5620  0.0406
  818TIP3    H124089   5.567   0.856   7.680  0.5097  0.5493 -2.4791
  818TIP3    H224090   5.541   0.745   7.581 -0.3378 -2.5704  1.1300
  819TIP3   OH224091   4.117   1.172   7.465  1.1643  0.0647 -0.0498
  819TIP3    H124092   4.111   1.259   7.426  0.3285  0.4123  0.8166
  819TIP3    H224093   4.076   1.113   7.401 -2.5091  0.9844  1.3237
  820TIP3   OH224094   7.031   1.579   6.993  0.6156 -0.4677  0.3763
  820TIP3    H124095   7.042   1.651   6.931  2.0102 -1.3018 -0.3747
  820TIP3    H224096   7.094   1.513   6.965  0.7516 -1.1739  2.2493
  821TIP3   OH224097   1.689   0.677   7.150 -0.0879 -0.4805 -0.2969
  821TIP3    H124098   1.752   0.649   7.216 -0.8582 -1.1650  0.1569
  821TIP3    H224099   1.631   0.738   7.196  0.8151  0.9000 -0.9603
  822TIP3   OH224100   5.317   6.450   6.800  0.4067 -0.5700 -0.1786
  822TIP3    H124101   5.381   6.476   6.866  0.5554 -2.3295  0.3765
  822TIP3    H224102   5.359   6.470   6.716  0.8151  0.2582  0.2150
  823TIP3   OH224103   0.477   0.327   6.692 -0.2847 -0.3998 -0.3845
  823TIP3    H124104   0.492   0.235   6.673 -1.7523 -0.7248  0.0058
  823TIP3    H224105   0.383   0.335   6.705 -0.2121  1.2062 -0.6606
  824TIP3   OH224106   3.773   1.225   7.231 -0.6500 -0.8716 -0.5735
  824TIP3    H124107   3.798   1.290   7.165 -0.5905  1.0699  1.3106
  824TIP3    H224108   3.686   1.196   7.204 -0.3217 -0.6782 -1.9107
  825TIP3   OH224109   2.497   0.252   7.923 -0.1082 -0.1294 -0.0530
  825TIP3    H124110   2.404   0.239   7.944 -0.3188  1.2074 -0.1258
  825TIP3    H224111   2.497   0.271   7.829  0.2455 -0.1704 -0.0603
  826TIP3   OH224112   5.347   1.117   6.495 -0.1861 -0.1843 -0.2705
  826TIP3    H124113   5.260   1.122   6.454 -0.5207  0.4404  0.5086
  826TIP3    H224114   5.381   1.032   6.466 -0.3954  0.2468 -1.8777
  827TIP3   OH224115   1.861   0.370   7.707  0.0437  0.7765  0.5181
  827TIP3    H124116   1.938   0.404   7.751  1.2067 -0.3784 -0.5834
  827TIP3    H224117   1.859   0.277   7.731  0.5716  0.1774 -1.6380
  828TIP3   OH224118   3.118   6.478   8.372 -0.3420  0.0840  0.0461
  828TIP3    H124119   3.032   6.505   8.339 -0.2374  1.5478  0.9374
  828TIP3    H224120   3.160   6.435   8.297 -3.4184 -4.5208  0.7016
  829TIP3   OH224121   5.436   0.660   0.343  0.1544 -0.4192 -0.8853
  829TIP3    H124122   5.376   0.687   0.413 -0.8668  0.5992 -2.1500
  829TIP3    H224123   5.518   0.642   0.389 -0.3926  0.5917  0.5414
  830TIP3   OH224124   5.621   0.664   0.815  0.1686  0.3084  0.1760
  830TIP3    H124125   5.628   0.578   0.857 -3.7372  0.7126  1.9368
  830TIP3    H224126   5.686   0.718   0.859  0.5617 -0.9673  1.1907
  831TIP3   OH224127   3.793   3.437   6.514  0.0194  0.0239 -0.3412
  831TIP3    H124128   3.712   3.465   6.556 -0.1422  1.0459 -1.3126
  831TIP3    H224129   3.778   3.345   6.492 -0.3760 -0.1555  0.6662
  832TIP3   OH224130   5.476   0.914   6.094  0.5437  0.3078  0.3240
  832TIP3    H124131   5.405   0.960   6.139  0.6530  0.1198  0.6884
  832TIP3    H224132   5.446   0.908   6.003  0.4278  0.8972  0.3184
  833TIP3   OH224133   3.824   5.815   7.242 -0.0651 -0.0535 -0.2926
  833TIP3    H124134   3.834   5.878   7.313 -0.6966  0.4058 -0.6080
  833TIP3    H224135   3.815   5.731   7.286 -0.7715  0.2680  0.1830
  834TIP3   OH224136   5.387   2.017   6.502 -0.4265 -0.1536  0.5678
  834TIP3    H124137   5.466   1.978   6.465 -1.1588 -0.8637 -0.2602
  834TIP3    H224138   5.384   1.983   6.591  1.4017  1.6546  1.3664
  835TIP3   OH224139   5.550   1.466   6.422 -0.4156  0.6257 -0.5286
  835TIP3    H124140   5.578   1.555   6.402 -1.1143  0.7731 -0.8637
  835TIP3    H224141   5.462   1.460   6.386 -0.3954 -0.1820 -0.4536
  836TIP3   OH224142   6.158   0.080   7.860  0.6523 -0.3886  0.1201
  836TIP3    H124143   6.191   0.042   7.779 -0.7629 -1.6005  0.0902
  836TIP3    H224144   6.071   0.042   7.871  0.0026  1.3159  1.1603
  837TIP3   OH224145   3.963   7.336   1.135 -0.1898 -0.6231  0.3170
  837TIP3    H124146   4.052   7.301   1.143  0.3186  0.8098  1.1241
  837TIP3    H224147   3.965   7.389   1.056  0.6575  2.1336  2.1017
  838TIP3   OH224148   3.609   6.979   0.111 -0.2610 -0.5873 -0.2272
  838TIP3    H124149   3.612   6.948   0.202 -1.6474 -1.5181 -0.4940
  838TIP3    H224150   3.551   7.055   0.113  0.5717  0.0577 -0.1539
  839TIP3   OH224151   4.438   0.662   6.572 -0.4341 -0.0020 -0.1126
  839TIP3    H124152   4.386   0.705   6.641 -1.7955  1.3051 -1.9191
  839TIP3    H224153   4.489   0.733   6.533  2.7815 -1.2682  1.6293
  840TIP3   OH224154   5.226   1.339   6.137  0.2919 -0.3791  0.2142
  840TIP3    H124155   5.219   1.246   6.112  0.3067 -0.3163 -0.0281
  840TIP3    H224156   5.275   1.379   6.065 -2.0631  0.3412 -1.0158
  841TIP3   OH224157   2.098   6.772   7.559 -0.2569  0.1539  0.2069
  841TIP3    H124158   2.177   6.738   7.602 -1.3597 -1.9669  0.6234
  841TIP3    H224159   2.043   6.802   7.632  0.3573  2.0835 -0.1107
  842TIP3   OH224160   4.884   1.898   7.174  0.4602 -0.2592  0.9955
  842TIP3    H124161   4.870   1.959   7.102  0.4761 -0.9041  0.4503
  842TIP3    H224162   4.970   1.859   7.156  0.2443 -0.7804  1.1042
  843TIP3   OH224163   5.123   5.896   7.933 -0.2074 -0.1664 -0.2670
  843TIP3    H124164   5.118   5.856   8.020 -2.4045  1.1430  0.2543
  843TIP3    H224165   5.206   5.943   7.933  0.6557 -1.6516  0.4597
  844TIP3   OH224166   5.523   7.195   6.717  0.1470  0.6402 -0.2090
  844TIP3    H124167   5.604   7.143   6.717 -1.2352 -1.6620  1.7842
  844TIP3    H224168   5.533   7.255   6.790  0.3405  0.8301 -0.3913
  845TIP3   OH224169   6.979   0.039   7.233 -0.6205 -0.2840  0.8827
  845TIP3    H124170   6.976  -0.038   7.290 -0.4678 -0.1730  1.0413
  845TIP3    H224171   6.990   0.113   7.293 -0.3501 -0.1753  0.7016
  846TIP3   OH224172   1.377   6.141   8.085  0.1114 -0.4390  0.2424
  846TIP3    H124173   1.411   6.102   8.166  0.0072  1.3068  1.1552
  846TIP3    H224174   1.304   6.195   8.113  1.3291  1.7755 -0.7460
  847TIP3   OH224175   5.006   6.188   7.306 -0.2029 -0.2716  0.0476
  847TIP3    H124176   4.947   6.246   7.353 -0.6207 -1.2139  0.6883
  847TIP3    H224177   4.952   6.148   7.238  0.4329  1.2151 -1.3964
  848TIP3   OH224178   0.224   7.173   6.425 -0.5097  0.4930 -0.1352
  848TIP3    H124179   0.309   7.214   6.406  0.1710 -0.4821  0.7777
  848TIP3    H224180   0.175   7.241   6.471 -0.2714  1.1109 -0.7921
  849TIP3   OH224181   3.313   6.149   0.275 -0.2217  0.4357 -0.0572
  849TIP3    H124182   3.299   6.235   0.237  2.0885  0.6985 -0.4045
  849TIP3    H224183   3.407   6.134   0.266 -0.5918 -2.1302 -0.0143
  850TIP3   OH224184   5.477   1.607   0.311  0.2415 -0.0102  0.3306
  850TIP3    H124185   5.465   1.559   0.229 -0.0800  0.4939  0.0772
  850TIP3    H224186   5.556   1.659   0.297 -0.8094  1.4605 -0.3531
  851TIP3   OH224187   3.702   3.357   1.040 -0.0561  0.4363 -0.0400
  851TIP3    H124188   3.652   3.438   1.051 -2.5057 -0.5838 -2.9247
  851TIP3    H224189   3.750   3.371   0.958 -0.4297 -0.9633 -0.5068
  852TIP3   OH224190   5.507   0.903   6.440 -0.2008  0.3801  0.0191
  852TIP3    H124191   5.589   0.934   6.401 -0.6312  1.5214 -0.0238
  852TIP3    H224192   5.527   0.818   6.477  0.8252  0.3472 -0.6219
  853TIP3   OH224193   5.607   1.933   2.089 -0.0402 -0.1498  0.2978
  853TIP3    H124194   5.695   1.944   2.053 -0.2774 -0.9097 -0.5245
  853TIP3    H224195   5.598   1.839   2.104 -1.0303 -0.1844 -0.4586
  854TIP3   OH224196   2.933   6.600   0.815 -0.0878 -0.1343  0.4077
  854TIP3    H124197   2.877   6.524   0.833 -0.5901  0.1755  0.1523
  854TIP3    H224198   2.959   6.631   0.902  0.6562 -0.9972  0.4986
  855TIP3   OH224199   5.476   3.524   0.222  0.1698 -0.9119  0.8241
  855TIP3    H124200   5.556   3.536   0.273  2.5560 -3.4477 -2.1491
  855TIP3    H224201   5.471   3.430   0.205 -2.1717 -0.5213 -0.9980
  856TIP3   OH224202   0.887   5.931   6.346  0.2266 -0.3600 -0.6342
  856TIP3    H124203   0.816   5.891   6.396 -0.3229 -0.5417 -1.5552
  856TIP3    H224204   0.856   5.933   6.256  0.1745  2.3313 -0.6021
  857TIP3   OH224205   5.402   6.213   7.300  0.0178  0.1395  0.3928
  857TIP3    H124206   5.352   6.289   7.267 -0.3444  0.2807  1.2622
  857TIP3    H224207   5.421   6.235   7.391  0.7376 -0.4024  0.3736
  858TIP3   OH224208   5.704   2.639   8.271 -0.0680 -0.2221  0.1864
  858TIP3    H124209   5.767   2.700   8.232  0.8822 -0.0601  1.9436
  858TIP3    H224210   5.759   2.573   8.314 -1.1048 -1.2085  0.0130
  859TIP3   OH224211   7.266   7.335   7.954 -0.4607  0.0428  0.0058
  859TIP3    H124212   7.358   7.336   7.926 -1.0602 -2.3261 -2.2315
  859TIP3    H224213   7.267   7.294   8.040  0.5022 -0.8120 -0.3959
  860TIP3   OH224214   4.828   5.673   8.124 -0.2446  0.2780  0.0224
  860TIP3    H124215   4.919   5.686   8.149 -0.5338  0.4938  0.9910
  860TIP3    H224216   4.779   5.731   8.182 -1.0664 -0.4615  0.0783
  861TIP3   OH224217   3.996   0.397   8.165  0.1124 -0.0737  0.0470
  861TIP3    H124218   3.984   0.405   8.260  2.6911 -0.1406  0.4184
  861TIP3    H224219   3.974   0.483   8.131 -1.7971 -0.3354  0.5936
  862TIP3   OH224220   2.705   3.131   6.411  0.0447 -0.4545 -0.2276
  862TIP3    H124221   2.786   3.164   6.450 -1.0233  2.2550 -0.2302
  862TIP3    H224222   2.723   3.127   6.317  0.4188 -0.5483 -0.1525
  863TIP3   OH224223   3.082   4.361   8.437 -0.2355 -0.2587  0.2930
  863TIP3    H124224   3.078   4.319   8.523 -2.5547 -0.2504  0.2243
  863TIP3    H224225   2.991   4.363   8.408  0.6351 -1.2197 -2.6201
  864TIP3   OH224226   4.250   0.700   6.965  0.1579 -0.7062 -0.2519
  864TIP3    H124227   4.225   0.680   6.875  1.6014  1.9102 -1.2886
  864TIP3    H224228   4.197   0.776   6.989 -0.4798 -1.5926  1.2717
  865TIP3   OH224229   3.469   6.969   6.649  0.1087  0.0695  0.6951
  865TIP3    H124230   3.414   7.046   6.657 -0.7753 -0.3948 -0.8159
  865TIP3    H224231   3.454   6.920   6.730 -1.6915 -0.0489  0.2965
  866TIP3   OH224232   0.006   6.554   0.403 -0.6091  0.1865 -0.3795
  866TIP3    H124233  -0.073   6.585   0.359  0.4157  2.2266 -0.8526
  866TIP3    H224234   0.041   6.485   0.347 -2.7186 -1.6443  0.4852
  867TIP3   OH224235   0.166   5.325   0.823 -0.2700  0.4074  0.2792
  867TIP3    H124236   0.192   5.255   0.883  1.1823  1.0012  0.3536
  867TIP3    H224237   0.083   5.358   0.859  0.5625  0.7305  1.9319
  868TIP3   OH224238   4.022   0.277   6.057  0.3073 -0.3367  0.6844
  868TIP3    H124239   3.983   0.289   6.143 -2.7265 -0.6776 -0.5760
  868TIP3    H224240   3.966   0.326   5.997  1.5919 -1.1576 -1.2892
  869TIP3   OH224241   3.561   1.240   6.321 -0.0757 -0.0752 -0.1194
  869TIP3    H124242   3.644   1.253   6.276  0.9244  0.0913  1.7140
  869TIP3    H224243   3.495   1.270   6.259  1.2997  0.6964 -1.2330
  870TIP3   OH224244   3.186   6.758   7.130  0.2305  0.0983  0.2635
  870TIP3    H124245   3.102   6.718   7.106 -0.0413  0.6784  0.2249
  870TIP3    H224246   3.252   6.701   7.091 -0.1410 -0.5145  0.5271
  871TIP3   OH224247   5.313   0.547   7.313 -0.3162  0.0236 -0.0968
  871TIP3    H124248   5.316   0.582   7.224  1.2697 -1.9007 -0.8392
  871TIP3    H224249   5.402   0.517   7.330 -1.4862 -3.2119  0.6497
  872TIP3   OH224250   1.171   7.231   7.366 -0.1435  0.1486 -0.0523
  872TIP3    H124251   1.174   7.174   7.443  1.0348  0.1714 -0.0817
  872TIP3    H224252   1.109   7.188   7.307 -0.4448 -0.2810  0.5744
  873TIP3   OH224253   3.887   2.254   8.166  0.3702  0.3045 -0.0275
  873TIP3    H124254   3.858   2.316   8.099 -1.0476 -0.8318 -0.4753
  873TIP3    H224255   3.873   2.300   8.249  3.1124  2.1226 -0.5161
  874TIP3   OH224256   6.171   1.021   6.286 -0.0467  0.6987 -0.2596
  874TIP3    H124257   6.262   1.038   6.309 -0.3671  0.7989  1.0068
  874TIP3    H224258   6.172   1.002   6.193  1.2964  0.4935 -0.2051
  875TIP3   OH224259   5.160   2.768   7.292  0.6026  0.2571  0.2118
  875TIP3    H124260   5.092   2.793   7.354  0.4569 -1.0480  0.6001
  875TIP3    H224261   5.240   2.808   7.326  0.3170  0.4941  0.6112
  876TIP3   OH224262   2.694   5.947   7.624 -0.7970  0.0890 -0.0288
  876TIP3    H124263   2.651   6.010   7.566 -0.3505  0.4173 -0.0027
  876TIP3    H224264   2.726   5.879   7.565  0.4746  0.8788 -0.2882
  877TIP3   OH224265   6.917   6.120   1.732 -0.2836 -0.0598  0.0279
  877TIP3    H124266   6.826   6.106   1.761 -0.2979  0.0429  0.0311
  877TIP3    H224267   6.909   6.151   1.642 -0.2422 -0.2958 -0.0574
  878TIP3   OH224268   5.597   4.959   8.156  0.0166 -0.6139 -0.7317
  878TIP3    H124269   5.543   4.953   8.078 -2.5144 -2.7601  1.0713
  878TIP3    H224270   5.643   4.875   8.160 -0.8564 -1.0346  0.7489
  879TIP3   OH224271   3.773   1.492   1.266 -0.2112  0.1778  0.1904
  879TIP3    H124272   3.691   1.502   1.314  0.1895  0.9166  0.7247
  879TIP3    H224273   3.772   1.562   1.201 -0.3104 -0.2312 -0.2559
  880TIP3   OH224274   5.890   1.066   6.332 -0.0286 -0.0058 -0.3005
  880TIP3    H124275   5.854   1.128   6.270  0.1515  0.0463 -0.3522
  880TIP3    H224276   5.977   1.045   6.298 -0.1344 -0.3765 -0.3496
  881TIP3   OH224277   0.015   7.050   0.549  0.6330 -0.0256 -0.0783
  881TIP3    H124278   0.028   6.956   0.561  0.1023 -0.0510  0.3069
  881TIP3    H224279  -0.016   7.081   0.634  2.8916  0.8720  0.4535
  882TIP3   OH224280   6.183   3.760   7.725 -0.1798  0.3329  0.3961
  882TIP3    H124281   6.161   3.814   7.801 -1.5315  0.8000 -0.3294
  882TIP3    H224282   6.220   3.821   7.662 -1.3462  0.3509 -0.2748
  883TIP3   OH224283   0.221   0.811   1.380 -0.5558  0.1772 -0.1235
  883TIP3    H124284   0.264   0.895   1.396 -0.7159 -0.2003  2.6275
  883TIP3    H224285   0.128   0.829   1.386 -0.6523  0.0897 -1.2043
  884TIP3   OH224286   7.076   0.207   1.744  0.1411 -0.1397  0.7620
  884TIP3    H124287   7.157   0.258   1.743 -0.5567  0.9898 -0.9812
  884TIP3    H224288   7.072   0.169   1.832  1.8131  0.9982  1.3410
  885TIP3   OH224289   0.332   6.565   0.230  0.3793 -0.5820  0.0144
  885TIP3    H124290   0.257   6.589   0.175  0.6338 -0.7271 -0.4014
  885TIP3    H224291   0.342   6.638   0.291  1.1113  0.3526 -1.2009
  886TIP3   OH224292   6.056   2.696   7.447  0.0623  0.7137 -0.5172
  886TIP3    H124293   6.045   2.623   7.385 -0.4875  1.1028 -0.8840
  886TIP3    H224294   6.095   2.766   7.395  0.9754  0.5396 -0.0623
  887TIP3   OH224295   5.469   2.568   0.988 -0.2181 -0.0360  0.5359
  887TIP3    H124296   5.437   2.588   0.900  0.2864  0.9382  0.5665
  887TIP3    H224297   5.433   2.638   1.043  0.6257  0.1619  0.8514
  888TIP3   OH224298   7.332   1.168   6.711  0.0144 -0.6074 -0.6918
  888TIP3    H124299   7.390   1.110   6.759  0.0925  0.2359  0.2627
  888TIP3    H224300   7.382   1.194   6.633  0.1977 -1.3361 -0.8219
  889TIP3   OH224301   0.942   6.706   0.009 -0.2612  0.1308 -0.1770
  889TIP3    H124302   0.952   6.710   0.104  0.8633  2.1283 -0.3618
  889TIP3    H224303   0.912   6.616  -0.008  1.4672 -0.8742  1.8832
  890TIP3   OH224304   5.723   0.680   5.340 -0.0677  0.3118 -0.2692
  890TIP3    H124305   5.686   0.700   5.426  0.1929 -1.0309  0.1713
  890TIP3    H224306   5.647   0.667   5.284 -0.2602  3.5326 -0.8468
  891TIP3   OH224307   6.775   0.403   7.367 -0.8184 -0.2031 -0.5933
  891TIP3    H124308   6.683   0.388   7.385 -0.7094  0.0041  0.2016
  891TIP3    H224309   6.819   0.323   7.395 -0.8896 -0.8297 -2.2307
  892TIP3   OH224310   6.205   4.157   7.373  0.2646 -0.0386  0.1053
  892TIP3    H124311   6.114   4.161   7.344 -0.3276 -0.0113  1.8914
  892TIP3    H224312   6.251   4.218   7.316 -0.7241 -0.5167 -1.2175
  893TIP3   OH224313   0.452   0.748   7.126 -0.0007 -0.0153 -0.0358
  893TIP3    H124314   0.361   0.744   7.095 -0.2456 -0.0656  0.6786
  893TIP3    H224315   0.482   0.658   7.124 -0.6822 -0.3082  1.8083
  894TIP3   OH224316   0.631   6.352   7.877 -0.4824 -0.0255  0.3137
  894TIP3    H124317   0.570   6.321   7.944  2.1357  1.0354  3.3084
  894TIP3    H224318   0.673   6.272   7.846 -2.3803 -0.6221 -0.7989
  895TIP3   OH224319   6.703   0.129   8.095 -0.3291  0.4174 -0.2100
  895TIP3    H124320   6.624   0.079   8.117 -0.6952  1.1714  0.1943
  895TIP3    H224321   6.719   0.109   8.003  0.2797 -1.4691  0.2888
  896TIP3   OH224322   4.175   6.236   7.970 -0.6318  0.3679 -0.0108
  896TIP3    H124323   4.259   6.195   7.986 -0.7019  0.1532 -0.1989
  896TIP3    H224324   4.110   6.172   8.000 -0.7823 -0.2865 -1.7369
  897TIP3   OH224325   0.129   6.752   7.753  0.0192 -0.2217 -0.1759
  897TIP3    H124326   0.081   6.674   7.781  2.2387 -1.7878 -0.5793
  897TIP3    H224327   0.126   6.811   7.828 -1.2467 -0.8949  0.3097
  898TIP3   OH224328   5.718   0.104   7.136  0.3061  0.7293  0.0849
  898TIP3    H124329   5.760   0.068   7.059  1.1719 -1.0196  1.3500
  898TIP3    H224330   5.648   0.159   7.101 -0.7086 -1.7191 -1.9189
  899TIP3   OH224331   3.903   1.290   6.501 -0.1985 -0.1807  0.1862
  899TIP3    H124332   3.833   1.235   6.466 -0.1304  0.4498 -0.9781
  899TIP3    H224333   3.981   1.235   6.497 -0.6972 -1.0279  1.8835
  900TIP3   OH224334   5.497   1.872   0.125  0.0026  0.0739  0.2044
  900TIP3    H124335   5.571   1.818   0.154 -1.4459 -1.7748  0.5532
  900TIP3    H224336   5.530   1.916   0.047  1.6137 -0.4136  0.5791
  901TIP3   OH224337   0.060   6.428   6.163  0.3183 -0.5424 -0.0619
  901TIP3    H124338   0.022   6.350   6.204  0.3984 -1.3515 -1.4720
  901TIP3    H224339   0.039   6.500   6.222 -3.0635 -1.0333 -0.5727
  902TIP3   OH224340   6.401   2.823   6.855  0.6059  0.1904  0.4238
  902TIP3    H124341   6.312   2.852   6.838  1.2190  2.2585  0.7029
  902TIP3    H224342   6.450   2.903   6.875  2.7961 -0.7782 -0.9132
  903TIP3   OH224343   0.538   5.341   7.654  0.0183 -0.0326 -0.0542
  903TIP3    H124344   0.476   5.268   7.665  0.0535  0.0332  0.5950
  903TIP3    H224345   0.483   5.416   7.634  0.0567 -0.4650 -1.8924
  904TIP3   OH224346   7.333   3.069   6.600  0.0507  0.5324  0.6945
  904TIP3    H124347   7.351   3.112   6.684 -0.3727  0.8546  0.6243
  904TIP3    H224348   7.376   3.125   6.535  1.5160 -0.4410  0.8102
  905TIP3   OH224349   0.651   0.994   6.331 -0.1446  0.4601  0.1669
  905TIP3    H124350   0.719   1.003   6.398  1.8830  1.2939 -1.9261
  905TIP3    H224351   0.698   1.008   6.248 -2.4010 -1.5423 -1.4856
  906TIP3   OH224352   4.369   2.100   8.429 -0.1398 -0.3498 -0.0405
  906TIP3    H124353   4.316   2.094   8.349 -0.3378 -0.2643  0.0833
  906TIP3    H224354   4.305   2.094   8.500 -0.3050  2.3708  0.1101
  907TIP3   OH224355   5.111   0.977   8.077 -0.3588  0.1382  0.2380
  907TIP3    H124356   5.036   0.924   8.103 -2.0886  2.5923  0.4088
  907TIP3    H224357   5.084   1.018   7.995  1.5315 -0.4020 -0.6677
  908TIP3   OH224358   6.516   1.763   6.681 -0.2782  0.5375 -0.1625
  908TIP3    H124359   6.605   1.755   6.716 -0.3927 -1.4723 -0.3104
  908TIP3    H224360   6.490   1.674   6.661 -1.6671  1.2981 -1.8297
  909TIP3   OH224361   1.366   6.611   6.882  0.1761 -0.0469  0.1560
  909TIP3    H124362   1.390   6.684   6.939 -0.0832  0.6362 -0.6006
  909TIP3    H224363   1.365   6.649   6.794  2.6038 -1.5441 -0.5733
  910TIP3   OH224364   6.205   0.229   7.367  0.1799 -0.2738  0.4016
  910TIP3    H124365   6.112   0.242   7.385  0.5230  2.5198  0.3688
  910TIP3    H224366   6.235   0.170   7.436 -0.9829  1.2688  2.2767
  911TIP3   OH224367   0.704   5.668   7.030  0.3009  0.2996 -0.1726
  911TIP3    H124368   0.725   5.756   6.997  1.5548 -0.5569 -1.6942
  911TIP3    H224369   0.788   5.633   7.060  0.2759 -1.3467 -1.9396
  912TIP3   OH224370   6.716   2.510   6.594 -0.6119  0.3228 -0.1408
  912TIP3    H124371   6.799   2.491   6.638 -1.4343  0.7316  1.6091
  912TIP3    H224372   6.652   2.456   6.639 -1.9611  2.8651  1.0996
  913TIP3   OH224373   6.398   1.507   7.046  0.3031 -0.5196  0.0136
  913TIP3    H124374   6.336   1.447   7.088  0.0615  0.1982  0.6917
  913TIP3    H224375   6.462   1.450   7.004  0.3319 -1.2549  1.0444
  914TIP3   OH224376   4.197   6.942   0.124 -0.3533  0.1591  0.2292
  914TIP3    H124377   4.285   6.975   0.139 -0.3964 -0.2100  1.3664
  914TIP3    H224378   4.173   6.974   0.037 -0.1126  2.4929  0.9935
  915TIP3   OH224379   7.267   7.050   1.074 -0.2918 -0.7531 -0.2604
  915TIP3    H124380   7.257   7.009   1.160 -3.6109  0.5391  0.0687
  915TIP3    H224381   7.272   7.144   1.093 -1.0128 -0.4612 -1.4481
  916TIP3   OH224382   6.343   0.354   6.457 -0.1823  0.1434  0.2756
  916TIP3    H124383   6.369   0.439   6.421  0.9528 -0.6209 -0.7687
  916TIP3    H224384   6.400   0.291   6.412 -0.8435 -1.1421  1.2152
  917TIP3   OH224385   6.422   3.410   6.271  0.0240  0.2059 -0.1425
  917TIP3    H124386   6.333   3.377   6.286 -0.6332  1.2320 -1.6489
  917TIP3    H224387   6.476   3.359   6.331 -1.5601 -0.5076  0.7369
  918TIP3   OH224388   5.139   0.105   6.197  0.2412 -0.3608  0.1116
  918TIP3    H124389   5.220   0.117   6.146 -0.9980  0.6508 -1.6924
  918TIP3    H224390   5.169   0.088   6.286  2.4380  1.6099 -0.2025
  919TIP3   OH224391   5.626   0.333   0.184 -0.5811  0.0567  0.1573
  919TIP3    H124392   5.601   0.311   0.094 -0.5320 -0.9428  0.3819
  919TIP3    H224393   5.571   0.408   0.207 -0.7421  0.1854 -0.6307
  920TIP3   OH224394   7.242   1.596   6.430 -0.5569 -0.8885  0.3736
  920TIP3    H124395   7.200   1.654   6.492 -1.2833 -2.2412  1.1708
  920TIP3    H224396   7.174   1.576   6.365  0.3439  0.9428 -1.1985
  921TIP3   OH224397   3.946   4.236   7.253  0.6666 -0.0776  0.2225
  921TIP3    H124398   3.970   4.217   7.162  3.0213 -0.2693  0.8586
  921TIP3    H224399   3.900   4.157   7.283  0.7728 -0.4134 -0.4857
  922TIP3   OH224400   1.278   0.164   1.248  0.1038  0.0044  0.5244
  922TIP3    H124401   1.340   0.122   1.308  0.7357  0.7183  0.3903
  922TIP3    H224402   1.318   0.249   1.229 -0.3737  0.0186 -0.4504
  923TIP3   OH224403   5.881   0.434   7.433 -0.3958 -0.0461  0.7424
  923TIP3    H124404   5.890   0.342   7.410 -0.2969  0.2133 -0.2897
  923TIP3    H224405   5.847   0.476   7.354 -1.3692  0.6435  1.5109
  924TIP3   OH224406   5.674   2.295   6.472  0.0822 -0.1438 -0.0583
  924TIP3    H124407   5.758   2.339   6.464  0.9636 -1.7934 -0.1152
  924TIP3    H224408   5.676   2.227   6.404 -2.1535  1.1158 -1.4527
  925TIP3   OH224409   0.798   2.228   6.121 -0.2204 -0.3759 -0.1620
  925TIP3    H124410   0.777   2.310   6.076  0.9349 -0.0456 -0.1185
  925TIP3    H224411   0.722   2.212   6.177 -0.5083  0.6105 -0.2533
  926TIP3   OH224412   5.672   5.204   7.932 -0.5647  0.7423  0.2657
  926TIP3    H124413   5.726   5.204   7.853 -0.2144  1.4069  0.4971
  926TIP3    H224414   5.675   5.295   7.963 -0.5430  0.4474  1.1425
  927TIP3   OH224415   6.109   1.354   7.315 -0.3081  0.6689  0.1130
  927TIP3    H124416   6.108   1.449   7.327  0.6452  0.7604 -0.4625
  927TIP3    H224417   6.040   1.338   7.250 -0.4134  0.9838  0.1456
  928TIP3   OH224418   0.599   5.729   8.480  0.3137 -0.2382 -0.0135
  928TIP3    H124419   0.576   5.733   8.387  0.6009  1.5510 -0.0231
  928TIP3    H224420   0.619   5.819   8.504  1.6360 -0.8913  1.4424
  929TIP3   OH224421   6.197   6.731   5.903 -0.8101  0.2749  0.5453
  929TIP3    H124422   6.274   6.762   5.951 -0.3601 -0.9222  0.6165
  929TIP3    H224423   6.221   6.644   5.873 -2.7080 -0.7588  1.8878
  930TIP3   OH224424   2.227   0.286   6.192  0.9687  0.1395 -0.8681
  930TIP3    H124425   2.157   0.332   6.238  0.5027  0.0832 -1.5041
  930TIP3    H224426   2.185   0.207   6.157  1.6517 -0.5181 -0.1993
  931TIP3   OH224427   5.762   6.820   6.675 -0.1157  0.6323  0.2027
  931TIP3    H124428   5.747   6.744   6.732  0.2881 -0.6869 -1.4121
  931TIP3    H224429   5.809   6.785   6.599  0.9232  2.6750 -0.1423
  932TIP3   OH224430   5.407   0.063   8.300  0.0725  0.4134 -0.1184
  932TIP3    H124431   5.426   0.090   8.210 -1.4507  2.2984  0.0825
  932TIP3    H224432   5.313   0.045   8.300  0.0602  0.4382  1.1039
  933TIP3   OH224433   4.070   2.502   8.166  0.1652 -0.5942  0.2901
  933TIP3    H124434   3.983   2.542   8.172  0.6110  0.5403 -0.7548
  933TIP3    H224435   4.102   2.501   8.257 -0.0082  1.0719  0.3733
  934TIP3   OH224436   7.178   6.193   6.945  0.4048 -0.4981 -0.0609
  934TIP3    H124437   7.169   6.231   6.858 -0.1880  1.0166  0.6363
  934TIP3    H224438   7.113   6.122   6.947 -0.2743  0.1021 -0.5159
  935TIP3   OH224439   0.051   7.316   7.007  0.6260 -0.0435  0.5306
  935TIP3    H124440   0.052   7.283   6.917  1.1679 -1.8439  1.1753
  935TIP3    H224441  -0.041   7.335   7.025  0.6060  0.9664 -0.6292
  936TIP3   OH224442   3.489   6.384   7.120 -0.7406 -0.3691 -0.3353
  936TIP3    H124443   3.431   6.446   7.076 -1.3206 -1.3290 -0.9468
  936TIP3    H224444   3.435   6.306   7.134 -0.3818 -0.3066  1.5323
  937TIP3   OH224445   1.070   5.645   6.773 -0.2864  0.3564  0.4222
  937TIP3    H124446   1.011   5.580   6.812 -0.1781 -0.3341 -0.5582
  937TIP3    H224447   1.011   5.708   6.732 -0.3603 -0.1205 -0.2157
  938TIP3   OH224448   5.401   0.287   7.130  0.4546 -0.0041  0.3244
  938TIP3    H124449   5.355   0.204   7.134 -0.2547  0.4016  0.5850
  938TIP3    H224450   5.348   0.342   7.072  0.7220  0.3939  0.4510
  939TIP3   OH224451   5.645   0.202   7.523 -0.3394 -0.0648  0.1740
  939TIP3    H124452   5.640   0.106   7.520 -1.3024  0.0361 -3.1122
  939TIP3    H224453   5.739   0.221   7.522 -0.1709 -0.9476 -2.1473
  940TIP3   OH224454   3.832   6.917   7.246 -0.1372 -0.3848  0.1889
  940TIP3    H124455   3.774   6.865   7.190 -1.1477 -1.0417  1.8079
  940TIP3    H224456   3.817   7.007   7.219 -0.3471 -0.7165 -0.8329
  941TIP3   OH224457   6.600   0.251   7.144  0.1246  0.1213 -0.2318
  941TIP3    H124458   6.669   0.290   7.198 -1.0257 -1.1462  2.2456
  941TIP3    H224459   6.629   0.161   7.129 -1.8654 -1.0634  2.5776
  942TIP3   OH224460   0.652   5.443   6.051  0.2017 -0.2317 -0.0729
  942TIP3    H124461   0.581   5.504   6.070  0.4342  0.6249 -1.8366
  942TIP3    H224462   0.729   5.481   6.093  0.0834  0.0306 -0.0926
  943TIP3   OH224463   0.369   6.250   7.197  0.3058  0.4256  0.3258
  943TIP3    H124464   0.283   6.254   7.239 -0.5676  0.4520 -1.4504
  943TIP3    H224465   0.355   6.284   7.109  2.0456  0.0064 -0.1328
  944TIP3   OH224466   6.104   6.316   0.234  0.2055  0.1176 -0.0073
  944TIP3    H124467   6.055   6.234   0.240 -0.0430  0.3992  1.9319
  944TIP3    H224468   6.110   6.348   0.324  1.3990  1.5931 -0.5831
  945TIP3   OH224469   5.827   2.236   7.138  0.3997  0.3592  0.1076
  945TIP3    H124470   5.921   2.235   7.120  0.5707 -0.3821  1.0616
  945TIP3    H224471   5.792   2.302   7.077  1.0616 -1.6721 -2.5369
  946TIP3   OH224472   5.983   2.008   6.661  0.1565  0.1020  1.0416
  946TIP3    H124473   5.887   2.007   6.660  0.1430  0.5285 -1.5063
  946TIP3    H224474   6.005   2.029   6.752 -2.0992 -2.9107  2.3825
  947TIP3   OH224475   5.601   0.486   6.049 -0.3093 -0.1573 -0.3080
  947TIP3    H124476   5.683   0.469   6.003 -0.7216 -5.4492  0.6342
  947TIP3    H224477   5.533   0.474   5.983 -0.5838 -1.2518  0.1694
  948TIP3   OH224478   5.767   1.528   0.772  0.1800  0.0744 -0.0404
  948TIP3    H124479   5.774   1.556   0.681 -1.8884  0.4698 -0.1069
  948TIP3    H224480   5.735   1.438   0.767  1.4262 -0.3912  0.2775
  949TIP3   OH224481   2.618   0.877   7.389 -0.0195  0.3657  0.4401
  949TIP3    H124482   2.653   0.957   7.428  0.5967  0.7588 -0.9063
  949TIP3    H224483   2.568   0.907   7.313  0.1380 -0.5173 -0.0253
  950TIP3   OH224484   0.839   0.723   7.197 -0.1117 -0.4822 -0.0907
  950TIP3    H124485   0.752   0.726   7.238 -0.1799  3.5869 -0.2387
  950TIP3    H224486   0.821   0.718   7.103 -0.1145 -2.2802 -0.0014
  951TIP3   OH224487   5.859   1.945   7.056 -0.8634  0.4923 -0.6350
  951TIP3    H124488   5.768   1.918   7.052 -0.5827 -0.7150  0.9399
  951TIP3    H224489   5.909   1.864   7.059  0.0244  1.0793  3.2530
  952TIP3   OH224490   7.057   7.337   5.872  0.6714  0.3964  0.3357
  952TIP3    H124491   7.046   7.263   5.812 -1.4605  0.7889  0.2064
  952TIP3    H224492   7.144   7.370   5.853  0.1448  0.3623 -2.3868
  953TIP3   OH224493   3.682   1.472   8.069 -0.0598 -0.3066  0.0161
  953TIP3    H124494   3.702   1.510   7.983  1.6093  0.4774  0.7259
  953TIP3    H224495   3.606   1.417   8.053 -0.6397  0.9339 -1.6883
  954TIP3   OH224496   5.306   0.151   7.384  0.2905  0.1667  0.3824
  954TIP3    H124497   5.327   0.100   7.306 -0.1548 -0.8219  0.9109
  954TIP3    H224498   5.373   0.128   7.448  0.8566  1.2361  0.1896
  955TIP3   OH224499   4.948   0.528   1.535 -0.1402  0.0291 -0.5397
  955TIP3    H124500   4.866   0.491   1.567 -0.1884  0.8605  0.3095
  955TIP3    H224501   4.922   0.578   1.458 -0.4355  0.3326 -0.2437
  956TIP3   OH224502   6.257   2.148   6.719 -0.6734 -0.4404 -0.2252
  956TIP3    H124503   6.275   2.133   6.626 -0.3480  0.3390 -0.2901
  956TIP3    H224504   6.312   2.084   6.765  2.0812  1.6830 -0.4230
  957TIP3   OH224505   6.252   4.676   1.005  0.8871 -0.0274 -0.2882
  957TIP3    H124506   6.262   4.764   1.042 -0.1755 -0.3997  0.9299
  957TIP3    H224507   6.335   4.632   1.024  0.2295 -0.3480  2.1013
  958TIP3   OH224508   3.669   1.895   2.226 -0.2372 -0.2109 -0.0537
  958TIP3    H124509   3.584   1.878   2.267  0.2933 -1.3759  0.6089
  958TIP3    H224510   3.715   1.811   2.231  0.8702  0.3498 -0.6037
  959TIP3   OH224511   6.346   0.005   7.258  1.1942  0.5492  0.3222
  959TIP3    H124512   6.319   0.097   7.249 -1.7967 -0.3576 -0.6977
  959TIP3    H224513   6.323  -0.017   7.348 -1.0390 -0.0412 -0.3577
  960TIP3   OH224514   4.491   0.225   8.449  0.6016  0.0630  0.0387
  960TIP3    H124515   4.421   0.224   8.385  0.4142  0.1090  0.2423
  960TIP3    H224516   4.570   0.205   8.399  0.1238 -2.3209  0.1786
  961TIP3   OH224517   4.078   3.979   7.932 -0.4387  0.1016  0.4343
  961TIP3    H124518   4.134   4.052   7.906  0.7449 -0.5838  1.0119
  961TIP3    H224519   4.097   3.910   7.868  0.8532 -0.8153  1.7529
  962TIP3   OH224520   6.358   0.957   1.039  0.5073 -0.5657 -0.1479
  962TIP3    H124521   6.390   1.023   1.100 -0.3308 -1.3390  1.1727
  962TIP3    H224522   6.308   1.005   0.973  0.4914  0.1855  0.4146
  963TIP3   OH224523   4.978   6.899   7.539 -0.0726 -0.4250 -0.3226
  963TIP3    H124524   4.926   6.820   7.526 -3.4157  1.3904  1.2901
  963TIP3    H224525   4.951   6.931   7.625  0.9980  2.5891 -1.0422
  964TIP3   OH224526   0.267   0.434   2.182 -0.0837 -0.2656 -0.0702
  964TIP3    H124527   0.239   0.496   2.249  0.6386 -2.0199  1.8988
  964TIP3    H224528   0.274   0.350   2.228  0.4605 -1.5003 -2.3300
  965TIP3   OH224529   6.703   6.414   8.282  0.4328 -0.3306  0.5389
  965TIP3    H124530   6.736   6.353   8.216  0.1667 -0.0768  0.1690
  965TIP3    H224531   6.778   6.429   8.340  0.2803 -1.6093  1.0855
  966TIP3   OH224532   4.028   5.751   7.504  0.3445 -0.6927 -0.4747
  966TIP3    H124533   4.084   5.812   7.455 -0.0087  0.1391  0.1380
  966TIP3    H224534   4.075   5.668   7.502  0.6221 -0.5088 -1.7055
  967TIP3   OH224535   0.050   4.974   8.085 -0.3246 -0.2592 -0.5228
  967TIP3    H124536   0.021   4.901   8.030  1.4728 -1.8279  0.5652
  967TIP3    H224537   0.107   5.025   8.028 -0.2098 -0.6610 -0.7760
  968TIP3   OH224538   5.216   1.582   7.355  0.0452  0.4247  0.2176
  968TIP3    H124539   5.194   1.489   7.355 -0.2944  0.4861 -1.8294
  968TIP3    H224540   5.267   1.594   7.435  0.1258 -1.5328  0.4913
  969TIP3   OH224541   1.686   6.950   7.582 -0.2859 -0.5057 -0.4860
  969TIP3    H124542   1.738   6.990   7.512 -2.6944  1.0786 -1.4372
  969TIP3    H224543   1.636   7.022   7.620 -0.5319 -1.7020  1.5401
  970TIP3   OH224544   7.272   3.538   7.663  0.5717 -0.0725 -0.1397
  970TIP3    H124545   7.320   3.621   7.665  1.9907 -0.7244 -3.6263
  970TIP3    H224546   7.340   3.471   7.669 -0.1719 -0.9792 -1.4703
  971TIP3   OH224547   6.890   7.048   8.054 -0.0512  0.3340 -0.6450
  971TIP3    H124548   6.794   7.050   8.059 -0.0405 -1.0804  0.3178
  971TIP3    H224549   6.916   7.140   8.060 -1.3329  0.7222 -0.7802
  972TIP3   OH224550   5.276   0.569   8.407  0.5730 -0.3071 -0.0809
  972TIP3    H124551   5.203   0.507   8.413 -0.8590  1.3892  0.4608
  972TIP3    H224552   5.277   0.612   8.492  2.8302 -0.9634  0.2435
  973TIP3   OH224553   1.237   6.260   6.940 -0.4617 -0.5268 -0.4053
  973TIP3    H124554   1.209   6.334   6.887  0.7332  0.3761  0.1941
  973TIP3    H224555   1.310   6.294   6.992  0.2877 -2.1877 -0.3259
  974TIP3   OH224556   1.095   7.095   0.147 -0.0689  0.1051 -0.1284
  974TIP3    H124557   1.009   7.095   0.188 -0.4644 -0.5109 -0.9581
  974TIP3    H224558   1.126   7.005   0.156  0.2014  0.1665 -0.4308
  975TIP3   OH224559   7.232   2.100   6.398 -0.3933  0.1888 -0.2526
  975TIP3    H124560   7.181   2.146   6.332  0.2047  1.1474 -0.0535
  975TIP3    H224561   7.287   2.039   6.348  0.4133  1.2558 -0.6773
  976TIP3   OH224562   7.029   1.910   6.398  0.8258 -0.0554 -0.4210
  976TIP3    H124563   6.988   1.915   6.312 -0.1692 -0.1948  0.0362
  976TIP3    H224564   7.052   2.000   6.419 -0.4672  0.2037 -0.1034
  977TIP3   OH224565   4.314   6.199   7.552  0.1195 -0.0120  0.5435
  977TIP3    H124566   4.395   6.244   7.529  0.0920 -0.2348 -0.0045
  977TIP3    H224567   4.253   6.269   7.575 -0.6916  0.4469 -2.6992
  978TIP3   OH224568   5.220   0.796   6.564 -0.1634  0.4575  0.3602
  978TIP3    H124569   5.141   0.743   6.574  1.1491 -1.8840 -1.3934
  978TIP3    H224570   5.222   0.821   6.472  1.2723  0.3165  0.3403
  979TIP3   OH224571   2.123   2.801   1.526  0.5286 -0.3812 -1.0532
  979TIP3    H124572   2.036   2.781   1.558  0.5327  0.5504 -0.4371
  979TIP3    H224573   2.167   2.845   1.599  0.9348  0.6749 -1.9018
  980TIP3   OH224574   5.540   0.923   1.576 -0.2137 -0.0553  0.1590
  980TIP3    H124575   5.572   0.889   1.659 -1.4012  0.0490  0.6554
  980TIP3    H224576   5.454   0.960   1.595 -0.2690  0.4614 -0.9992
  981TIP3   OH224577   6.780   7.328   7.836 -0.2850 -0.1083 -0.3870
  981TIP3    H124578   6.867   7.361   7.815  0.6576 -1.2036  1.6849
  981TIP3    H224579   6.751   7.283   7.756  1.2101 -0.0746 -0.9589
  982TIP3   OH224580   4.064   4.580   1.418  0.1447  0.8140  0.3257
  982TIP3    H124581   4.150   4.581   1.375  0.3277 -1.1952  0.5551
  982TIP3    H224582   4.083   4.558   1.509 -0.6796 -0.7761  0.1355
  983TIP3   OH224583   4.641   2.198   7.549 -0.6369  0.3338  0.0376
  983TIP3    H124584   4.573   2.255   7.513 -0.9188  0.1531  0.2896
  983TIP3    H224585   4.722   2.249   7.538 -0.9002  0.8232  0.3489
  984TIP3   OH224586   4.737   1.668   6.976 -0.6061  0.0147  0.2003
  984TIP3    H124587   4.756   1.594   6.919 -0.9019  0.0856  0.0097
  984TIP3    H224588   4.823   1.698   7.007 -0.1883  1.8611 -2.5802
  985TIP3   OH224589   4.323   1.032   7.837  0.0477 -0.9812  0.3101
  985TIP3    H124590   4.369   1.011   7.918 -0.0717 -0.3191  0.5486
  985TIP3    H224591   4.236   0.994   7.850 -0.1275 -0.4541  0.6908
  986TIP3   OH224592   5.815   1.410   0.280  0.5002  0.0290 -0.1544
  986TIP3    H124593   5.772   1.350   0.341  2.5370 -0.3554  0.9447
  986TIP3    H224594   5.832   1.489   0.333  2.4141 -0.3614 -0.1616
  987TIP3   OH224595   5.835   2.061   7.347 -0.0996 -0.0661 -0.8443
  987TIP3    H124596   5.750   2.017   7.355 -0.4687  0.4792 -1.7493
  987TIP3    H224597   5.841   2.086   7.255  1.6345 -1.2717 -1.1047
  988TIP3   OH224598   5.782   0.786   6.862 -0.3937  0.2803 -0.0034
  988TIP3    H124599   5.849   0.845   6.829 -0.3393  1.0524  1.4710
  988TIP3    H224600   5.771   0.721   6.793  1.3586  0.5530 -0.5458
  989TIP3   OH224601   5.003   1.578   1.248 -0.0901 -0.4788  0.7472
  989TIP3    H124602   4.991   1.497   1.198  0.4922  0.3151 -0.7064
  989TIP3    H224603   5.097   1.581   1.266  0.1052  0.5370 -0.3735
  990TIP3   OH224604   6.913   6.412   7.727 -0.1113 -0.3837 -0.3076
  990TIP3    H124605   6.989   6.371   7.769 -0.6207 -0.1089  0.9109
  990TIP3    H224606   6.950   6.460   7.653  0.9169 -0.2734  0.2619
  991TIP3   OH224607   2.059   5.824   7.807 -0.6391 -0.5619  0.7711
  991TIP3    H124608   2.055   5.783   7.720  2.9273  0.0895  0.2039
  991TIP3    H224609   2.083   5.915   7.789 -1.1875 -0.0891  2.3926
  992TIP3   OH224610   2.979   1.895   1.623 -0.4331  0.4454  0.1159
  992TIP3    H124611   2.939   1.956   1.686 -0.5444 -0.9411  1.4228
  992TIP3    H224612   2.905   1.844   1.590 -0.2986  0.8060 -0.7477
  993TIP3   OH224613   7.001   5.935   6.143  0.1296 -0.0663  0.2554
  993TIP3    H124614   7.072   5.984   6.185  0.6133  2.8271 -3.6699
  993TIP3    H224615   7.045   5.883   6.075 -1.1273 -0.8417  0.0202
  994TIP3   OH224616   0.271   6.487   6.387 -0.0017 -0.3318  0.5904
  994TIP3    H124617   0.270   6.554   6.318  1.0134  0.7960  1.6415
  994TIP3    H224618   0.322   6.416   6.350  0.7785  0.3818  0.2645
  995TIP3   OH224619   6.132   2.315   1.656  0.0562 -0.5676 -0.8480
  995TIP3    H124620   6.098   2.226   1.645  0.2276 -0.8197  0.5327
  995TIP3    H224621   6.058   2.371   1.634 -0.4419 -1.0783 -0.5187
  996TIP3   OH224622   5.083   6.693   7.836 -0.1599 -0.5028  0.3887
  996TIP3    H124623   5.039   6.730   7.912  1.1577  0.4862  0.7005
  996TIP3    H224624   5.013   6.667   7.777 -1.1465  2.3175  0.2703
  997TIP3   OH224625   6.293   1.227   6.914 -0.2234 -0.3947  0.1207
  997TIP3    H124626   6.284   1.187   6.828 -0.7995 -3.6402  1.5991
  997TIP3    H224627   6.387   1.240   6.925  0.0502 -2.1277 -0.0852
  998TIP3   OH224628   0.132   0.147   0.984  0.8064  0.9430 -0.3011
  998TIP3    H124629   0.220   0.144   0.944  1.0220  1.8716  0.0824
  998TIP3    H224630   0.139   0.215   1.051  0.6017 -0.9704  1.7191
  999TIP3   OH224631   5.158   6.198   7.601  0.1225  0.1234 -0.3942
  999TIP3    H124632   5.160   6.112   7.558 -0.0886  0.2885 -0.7375
  999TIP3    H224633   5.230   6.247   7.561 -0.2758  0.3884 -0.7975
 1000TIP3   OH224634   2.225   0.266   7.952  0.5380  0.0118  0.1775
 1000TIP3    H124635   2.180   0.307   8.026  0.5030 -1.5819  1.0583
 1000TIP3    H224636   2.208   0.325   7.878 -0.4582  0.9886  1.1646
 1001TIP3   OH224637   1.867   1.885   1.643 -0.3773  0.0517 -0.6043
 1001TIP3    H124638   1.854   1.979   1.652 -0.6687  0.1308 -1.8066
 1001TIP3    H224639   1.788   1.853   1.600 -0.4166 -0.7923  0.0765
 1002TIP3   OH224640   5.857   0.886   8.179  0.1911 -0.3314  0.5172
 1002TIP3    H124641   5.943   0.924   8.162  0.4231 -1.3340 -0.6297
 1002TIP3    H224642   5.798   0.934   8.120 -0.1707  0.8244  1.7903
 1003TIP3   OH224643   6.496   6.770   1.874 -0.8054  0.1204  1.0725
 1003TIP3    H124644   6.465   6.768   1.964 -1.4495 -0.4924  0.8411
 1003TIP3    H224645   6.508   6.678   1.850  1.6744  0.3413  1.3147
 1004TIP3   OH224646   6.147   5.392   0.430  0.3170  0.0981 -0.1311
 1004TIP3    H124647   6.102   5.471   0.401  1.7377  0.5249 -1.2262
 1004TIP3    H224648   6.209   5.423   0.497 -1.0079 -0.4951  1.4168
 1005TIP3   OH224649   0.145   1.252   6.419  0.1077  0.1726  0.9037
 1005TIP3    H124650   0.105   1.268   6.334 -1.3420  0.0150  1.5373
 1005TIP3    H224651   0.209   1.183   6.404 -1.6454 -1.3375  0.3467
 1006TIP3   OH224652   4.403   7.219   0.331 -0.3195  0.0509 -0.1488
 1006TIP3    H124653   4.416   7.138   0.282 -2.5806 -0.2760 -0.2320
 1006TIP3    H224654   4.426   7.289   0.270 -0.2652 -0.4619 -0.7097
 1007TIP3   OH224655   5.056   1.151   8.327  0.3604  0.1653 -0.3497
 1007TIP3    H124656   5.092   1.084   8.269 -0.5588 -2.0924  1.5922
 1007TIP3    H224657   5.113   1.226   8.315  0.9631 -0.6702 -3.1731
 1008TIP3   OH224658   6.989   1.468   6.656  0.0034  0.4151  0.2295
 1008TIP3    H124659   7.043   1.421   6.720  2.0992  1.6835 -0.5521
 1008TIP3    H224660   7.045   1.540   6.626 -1.7355  1.0976 -1.4497
 1009TIP3   OH224661   1.416   5.612   7.611  0.1761  0.4183  0.9285
 1009TIP3    H124662   1.454   5.683   7.560  1.6941 -1.8259 -1.1899
 1009TIP3    H224663   1.491   5.568   7.652 -0.6638 -0.4593  1.5697
 1010TIP3   OH224664   0.475   4.723   7.049  0.0929  0.2143  0.5790
 1010TIP3    H124665   0.457   4.665   6.975  1.7382  0.2386  0.1415
 1010TIP3    H224666   0.570   4.737   7.046 -0.0142  1.3069  1.8853
 1011TIP3   OH224667   5.992   6.371   6.428  0.1643 -0.0503  0.1136
 1011TIP3    H124668   5.960   6.442   6.372  0.0950  0.0569  0.2893
 1011TIP3    H224669   6.007   6.298   6.367 -0.3186 -0.0705  0.0097
 1012TIP3   OH224670   6.678   2.807   7.163 -0.3874 -0.1093  0.2356
 1012TIP3    H124671   6.762   2.854   7.170 -1.8511  2.5850  0.4448
 1012TIP3    H224672   6.686   2.757   7.081  1.1437  0.6893 -0.1364
 1013TIP3   OH224673   4.226   5.405   7.983 -0.0790 -0.4505  0.5738
 1013TIP3    H124674   4.318   5.381   7.986  0.1990  0.2980 -1.1741
 1013TIP3    H224675   4.225   5.494   7.947 -1.4416 -0.2293  1.1121
 1014TIP3   OH224676   6.103   5.978   6.172 -0.1657  0.1480 -0.0375
 1014TIP3    H124677   6.024   5.947   6.127 -0.4164 -0.3609  0.7448
 1014TIP3    H224678   6.165   5.906   6.164  1.4005  1.7434 -3.4610
 1015TIP3   OH224679   6.837   2.309   6.343  0.1197 -0.2196  0.1111
 1015TIP3    H124680   6.780   2.314   6.267 -0.0066 -1.6258  0.0962
 1015TIP3    H224681   6.789   2.354   6.412 -1.7499 -2.7107  0.5242
 1016TIP3   OH224682   5.491   6.591   0.784  0.3535  0.1721 -0.4217
 1016TIP3    H124683   5.417   6.536   0.810  2.5260 -1.3913  2.7734
 1016TIP3    H224684   5.487   6.666   0.844  1.4849 -0.0493 -0.0537
 1017TIP3   OH224685   7.062   0.546   1.506  0.1036 -0.0760 -0.0925
 1017TIP3    H124686   7.037   0.514   1.420  1.1773  0.6016 -0.6745
 1017TIP3    H224687   6.995   0.513   1.565 -0.4735 -0.7991 -1.1450
 1018TIP3   OH224688   5.806   0.606   7.226 -1.2198 -0.3920  0.3584
 1018TIP3    H124689   5.771   0.576   7.141  1.7638  2.0857 -1.8439
 1018TIP3    H224690   5.730   0.643   7.270 -2.6193 -0.6879 -1.6982
 1019TIP3   OH224691   5.301   0.803   0.549  0.0825  0.3661 -0.8186
 1019TIP3    H124692   5.228   0.863   0.567 -0.3304 -0.8984  1.9606
 1019TIP3    H224693   5.268   0.717   0.576  2.6915 -0.1793  0.7432
 1020TIP3   OH224694   0.702   4.552   1.386 -0.1050  0.0864 -0.2367
 1020TIP3    H124695   0.662   4.639   1.393  1.2829  0.6474  1.1017
 1020TIP3    H224696   0.766   4.550   1.456 -3.0303 -3.6211  2.5592
 1021TIP3   OH224697   4.331   5.841   6.296 -0.1095  0.0144  0.0093
 1021TIP3    H124698   4.424   5.820   6.291 -0.4924 -2.0119  0.8811
 1021TIP3    H224699   4.291   5.762   6.332 -2.0864  1.0927  0.2252
 1022TIP3   OH224700   2.585   2.766   7.047 -0.1022 -0.1768  0.1140
 1022TIP3    H124701   2.543   2.851   7.059  0.3795  0.3154 -1.6470
 1022TIP3    H224702   2.649   2.761   7.118 -0.4880  0.7007  0.5311
 1023TIP3   OH224703   6.554   6.494   0.805  0.4334 -0.0228 -0.1332
 1023TIP3    H124704   6.634   6.527   0.844  1.4237 -1.6995 -0.7182
 1023TIP3    H224705   6.558   6.522   0.713  1.5204 -2.0837 -0.7632
 1024TIP3   OH224706   0.605   0.056   7.566 -0.5662 -0.0426 -0.0790
 1024TIP3    H124707   0.511   0.053   7.582 -0.6689  0.2054 -0.6490
 1024TIP3    H224708   0.636  -0.031   7.592 -0.9000 -0.0140  0.4274
 1025TIP3   OH224709   7.177   7.050   6.905 -0.5680 -0.4368 -1.1669
 1025TIP3    H124710   7.087   7.082   6.901 -0.0642  1.0855 -0.9813
 1025TIP3    H224711   7.216   7.078   6.822  0.0666  0.0012 -0.7308
 1026TIP3   OH224712   4.454   5.432   7.595 -0.4101  0.0668 -0.8301
 1026TIP3    H124713   4.472   5.522   7.569 -1.4530  0.2371 -1.0140
 1026TIP3    H224714   4.454   5.434   7.691  2.7124 -0.4084 -0.7918
 1027TIP3   OH224715   7.074   1.741   6.610  0.2687  0.2913 -0.3139
 1027TIP3    H124716   7.044   1.793   6.536 -1.2142  0.9461  0.7121
 1027TIP3    H224717   7.019   1.771   6.683  1.3931 -0.6568  0.9314
 1028TIP3   OH224718   6.155   2.930   6.820 -0.3826  0.1591  0.4548
 1028TIP3    H124719   6.123   2.900   6.906 -1.2302  1.1424  0.4872
 1028TIP3    H224720   6.075   2.956   6.773 -0.1101 -2.0085 -1.2807
 1029TIP3   OH224721   1.823   0.566   7.519  0.3953 -0.3002  0.4506
 1029TIP3    H124722   1.731   0.584   7.536  0.4067  1.5715 -1.3099
 1029TIP3    H224723   1.842   0.487   7.571 -2.5380 -1.5250 -0.2568
 1030TIP3   OH224724   6.502   2.428   7.019 -0.1591  0.2193 -0.2520
 1030TIP3    H124725   6.568   2.361   7.001  0.1264  0.9131 -1.8426
 1030TIP3    H224726   6.542   2.510   6.993 -1.4357  0.7137 -0.7271
 1031TIP3   OH224727   5.541   6.244   1.640  0.3123  0.2597 -0.1327
 1031TIP3    H124728   5.622   6.248   1.691  1.3889  0.2681 -1.8221
 1031TIP3    H224729   5.530   6.152   1.619  1.0407  0.5186 -1.7118
 1032TIP3   OH224730   5.241   0.361   6.337  0.1670  0.2961  0.2717
 1032TIP3    H124731   5.248   0.284   6.393 -0.1696  0.2582  0.2657
 1032TIP3    H224732   5.160   0.347   6.288  0.7681  0.0544 -0.6507
 1033TIP3   OH224733   4.959   6.816   8.039  0.0988  0.0685 -0.1186
 1033TIP3    H124734   4.865   6.803   8.027  0.3318 -0.9352 -0.8917
 1033TIP3    H224735   4.975   6.788   8.129 -0.2787 -0.1383 -0.1152
 1034TIP3   OH224736   0.289   6.025   6.950 -0.1590 -0.2976  0.2526
 1034TIP3    H124737   0.285   6.118   6.929 -0.4822 -0.8837 -2.4960
 1034TIP3    H224738   0.325   5.984   6.871 -0.8353 -2.5813  1.0846
 1035TIP3   OH224739   4.188   4.850   7.113 -0.3016  0.0587 -0.9215
 1035TIP3    H124740   4.253   4.792   7.073 -0.4305  0.5349 -1.8321
 1035TIP3    H224741   4.112   4.794   7.126  1.0311 -1.1573  2.3945
 1036TIP3   OH224742   0.799   5.919   6.942  0.4806 -0.0188  0.0248
 1036TIP3    H124743   0.803   5.889   6.852  1.0141  0.0179  0.0342
 1036TIP3    H224744   0.865   5.989   6.947 -0.4933  0.9080  0.0892
 1037TIP3   OH224745   4.347   0.402   1.887  0.1550  0.4371 -0.4891
 1037TIP3    H124746   4.391   0.466   1.944  1.8047 -0.8615 -0.2660
 1037TIP3    H224747   4.392   0.319   1.904 -1.0451 -0.5099 -1.7812
 1038TIP3   OH224748   6.052   0.764   6.480 -0.2189 -0.2997  0.0186
 1038TIP3    H124749   6.085   0.828   6.417 -1.6215  0.7177  0.2931
 1038TIP3    H224750   5.971   0.731   6.440  0.3636 -1.7280 -0.0057
 1039TIP3   OH224751   6.619   1.098   7.013 -0.4926 -0.6238  0.1079
 1039TIP3    H124752   6.591   1.051   6.934  0.2502 -2.1998  0.7547
 1039TIP3    H224753   6.606   1.035   7.084 -1.1050  0.7518  1.2584
 1040TIP3   OH224754   1.057   5.378   7.301 -0.3372  0.2370 -0.0784
 1040TIP3    H124755   1.057   5.298   7.249 -0.2836  2.3829 -3.5917
 1040TIP3    H224756   1.149   5.398   7.313 -0.3357  0.7815 -0.9261
 1041TIP3   OH224757   6.768   5.952   2.058  0.0736 -0.1413 -0.0919
 1041TIP3    H124758   6.736   5.891   2.124 -0.1014  0.4177  0.3462
 1041TIP3    H224759   6.849   5.988   2.096  0.0008  0.1407 -0.2018
 1042TIP3   OH224760   3.872   3.199   1.913  0.2121  0.5805 -0.0612
 1042TIP3    H124761   3.824   3.216   1.994 -0.8743  0.4279 -0.6785
 1042TIP3    H224762   3.867   3.281   1.864  1.0126  0.7266  0.0800
 1043TIP3   OH224763   1.446   0.011   1.437 -0.4538 -0.5678  0.0419
 1043TIP3    H124764   1.448  -0.080   1.465  0.9774 -0.2361  1.0590
 1043TIP3    H224765   1.537   0.034   1.422 -0.7185  0.9712  0.7027
 1044TIP3   OH224766   6.629   3.250   6.412  0.1685  0.5100 -0.2596
 1044TIP3    H124767   6.630   3.209   6.499 -0.6297  1.0490  0.0146
 1044TIP3    H224768   6.631   3.176   6.351  0.6328  0.1220  0.2182
 1045TIP3   OH224769   3.867   2.692   7.638  0.0074 -0.3939 -0.4695
 1045TIP3    H124770   3.947   2.698   7.585 -0.0392 -2.6254 -0.8548
 1045TIP3    H224771   3.815   2.768   7.612  1.6838  0.6856 -0.7535
 1046TIP3   OH224772   1.768   5.513   8.127 -0.1285  0.3991 -0.1612
 1046TIP3    H124773   1.778   5.578   8.058  0.3734  1.1887  0.6522
 1046TIP3    H224774   1.807   5.433   8.090  0.9013  1.0376 -0.4657
 1047TIP3   OH224775   3.326   3.445   7.032  0.0448  0.0846  0.5804
 1047TIP3    H124776   3.289   3.361   7.061  0.7955 -0.6999 -0.6799
 1047TIP3    H224777   3.368   3.481   7.110 -0.9169 -0.3655  1.3122
 1048TIP3   OH224778   1.694   4.251   7.856 -0.1266  0.8047  0.6384
 1048TIP3    H124779   1.608   4.222   7.827  0.0389  0.6523  0.3002
 1048TIP3    H224780   1.711   4.198   7.935  0.2865 -0.2177 -0.1200
 1049TIP3   OH224781   7.012   4.912   7.432 -0.0563 -0.2312  0.0794
 1049TIP3    H124782   6.945   4.862   7.479 -1.1199  0.9080 -0.2004
 1049TIP3    H224783   6.974   4.928   7.346  1.3050 -1.0707 -0.6934
 1050TIP3   OH224784   0.906   2.338   6.688 -0.4952 -0.3073 -0.5531
 1050TIP3    H124785   0.867   2.404   6.631  0.5856  1.4076  0.6382
 1050TIP3    H224786   0.863   2.351   6.773  1.1147  0.2034  0.2064
 1051TIP3   OH224787   5.694   0.992   7.726 -0.5363 -0.0807 -0.1424
 1051TIP3    H124788   5.783   1.023   7.741  0.0072 -1.0541 -1.3314
 1051TIP3    H224789   5.645   1.071   7.701  0.1239  0.3533 -0.0764
 1052TIP3   OH224790   3.615   3.841   7.244  0.0697 -0.0699 -0.0752
 1052TIP3    H124791   3.668   3.915   7.273 -1.1952  0.4167  1.0676
 1052TIP3    H224792   3.550   3.879   7.185  0.3626 -0.5030 -0.6782
 1053TIP3   OH224793   2.065   2.980   7.213  0.1201  0.2977 -0.0387
 1053TIP3    H124794   2.135   3.018   7.160 -0.9117  1.7708 -0.3582
 1053TIP3    H224795   2.081   3.013   7.301  0.1103  0.2417 -0.0156
 1054TIP3   OH224796   3.928   1.595   0.815  0.2518  0.4817 -0.1240
 1054TIP3    H124797   4.003   1.655   0.816 -0.7961  1.8162 -0.4002
 1054TIP3    H224798   3.892   1.605   0.727  0.9364 -1.6686 -0.6733
 1055TIP3   OH224799   3.548   2.241   8.286  0.6198 -0.0295  0.4904
 1055TIP3    H124800   3.535   2.331   8.317  2.6027  0.7173 -0.7566
 1055TIP3    H224801   3.584   2.195   8.362 -2.0236 -0.2495  1.6641
 1056TIP3   OH224802   1.684   4.843   6.506 -0.2434 -0.0731  0.0499
 1056TIP3    H124803   1.758   4.904   6.506  0.1275 -0.4828  2.2084
 1056TIP3    H224804   1.625   4.876   6.573  0.1609 -2.2706  1.5649
 1057TIP3   OH224805   0.743   5.081   1.388  0.0646 -0.0671  0.0378
 1057TIP3    H124806   0.774   5.021   1.321  0.4222  0.0680  0.0852
 1057TIP3    H224807   0.681   5.138   1.342 -2.4122 -2.2199  0.5671
 1058TIP3   OH224808   2.351   4.897   7.215 -0.1442 -0.1673 -0.3053
 1058TIP3    H124809   2.288   4.885   7.287  2.2212 -0.9902  1.6929
 1058TIP3    H224810   2.427   4.845   7.241  1.2543  0.5619 -2.8174
 1059TIP3   OH224811   1.801   1.026   1.650 -0.3709 -0.0973  0.7510
 1059TIP3    H124812   1.759   1.055   1.731 -0.0086  1.4716  0.3949
 1059TIP3    H224813   1.779   0.933   1.643 -0.5637 -0.1918  2.5429
 1060TIP3   OH224814   3.029   2.457   6.647  0.0464 -0.1823  0.3015
 1060TIP3    H124815   3.032   2.454   6.743 -1.5124 -0.9874  0.3424
 1060TIP3    H224816   3.118   2.434   6.620  0.4157 -0.2834  1.5517
 1061TIP3   OH224817   3.157   5.060   1.568  0.4377 -0.0707  0.1813
 1061TIP3    H124818   3.085   5.084   1.511  2.1445  1.1034 -1.5246
 1061TIP3    H224819   3.149   5.119   1.643 -0.8690 -0.5440  0.4253
 1062TIP3   OH224820   0.532   4.864   7.808  0.7921  0.1875 -0.2610
 1062TIP3    H124821   0.444   4.848   7.776  0.6900  2.6031 -1.2976
 1062TIP3    H224822   0.524   4.862   7.903 -0.2655 -0.2125 -0.3580
 1063TIP3   OH224823   3.186   1.457   7.731 -0.3166  0.1819 -0.0759
 1063TIP3    H124824   3.217   1.546   7.712  1.9837 -0.1229  2.0414
 1063TIP3    H224825   3.266   1.406   7.741 -1.6127 -1.7920  0.3352
 1064TIP3   OH224826   1.781   3.241   6.271  0.9755  0.3764  0.2020
 1064TIP3    H124827   1.735   3.195   6.341  1.3219 -1.1847 -0.5913
 1064TIP3    H224828   1.848   3.292   6.317  0.0623  0.7593  1.1486
 1065TIP3   OH224829   4.125   2.679   7.180  0.6031 -0.4092  0.1698
 1065TIP3    H124830   4.093   2.769   7.185 -1.7075 -1.1729 -0.3387
 1065TIP3    H224831   4.177   2.676   7.100  0.3335  0.3677 -0.0338
 1066TIP3   OH224832   0.145   6.802   7.001  0.7885 -0.7595  0.3858
 1066TIP3    H124833   0.188   6.749   7.068  0.8156  0.6142  1.4701
 1066TIP3    H224834   0.060   6.824   7.038  0.9425  0.2984  0.1263
 1067TIP3   OH224835   7.103   4.274   7.857  0.0915 -0.3458 -0.6530
 1067TIP3    H124836   7.152   4.256   7.777  0.7403  1.3261 -0.6527
 1067TIP3    H224837   7.135   4.209   7.920  1.1541 -0.2733 -1.1168
 1068TIP3   OH224838   3.042   3.375   7.856 -0.2063  0.0780 -0.1056
 1068TIP3    H124839   3.081   3.395   7.771  0.2186  2.1499  0.5557
 1068TIP3    H224840   3.100   3.416   7.920 -0.5577 -1.4039  1.1899
 1069TIP3   OH224841   0.893   2.886   2.373 -0.0958  0.0592 -0.5307
 1069TIP3    H124842   0.885   2.887   2.468 -1.6534 -0.8535 -0.6401
 1069TIP3    H224843   0.804   2.898   2.340  0.2073 -1.0933 -1.8566
 1070TIP3   OH224844   0.862   4.347   7.959  0.2034 -0.0210 -0.6483
 1070TIP3    H124845   0.886   4.376   8.047  1.3928  0.3289 -1.0784
 1070TIP3    H224846   0.914   4.402   7.900 -2.2125  1.2629 -1.6401
 1071TIP3   OH224847   1.474   1.723   6.866 -0.1378  0.1639 -0.5828
 1071TIP3    H124848   1.452   1.813   6.844  0.0788  0.7113  1.3529
 1071TIP3    H224849   1.389   1.680   6.878 -0.2411  0.0873 -1.5201
 1072TIP3   OH224850   7.133   2.396   6.537 -0.5818  0.2370  0.7028
 1072TIP3    H124851   7.053   2.439   6.568 -1.3607 -0.3323 -0.4740
 1072TIP3    H224852   7.113   2.303   6.541 -1.0005  0.1673 -2.2037
 1073TIP3   OH224853   2.573   4.926   8.147 -0.2964  0.7263  0.7584
 1073TIP3    H124854   2.513   4.979   8.094 -1.2784 -0.3726  0.7625
 1073TIP3    H224855   2.558   4.956   8.236  1.5743  2.7915  0.4398
 1074TIP3   OH224856   2.577   3.228   7.630 -0.0393 -0.3642  0.6105
 1074TIP3    H124857   2.600   3.149   7.679 -0.0073 -1.1543 -0.6373
 1074TIP3    H224858   2.517   3.275   7.687  0.4011 -0.9960  1.6191
 1075TIP3   OH224859   1.736   1.008   7.130  0.1622 -0.4348  0.1003
 1075TIP3    H124860   1.760   0.976   7.217 -1.2194 -0.0538  0.6378
 1075TIP3    H224861   1.649   0.971   7.114 -0.7002  1.5589 -0.0177
 1076TIP3   OH224862   2.160   6.371   0.254  0.6210  0.2462 -0.4604
 1076TIP3    H124863   2.230   6.333   0.308 -1.8009 -3.8598  0.0253
 1076TIP3    H224864   2.091   6.393   0.317  0.3983  1.7298 -1.2085
 1077TIP3   OH224865   6.737   4.357   7.067  0.4788 -0.0298 -0.1512
 1077TIP3    H124866   6.713   4.444   7.098  0.6041  0.5928 -1.7646
 1077TIP3    H224867   6.655   4.317   7.039  0.4345 -0.4079  0.4962
 1078TIP3   OH224868   1.491   4.118   6.621 -0.1644 -0.1823 -0.5264
 1078TIP3    H124869   1.510   4.033   6.580  0.0784 -1.7946  2.7349
 1078TIP3    H224870   1.410   4.103   6.669  0.2401  1.2495  0.6359
 1079TIP3   OH224871   7.131   6.627   0.251  0.3991 -0.0335  0.4968
 1079TIP3    H124872   7.134   6.600   0.159  2.4146 -0.7902  0.7453
 1079TIP3    H224873   7.052   6.680   0.259 -0.1809 -0.5744 -1.5022
 1080TIP3   OH224874   0.315   4.910   0.135  0.4454  0.8627  0.5275
 1080TIP3    H124875   0.241   4.970   0.138 -0.6394 -0.4244 -0.0380
 1080TIP3    H224876   0.284   4.836   0.083  2.8707  1.3189 -1.6830
 1081TIP3   OH224877   4.168   0.671   7.820  0.3852  0.1342  0.2077
 1081TIP3    H124878   4.116   0.740   7.862  0.2595 -0.0139  0.2948
 1081TIP3    H224879   4.103   0.612   7.782  0.4926  1.8305 -2.7418
 1082TIP3   OH224880   2.014   3.925   2.007  0.5398  0.1889 -0.2533
 1082TIP3    H124881   1.998   3.992   2.075  0.5818 -1.2442  1.1926
 1082TIP3    H224882   2.108   3.911   2.009  0.3969 -0.7608  0.2919
 1083TIP3   OH224883   3.274   1.996   8.144 -0.4869  0.0824 -0.6331
 1083TIP3    H124884   3.301   1.923   8.199  0.8969  1.6570  0.8404
 1083TIP3    H224885   3.179   2.000   8.154 -0.5412 -1.3517 -0.5369
 1084TIP3   OH224886   7.321   4.887   0.467 -0.3420  0.6658 -0.0758
 1084TIP3    H124887   7.324   4.972   0.511 -0.1212 -0.5648  2.3391
 1084TIP3    H224888   7.229   4.878   0.439 -0.2703  1.8696 -0.7295
 1085TIP3   OH224889   0.993   4.790   7.491  0.2608  0.0869 -0.3633
 1085TIP3    H124890   1.084   4.760   7.490  0.0530 -0.5625 -0.1306
 1085TIP3    H224891   0.956   4.754   7.411 -0.4444 -1.7482  0.7367
 1086TIP3   OH224892   1.228   4.234   6.660 -0.4516  0.0943  0.2135
 1086TIP3    H124893   1.180   4.246   6.742 -0.0407  0.7139  0.3654
 1086TIP3    H224894   1.181   4.289   6.597 -0.5369 -0.0788  0.1267
 1087TIP3   OH224895   3.139   7.301   0.927 -0.2232 -0.1345 -0.4973
 1087TIP3    H124896   3.088   7.222   0.947  1.0758 -0.7423  0.4766
 1087TIP3    H224897   3.197   7.275   0.856  0.6625 -0.2615  0.2610
 1088TIP3   OH224898   2.782   1.106   6.328 -0.4939 -0.0569 -0.1515
 1088TIP3    H124899   2.691   1.129   6.347 -0.1904  0.6591  0.4414
 1088TIP3    H224900   2.801   1.148   6.244  0.1237  2.0582  1.0248
 1089TIP3   OH224901   2.140   4.771   7.370  1.1408  0.3286 -0.3856
 1089TIP3    H124902   2.166   4.780   7.462  1.3777  2.3386 -0.6313
 1089TIP3    H224903   2.062   4.826   7.362  0.2020 -1.0724 -1.0334
 1090TIP3   OH224904   1.416   4.289   0.254 -0.3209 -0.5255 -0.2866
 1090TIP3    H124905   1.379   4.318   0.338 -0.3119 -1.3775  0.0189
 1090TIP3    H224906   1.507   4.317   0.257 -0.3667 -0.3956 -0.0834
 1091TIP3   OH224907   2.028   5.506   0.408  0.3537 -0.4433  0.6706
 1091TIP3    H124908   1.998   5.476   0.322 -1.0861 -1.0763  1.3734
 1091TIP3    H224909   2.123   5.513   0.399  0.0905  0.8376 -1.3781
 1092TIP3   OH224910   7.114   3.698   7.865 -0.1207 -0.3013  0.6248
 1092TIP3    H124911   7.186   3.647   7.829  0.8502  0.7709  0.9926
 1092TIP3    H224912   7.040   3.638   7.867  0.7174 -1.3670  0.0679
 1093TIP3   OH224913   0.297   3.017   7.080  0.2570 -0.1854 -0.5433
 1093TIP3    H124914   0.282   2.922   7.085  0.9286 -0.2718 -0.0469
 1093TIP3    H224915   0.238   3.053   7.147  0.6287 -0.3331 -0.1290
 1094TIP3   OH224916   7.102   2.935   6.465 -0.5336  0.0790 -0.0164
 1094TIP3    H124917   7.189   2.968   6.488  0.0564 -0.3665 -1.5296
 1094TIP3    H224918   7.049   3.014   6.457  0.0505  0.4480 -0.3304
 1095TIP3   OH224919   6.557   3.459   0.627 -0.3915 -0.6298  0.7751
 1095TIP3    H124920   6.586   3.525   0.690 -0.8221 -0.3212  0.6584
 1095TIP3    H224921   6.572   3.500   0.541 -0.0150 -0.9591  0.6856
 1096TIP3   OH224922   1.369   5.007   7.066 -0.0676 -0.1596 -0.6111
 1096TIP3    H124923   1.445   5.056   7.098 -0.2526  0.0694 -0.5156
 1096TIP3    H224924   1.403   4.921   7.044  0.1252 -0.2230 -0.0820
 1097TIP3   OH224925   1.454   6.550   0.246 -0.2620 -0.6511 -0.3493
 1097TIP3    H124926   1.422   6.581   0.331 -2.1001 -1.2083 -0.8051
 1097TIP3    H224927   1.471   6.456   0.260  1.5235 -0.2863 -0.0213
 1098TIP3   OH224928   4.644   4.544   6.716 -0.5899  0.0674 -0.6513
 1098TIP3    H124929   4.680   4.633   6.710  1.8699 -0.8493 -0.4005
 1098TIP3    H224930   4.630   4.518   6.625  1.8107 -0.4294 -0.9340
 1099TIP3   OH224931   1.493   2.122   6.578  0.3376  0.5159  0.6307
 1099TIP3    H124932   1.480   2.211   6.612  1.4789  0.7745  0.3792
 1099TIP3    H224933   1.584   2.102   6.596  0.6946  0.2565 -1.3798
 1100TIP3   OH224934   0.841   3.340   6.304 -0.7258 -0.0438  0.0709
 1100TIP3    H124935   0.866   3.379   6.388 -0.3537  0.6909 -0.3751
 1100TIP3    H224936   0.892   3.389   6.239 -1.6240 -0.0596 -0.6517
 1101TIP3   OH224937   4.976   1.794   6.701 -0.4248 -0.4177 -0.1752
 1101TIP3    H124938   5.019   1.719   6.742  0.4004  0.5708  0.8349
 1101TIP3    H224939   4.921   1.757   6.633  0.8556 -1.8530 -0.4568
 1102TIP3   OH224940   6.195   6.310   7.574 -0.3546 -0.3084  0.7258
 1102TIP3    H124941   6.112   6.339   7.535 -0.7242 -0.5946  1.2860
 1102TIP3    H224942   6.196   6.350   7.661  0.7950  0.8923  0.1715
 1103TIP3   OH224943   1.310   5.750   0.061 -0.0267 -0.3364 -0.0162
 1103TIP3    H124944   1.308   5.817   0.129 -1.2800 -0.0882 -0.2839
 1103TIP3    H224945   1.393   5.765   0.015 -0.4826  1.2982 -0.3435
 1104TIP3   OH224946   5.542   3.270   0.160  0.1517  0.1285 -0.5484
 1104TIP3    H124947   5.540   3.235   0.071 -1.2356 -1.2099 -0.0198
 1104TIP3    H224948   5.614   3.224   0.203 -0.0142 -0.1999 -0.6152
 1105TIP3   OH224949   7.309   3.960   7.352  0.3406 -0.3678 -0.2288
 1105TIP3    H124950   7.262   3.998   7.426  1.2295  0.5620 -0.1259
 1105TIP3    H224951   7.268   3.875   7.338 -0.3419 -0.2194  0.8402
 1106TIP3   OH224952   1.784   1.744   6.902  0.0447 -0.5565 -0.0211
 1106TIP3    H124953   1.792   1.666   6.957  0.4846 -1.9492 -2.0147
 1106TIP3    H224954   1.695   1.776   6.919 -0.8199 -2.5818 -0.5599
 1107TIP3   OH224955   0.891   2.833   6.460 -0.3276  0.0603  0.4527
 1107TIP3    H124956   0.812   2.783   6.480  0.5705 -0.9105  1.6168
 1107TIP3    H224957   0.901   2.893   6.534  0.4280 -0.3362  0.6769
 1108TIP3   OH224958   1.314   5.159   6.802 -0.3484  0.7454  0.0399
 1108TIP3    H124959   1.311   5.133   6.894 -1.0833 -5.3801 -1.4435
 1108TIP3    H224960   1.226   5.192   6.784 -0.1815  2.0493  1.4806
 1109TIP3   OH224961   6.045   2.811   1.299 -0.0852 -0.4619  0.5691
 1109TIP3    H124962   6.070   2.891   1.252  1.0048 -2.4894 -2.4438
 1109TIP3    H224963   5.950   2.804   1.286 -0.0621 -0.0665  0.1974
 1110TIP3   OH224964   3.463   3.824   0.208 -0.8424 -0.2756 -0.5501
 1110TIP3    H124965   3.548   3.788   0.232 -0.3854  0.2120 -1.4203
 1110TIP3    H224966   3.399   3.760   0.240 -0.1548 -0.6261  0.1326
 1111TIP3   OH224967   0.753   2.535   6.518  0.2283  0.1870 -0.4293
 1111TIP3    H124968   0.730   2.626   6.533  0.1380  0.2179 -0.7562
 1111TIP3    H224969   0.771   2.530   6.424  2.1098  0.2933 -0.0942
 1112TIP3   OH224970   6.062   3.217   7.062 -0.3403  0.2483  0.9821
 1112TIP3    H124971   6.126   3.255   7.002 -0.2832  0.0775  0.9348
 1112TIP3    H224972   6.106   3.217   7.147  0.1101 -0.8213  0.7552
 1113TIP3   OH224973   0.295   3.576   1.778 -0.2334  1.0629 -0.0881
 1113TIP3    H124974   0.352   3.645   1.813  0.0265 -0.6239  3.0561
 1113TIP3    H224975   0.207   3.604   1.803 -0.3917  1.5437 -1.1599
 1114TIP3   OH224976   3.522   3.200   0.813 -0.4705  0.1550 -0.1565
 1114TIP3    H124977   3.559   3.119   0.847 -0.6370 -0.4440 -1.3888
 1114TIP3    H224978   3.470   3.174   0.737 -2.2717  1.1570  0.6788
 1115TIP3   OH224979   0.319   3.822   1.352  0.3027  0.6624 -0.0139
 1115TIP3    H124980   0.402   3.860   1.319 -0.0526  0.3665 -1.2914
 1115TIP3    H224981   0.255   3.846   1.285 -1.1824  3.0480  2.1787
 1116TIP3   OH224982   0.526   6.586   7.430  0.3486  0.0963  0.2651
 1116TIP3    H124983   0.586   6.592   7.355 -1.6342  2.6988 -1.2318
 1116TIP3    H224984   0.513   6.677   7.457 -0.5254 -0.6695  2.5092
 1117TIP3   OH224985   0.883   1.672   6.852  0.3834  0.0151  0.0087
 1117TIP3    H124986   0.945   1.677   6.779  1.2336 -0.4415  0.6900
 1117TIP3    H224987   0.866   1.763   6.876 -0.5928  0.1966 -1.3339
 1118TIP3   OH224988   6.216   1.088   8.335  0.0872 -0.2086  0.2335
 1118TIP3    H124989   6.145   1.144   8.366 -0.3472 -0.3334 -0.5203
 1118TIP3    H224990   6.247   1.042   8.413 -0.2027  0.3620  0.6824
 1119TIP3   OH224991   5.932   4.754   8.146 -0.0209 -0.0602  0.3018
 1119TIP3    H124992   5.990   4.711   8.083 -0.9409 -2.5584  1.0762
 1119TIP3    H224993   5.955   4.714   8.230 -3.0698 -1.4026  0.5764
 1120TIP3   OH224994   7.247   3.694   0.783 -0.3166  0.4208 -0.0776
 1120TIP3    H124995   7.225   3.618   0.729  1.4317  1.8061 -2.8654
 1120TIP3    H224996   7.332   3.672   0.822 -0.5651  0.2947  0.3928
 1121TIP3   OH224997   1.728   2.315   2.608  0.3670  0.2202 -0.1549
 1121TIP3    H124998   1.813   2.273   2.598  1.0091  1.3048  0.6782
 1121TIP3    H224999   1.666   2.242   2.617  0.8870 -0.6317 -2.9319
 1122TIP3   OH225000   2.613   3.695   6.930  0.1423  0.0745 -0.3750
 1122TIP3    H125001   2.577   3.777   6.895  0.4448  0.3568 -0.0345
 1122TIP3    H225002   2.700   3.719   6.961 -0.1666 -0.1271  0.6809
 1123TIP3   OH225003   6.772   6.002   0.540  0.2383  0.4554  0.5779
 1123TIP3    H125004   6.718   5.985   0.462  1.4089 -1.0392  0.0826
 1123TIP3    H225005   6.792   6.096   0.534  1.1175  0.1682 -1.4422
 1124TIP3   OH225006   2.115   3.860   6.663  0.6821  0.1161 -0.2297
 1124TIP3    H125007   2.073   3.896   6.741 -0.6759  0.9427 -1.3134
 1124TIP3    H225008   2.066   3.898   6.590  2.4748  0.0383 -1.5074
 1125TIP3   OH225009   1.725   2.350   6.559 -0.0008  0.1417  0.2203
 1125TIP3    H125010   1.756   2.263   6.532 -4.1264 -1.0390 -1.1504
 1125TIP3    H225011   1.712   2.397   6.476 -0.6657  0.9902  0.8009
 1126TIP3   OH225012   5.373   2.963   0.661 -0.4642  0.2193 -0.7068
 1126TIP3    H125013   5.353   2.948   0.753 -1.7146  0.9691 -0.8412
 1126TIP3    H225014   5.378   2.875   0.623 -1.5794 -0.0530 -0.2440
 1127TIP3   OH225015   2.208   6.759   7.325  0.0973  0.3518  0.1395
 1127TIP3    H125016   2.192   6.757   7.419 -0.5292 -1.8960  0.0170
 1127TIP3    H225017   2.166   6.840   7.295 -2.5496 -0.5301  1.3341
 1128TIP3   OH225018   7.158   5.478   1.679  0.5485 -0.0978  0.0485
 1128TIP3    H125019   7.178   5.385   1.664  0.8071 -0.0392  0.0375
 1128TIP3    H225020   7.153   5.485   1.774  1.0209 -0.0194  0.0701
 1129TIP3   OH225021   2.184   3.455   6.556 -0.2457 -0.2722 -0.1133
 1129TIP3    H125022   2.227   3.516   6.616 -1.3941  1.3134 -0.8584
 1129TIP3    H225023   2.253   3.428   6.496  0.2381  0.4878  0.0866
 1130TIP3   OH225024   6.934   0.053   1.095  0.1283  0.2057 -0.4125
 1130TIP3    H125025   6.949   0.128   1.036  0.8793 -0.0523 -0.5507
 1130TIP3    H225026   6.994   0.067   1.168  0.4833 -0.4240 -0.5849
 1131TIP3   OH225027   7.225   5.473   7.992  0.2679  0.0870 -0.8014
 1131TIP3    H125028   7.199   5.537   7.926  0.8974  0.6313 -0.5351
 1131TIP3    H225029   7.321   5.480   7.996  0.1370  1.3860  1.4632
 1132TIP3   OH225030   0.224   3.953   6.226 -0.1917  0.1051  0.2888
 1132TIP3    H125031   0.169   4.027   6.204 -0.8183 -0.5861 -0.4622
 1132TIP3    H225032   0.313   3.989   6.226 -0.3471  0.5377 -1.4878
 1133TIP3   OH225033   0.066   4.286   5.968  0.4675  0.3125  0.6639
 1133TIP3    H125034   0.104   4.259   5.884 -2.0233  0.1363 -0.4439
 1133TIP3    H225035   0.126   4.352   6.001  2.1535 -0.5211 -0.6629
 1134TIP3   OH225036   1.953   3.994   6.451  0.2050  0.9379  0.3487
 1134TIP3    H125037   1.911   3.962   6.371  0.6197 -1.8540  1.2257
 1134TIP3    H225038   1.881   4.006   6.513  0.2108  0.3598  0.4661
 1135TIP3   OH225039   6.213   4.819   6.696  0.2798  0.2867 -0.2173
 1135TIP3    H125040   6.307   4.811   6.675  0.1061 -1.0587 -0.5488
 1135TIP3    H225041   6.210   4.824   6.791  0.7096  0.6960 -0.2201
 1136TIP3   OH225042   1.573   4.902   7.986 -0.2310 -0.2981  0.3211
 1136TIP3    H125043   1.481   4.929   7.976  0.2092  0.6593 -1.4107
 1136TIP3    H225044   1.589   4.843   7.912  0.3818 -0.9342  0.9571
 1137TIP3   OH225045   2.685   2.651   6.810  0.0545  0.2571 -0.2115
 1137TIP3    H125046   2.620   2.686   6.750 -1.1978 -0.0816  0.9245
 1137TIP3    H225047   2.652   2.674   6.897  0.5527 -1.4927  0.4517
 1138TIP3   OH225048   0.481   3.848   5.878 -0.3108  0.0889 -0.8265
 1138TIP3    H125049   0.398   3.885   5.848 -0.6800  0.1124  0.2061
 1138TIP3    H225050   0.538   3.924   5.894 -0.3276  0.1082 -0.8598
 1139TIP3   OH225051   0.797   4.484   7.469 -0.1522 -0.2136 -0.4110
 1139TIP3    H125052   0.752   4.542   7.408 -3.4466 -1.4303  0.6964
 1139TIP3    H225053   0.776   4.520   7.556  2.0927 -0.1167  0.1046
 1140TIP3   OH225054   7.127   4.179   6.331  0.2440  0.2915 -0.5605
 1140TIP3    H125055   7.208   4.227   6.315  0.3243 -0.4592 -2.6227
 1140TIP3    H225056   7.079   4.185   6.248 -1.7064  0.5122  0.5457
 1141TIP3   OH225057   0.595   3.121   6.408  0.0563 -0.6084 -0.5697
 1141TIP3    H125058   0.502   3.100   6.415  0.5191 -2.2353  0.9537
 1141TIP3    H225059   0.603   3.166   6.324 -2.3399  0.9020 -0.0457
 1142TIP3   OH225060   2.212   2.717   7.252  0.2019 -0.3039 -0.3958
 1142TIP3    H125061   2.153   2.793   7.248  0.5201  0.1367  2.2646
 1142TIP3    H225062   2.180   2.658   7.184  0.0678  2.2987 -2.6732
 1143TIP3   OH225063   4.502   5.184   7.496 -0.0095 -0.1966  0.2573
 1143TIP3    H125064   4.453   5.180   7.413  1.8746 -1.0423 -0.8512
 1143TIP3    H225065   4.487   5.272   7.529 -2.3681 -0.4813  0.0047
 1144TIP3   OH225066   1.003   4.546   7.838 -0.1386  0.0240 -0.4338
 1144TIP3    H125067   0.932   4.610   7.847  0.8698  1.2080 -0.7607
 1144TIP3    H225068   1.057   4.559   7.916  0.6163  0.2548 -0.9973
 1145TIP3   OH225069   3.527   0.832   0.959  0.5573 -0.3255  0.5919
 1145TIP3    H125070   3.452   0.891   0.952  0.1578 -0.9335 -0.3022
 1145TIP3    H225071   3.578   0.867   1.033 -0.8199 -0.1713  1.4865
 1146TIP3   OH225072   3.345   6.476   1.280 -0.0742  0.1573 -0.4694
 1146TIP3    H125073   3.411   6.417   1.315 -1.0503 -1.1435 -0.7721
 1146TIP3    H225074   3.384   6.511   1.200  1.1179  1.1393  0.5145
 1147TIP3   OH225075   2.556   3.366   8.310  0.5212  0.0411 -0.7839
 1147TIP3    H125076   2.604   3.448   8.323  1.2596 -0.5030  0.0022
 1147TIP3    H225077   2.553   3.327   8.397 -1.3003  0.0282 -0.8322
 1148TIP3   OH225078   4.129   2.570   6.875 -0.4195 -0.1072 -0.6430
 1148TIP3    H125079   4.077   2.540   6.949 -0.3224  1.5501  0.1156
 1148TIP3    H225080   4.216   2.588   6.912  0.4694 -1.9972 -1.7207
 1149TIP3   OH225081   0.831   3.453   6.970  0.1494 -0.3534  0.1413
 1149TIP3    H125082   0.890   3.524   6.998 -0.4974 -0.0166  0.6551
 1149TIP3    H225083   0.781   3.491   6.898  0.0201 -0.3922  0.2114
 1150TIP3   OH225084   3.776   1.531   7.789 -0.2464 -0.3371 -0.7735
 1150TIP3    H125085   3.820   1.449   7.768  0.4406  0.1371 -1.2284
 1150TIP3    H225086   3.842   1.583   7.834 -0.5565  0.1158 -0.8311
 1151TIP3   OH225087   4.561   1.296   8.380 -0.1992  0.1217  0.1701
 1151TIP3    H125088   4.541   1.379   8.423 -1.1053 -0.1244  0.2369
 1151TIP3    H225089   4.594   1.321   8.293 -0.9311  0.5472  0.0068
 1152TIP3   OH225090   0.661   5.789   6.434 -0.4922 -0.3759 -1.0961
 1152TIP3    H125091   0.603   5.787   6.358 -0.9380  1.5354 -0.8199
 1152TIP3    H225092   0.602   5.798   6.509  0.1266  1.6908 -0.8159
 1153TIP3   OH225093   0.536   3.478   2.049  0.3361 -0.2313 -0.0309
 1153TIP3    H125094   0.556   3.413   2.116  0.3392  0.1558  0.3390
 1153TIP3    H225095   0.469   3.534   2.088 -0.0279 -0.3037 -0.5307
 1154TIP3   OH225096   1.046   7.293   1.544 -0.0880 -0.0541  0.1617
 1154TIP3    H125097   1.005   7.295   1.458 -1.7863  0.5585  0.9492
 1154TIP3    H225098   1.077   7.383   1.558 -0.5104  0.0381  0.5095
 1155TIP3   OH225099   4.768   1.041   8.253 -0.5709  1.0687 -0.1813
 1155TIP3    H125100   4.810   0.960   8.224 -0.4501 -0.0075  2.8468
 1155TIP3    H225101   4.811   1.062   8.336 -3.3987  2.0136  1.1022
 1156TIP3   OH225102   1.924   3.763   7.133  0.3374 -0.8708  0.1281
 1156TIP3    H125103   1.916   3.676   7.171  2.0876 -1.5351 -0.9410
 1156TIP3    H225104   2.019   3.779   7.130  0.0551  0.8622 -0.1138
 1157TIP3   OH225105   2.106   4.964   1.005 -0.0118 -0.0967 -0.0183
 1157TIP3    H125106   2.134   4.934   1.092 -0.9861  0.6212  0.5477
 1157TIP3    H225107   2.186   4.962   0.952  0.6215 -0.3851  0.9374
 1158TIP3   OH225108   3.055   3.582   1.905 -0.3554 -0.0846 -0.3285
 1158TIP3    H125109   3.014   3.626   1.830  1.3006  0.7686 -0.7539
 1158TIP3    H225110   3.147   3.572   1.879  0.6242  1.7874  2.3034
 1159TIP3   OH225111   0.380   3.714   7.474 -0.2185 -0.4063 -0.4569
 1159TIP3    H125112   0.452   3.775   7.460  0.1647  0.2018  3.5802
 1159TIP3    H225113   0.302   3.761   7.446  0.2602  1.4270  1.1730
 1160TIP3   OH225114   0.761   3.807   6.518  0.5909  0.2388  1.1974
 1160TIP3    H125115   0.825   3.750   6.475  0.3982  0.6384  0.3915
 1160TIP3    H225116   0.715   3.749   6.579  0.6757 -0.3789  0.6780
 1161TIP3   OH225117   3.834   3.495   7.543 -0.3075 -0.8243  0.6531
 1161TIP3    H125118   3.803   3.538   7.464 -0.0922 -1.7276  0.0674
 1161TIP3    H225119   3.924   3.528   7.554 -0.0689 -1.2763  0.0905
 1162TIP3   OH225120   7.129   7.308   7.562  0.6324 -0.0876 -0.2057
 1162TIP3    H125121   7.211   7.259   7.553  0.6401 -0.0168 -0.5106
 1162TIP3    H225122   7.062   7.250   7.525  0.4696 -0.3505  0.4878
 1163TIP3   OH225123   2.774   4.871   1.334 -0.8921  0.1490  0.1030
 1163TIP3    H125124   2.759   4.779   1.315  0.2225  0.3663 -1.8848
 1163TIP3    H225125   2.744   4.917   1.256 -0.5236  1.4025  0.6900
 1164TIP3   OH225126   4.379   0.648   1.137  0.2644  0.0669 -0.2890
 1164TIP3    H125127   4.460   0.630   1.185  0.8817 -0.3831 -1.4949
 1164TIP3    H225128   4.407   0.666   1.047 -0.9115  0.6584 -0.5453
 1165TIP3   OH225129   4.758   6.268   1.185 -0.5679 -0.1529 -0.1668
 1165TIP3    H125130   4.715   6.353   1.173 -0.7159 -0.2801 -0.5482
 1165TIP3    H225131   4.815   6.259   1.109 -1.6077 -1.0244 -0.8616
 1166TIP3   OH225132   7.008   4.626   1.882  0.1241  0.3244  0.6888
 1166TIP3    H125133   6.915   4.620   1.902  0.4074  2.9324  3.1436
 1166TIP3    H225134   7.011   4.653   1.790 -1.6163  1.6220  0.9809
 1167TIP3   OH225135   0.905   4.332   5.775 -0.4146  0.7604  0.0278
 1167TIP3    H125136   0.998   4.308   5.784 -0.8522 -1.5424 -1.3556
 1167TIP3    H225137   0.900   4.379   5.692 -0.2465  2.3356  0.8761
 1168TIP3   OH225138   3.428   2.930   7.346  0.1626 -0.1304  0.3260
 1168TIP3    H125139   3.337   2.934   7.316 -0.3142  0.9670  1.8566
 1168TIP3    H225140   3.478   2.969   7.274 -0.3918 -1.9513 -1.1087
 1169TIP3   OH225141   1.486   2.393   6.712  0.4127 -0.7056  0.1359
 1169TIP3    H125142   1.458   2.472   6.758 -0.4959 -0.8274 -0.2118
 1169TIP3    H225143   1.574   2.414   6.680 -0.6155  0.9262 -1.7192
 1170TIP3   OH225144   1.240   4.722   7.364 -0.5913  0.0877  0.4423
 1170TIP3    H125145   1.194   4.668   7.300  0.7789  0.2796 -0.7134
 1170TIP3    H225146   1.332   4.702   7.351 -0.0623  2.5808  0.0759
 1171TIP3   OH225147   3.305   3.449   6.335 -0.0330 -0.1497  0.2760
 1171TIP3    H125148   3.291   3.536   6.299 -1.1079  0.0366  1.1341
 1171TIP3    H225149   3.245   3.443   6.409  0.2511 -1.5087  0.4155
 1172TIP3   OH225150   7.081   4.630   0.100  0.6265  0.0113  0.1158
 1172TIP3    H125151   6.990   4.651   0.081  0.1539 -1.5129  0.6267
 1172TIP3    H225152   7.120   4.612   0.014 -0.0234 -1.1039  0.0389
 1173TIP3   OH225153   0.661   4.022   6.986 -0.3689  0.2837  0.3100
 1173TIP3    H125154   0.606   3.990   6.915  1.0839 -0.9280 -0.3041
 1173TIP3    H225155   0.613   4.002   7.066 -1.3991  0.4209 -0.2769
 1174TIP3   OH225156   1.230   4.028   7.342 -1.1086 -0.5062 -0.2361
 1174TIP3    H125157   1.255   4.068   7.258 -1.4192  0.2646  0.0339
 1174TIP3    H225158   1.287   4.069   7.406 -0.2414 -1.7631 -0.1809
 1175TIP3   OH225159   6.104   5.892   7.195  0.1278  0.0043 -0.0207
 1175TIP3    H125160   6.054   5.910   7.115  1.0911  1.1107 -0.3894
 1175TIP3    H225161   6.189   5.933   7.180 -0.5194  2.4397  2.5885
 1176TIP3   OH225162   4.058   4.535   7.185 -0.4656  0.2187  0.6912
 1176TIP3    H125163   3.985   4.474   7.173 -0.0735 -0.3725  1.2822
 1176TIP3    H225164   4.135   4.486   7.156 -0.4033  1.1262 -0.7197
 1177TIP3   OH225165   2.300   6.029   7.866 -0.5030  0.0933  0.3075
 1177TIP3    H125166   2.307   5.977   7.786  1.7813 -1.3119  1.3564
 1177TIP3    H225167   2.362   6.101   7.852 -0.5741  0.2022  0.5598
 1178TIP3   OH225168   0.678   4.507   8.129 -0.3136 -0.3271 -0.0561
 1178TIP3    H125169   0.660   4.500   8.035 -1.2915 -1.6417  0.2245
 1178TIP3    H225170   0.773   4.498   8.135 -0.3818 -1.7277 -0.7944
 1179TIP3   OH225171   7.150   2.603   6.934 -0.0071  0.4662  0.3410
 1179TIP3    H125172   7.176   2.525   6.983  0.1204 -0.7231 -1.5704
 1179TIP3    H225173   7.102   2.569   6.858  1.0497  2.1798 -1.1533
 1180TIP3   OH225174   1.920   2.605   6.555  0.5958  0.0450  0.0052
 1180TIP3    H125175   1.944   2.687   6.511  0.3645 -0.6902 -1.5269
 1180TIP3    H225176   1.827   2.593   6.533  0.3393 -0.0592  1.1485
 1181TIP3   OH225177   3.313   3.616   1.807 -0.0744 -0.0809 -0.2083
 1181TIP3    H125178   3.325   3.686   1.871 -1.6802 -0.1715  0.2257
 1181TIP3    H225179   3.395   3.567   1.808  1.3248  2.1957 -1.0092
 1182TIP3   OH225180   2.294   2.092   6.413  0.6031  0.4473  0.1289
 1182TIP3    H125181   2.277   2.024   6.348  0.0939  2.0264 -1.3917
 1182TIP3    H225182   2.236   2.069   6.486 -1.4952  0.7058 -1.4118
 1183TIP3   OH225183   2.013   2.655   5.925  0.1713  0.1287 -0.1525
 1183TIP3    H125184   1.998   2.668   6.019  2.6746  1.6642  0.0939
 1183TIP3    H225185   1.968   2.729   5.883  1.3918  1.0208  0.0776
 1184TIP3   OH225186   0.702   4.190   7.429 -0.0240 -0.2740 -0.8066
 1184TIP3    H125187   0.688   4.277   7.468  0.8504 -0.1100 -0.8481
 1184TIP3    H225188   0.789   4.195   7.390  1.2813 -2.0742  1.7006
 1185TIP3   OH225189   4.676   4.779   0.759 -0.8746  0.3155 -0.1324
 1185TIP3    H125190   4.670   4.697   0.808 -1.5659 -1.1396 -2.5710
 1185TIP3    H225191   4.638   4.844   0.817 -1.7139 -1.3720  1.2536
 1186TIP3   OH225192   7.222   6.725   0.966 -0.0831 -0.5055 -0.4407
 1186TIP3    H125193   7.160   6.682   1.025 -0.0430  0.8282  0.6055
 1186TIP3    H225194   7.287   6.765   1.024 -0.0054  0.7851 -1.3867
 1187TIP3   OH225195   4.472   2.266   0.322 -0.5044 -0.2619 -0.1182
 1187TIP3    H125196   4.446   2.287   0.233 -0.1818 -1.2192 -0.4536
 1187TIP3    H225197   4.452   2.173   0.331  2.1971 -0.9194 -0.2185
 1188TIP3   OH225198   4.470   3.295   0.991 -0.4141 -0.0890  0.6325
 1188TIP3    H125199   4.472   3.390   0.979  0.3942 -0.0434  1.1030
 1188TIP3    H225200   4.520   3.259   0.918  0.5693 -0.0644  1.2860
 1189TIP3   OH225201   3.417   3.880   7.068 -0.1595 -0.4962 -0.1952
 1189TIP3    H125202   3.336   3.832   7.051  0.1626 -1.4152  0.8484
 1189TIP3    H225203   3.389   3.971   7.077 -1.2198 -0.9333  1.1332
 1190TIP3   OH225204   6.384   4.882   7.305 -1.0547 -0.1820  0.0646
 1190TIP3    H125205   6.302   4.834   7.301  0.4403 -3.1043  2.3906
 1190TIP3    H225206   6.371   4.945   7.377 -1.4861 -0.1566 -0.0341
 1191TIP3   OH225207   0.798   4.019   5.796  0.6857 -0.4154 -0.3842
 1191TIP3    H125208   0.717   4.051   5.835  0.6908  0.0299 -0.7366
 1191TIP3    H225209   0.842   4.098   5.764  0.0728 -0.9028 -2.4487
 1192TIP3   OH225210   5.053   1.595   1.714  0.2785 -0.3739 -0.0021
 1192TIP3    H125211   5.005   1.636   1.643  1.5596 -0.5670 -0.9985
 1192TIP3    H225212   5.003   1.617   1.793 -0.2979  1.1550 -0.7747
 1193TIP3   OH225213   5.648   4.103   1.546 -0.0618  0.3226  0.6382
 1193TIP3    H125214   5.582   4.046   1.506  0.2248  0.7544 -0.4635
 1193TIP3    H225215   5.615   4.192   1.530  0.6182  0.5283  0.4060
 1194TIP3   OH225216   3.999   5.087   6.770  0.5381 -0.4615  0.1030
 1194TIP3    H125217   4.018   5.181   6.767 -1.6311  0.0756  1.6699
 1194TIP3    H225218   3.989   5.062   6.678  0.7244  0.9274 -0.3165
 1195TIP3   OH225219   2.088   3.155   6.409 -0.8091  0.1988  0.4504
 1195TIP3    H125220   2.055   3.095   6.342  1.1844 -0.1448 -0.2845
 1195TIP3    H225221   2.050   3.240   6.386 -0.3255  0.0397 -1.0206
 1196TIP3   OH225222   1.866   5.598   0.742 -0.5517 -0.5872 -0.1764
 1196TIP3    H125223   1.801   5.556   0.798  0.4520 -1.4769  0.3493
 1196TIP3    H225224   1.937   5.622   0.802 -0.9974  1.6731 -0.4978
 1197TIP3   OH225225   2.608   4.256   8.474  0.6211 -0.3496 -0.3732
 1197TIP3    H125226   2.541   4.321   8.494  3.0527  1.5078  2.2047
 1197TIP3    H225227   2.561   4.173   8.467 -2.0048  1.0161  0.5978
 1198TIP3   OH225228   7.217   4.463   6.221 -0.0829 -0.1612  0.2059
 1198TIP3    H125229   7.188   4.412   6.145 -1.3261  1.4887 -0.4690
 1198TIP3    H225230   7.308   4.486   6.201 -0.6146  0.8421 -1.1177
 1199TIP3   OH225231   3.055   3.540   0.238 -0.1819  0.0695 -0.4668
 1199TIP3    H125232   3.011   3.582   0.312  1.1121  0.3105  0.2003
 1199TIP3    H225233   3.078   3.453   0.271  0.6317  0.2726 -0.4825
 1200TIP3   OH225234   0.536   7.273   1.714  0.2879  0.3228 -0.4503
 1200TIP3    H125235   0.629   7.257   1.705  0.3938  1.4252 -1.4302
 1200TIP3    H225236   0.496   7.223   1.643  0.1636  0.1913 -0.2902
 1201TIP3   OH225237   0.743   6.462   6.576  0.4961 -0.3489 -0.2382
 1201TIP3    H125238   0.696   6.530   6.528  0.9177 -0.3972 -0.7199
 1201TIP3    H225239   0.817   6.507   6.615 -0.7575  0.0414  1.7839
 1202TIP3   OH225240   2.110   2.603   7.011  0.0459  0.2680  0.4346
 1202TIP3    H125241   2.122   2.520   6.965 -1.2616  0.2411  0.1316
 1202TIP3    H225242   2.038   2.646   6.965 -0.7844  0.5669  1.9897
 1203TIP3   OH225243   3.491   3.699   6.836 -0.0757 -0.0023  0.0253
 1203TIP3    H125244   3.411   3.738   6.800  0.9075  0.0321 -2.1683
 1203TIP3    H225245   3.521   3.761   6.902 -1.3710  0.4123  0.2371
 1204TIP3   OH225246   5.730   2.544   7.259 -0.1415 -0.2441 -0.6168
 1204TIP3    H125247   5.826   2.536   7.263 -0.3146 -2.0630  0.5961
 1204TIP3    H225248   5.709   2.537   7.166  1.0434  2.4275 -1.1530
 1205TIP3   OH225249   2.188   4.337   6.408  0.8769 -0.2460 -0.7274
 1205TIP3    H125250   2.227   4.251   6.392  1.3551 -0.7938  2.8038
 1205TIP3    H225251   2.187   4.344   6.504 -0.5118  3.0730 -0.9417
 1206TIP3   OH225252   6.461   2.725   7.331 -0.0727 -0.0596 -0.3165
 1206TIP3    H125253   6.408   2.802   7.353  2.6603  1.1667  2.2861
 1206TIP3    H225254   6.538   2.760   7.286 -0.0856 -1.5709 -1.5767
 1207TIP3   OH225255   3.041   0.918   6.889 -0.3578 -0.0503 -0.3628
 1207TIP3    H125256   3.117   0.976   6.879 -1.5033  1.5144 -0.0960
 1207TIP3    H225257   3.072   0.833   6.858  1.2673  0.7585 -1.0208
 1208TIP3   OH225258   2.680   5.037   7.142  0.6693 -1.1432 -0.6096
 1208TIP3    H125259   2.672   5.008   7.051  1.6493  0.7526 -1.3140
 1208TIP3    H225260   2.673   5.132   7.138  1.6469 -0.9723  1.1971
 1209TIP3   OH225261   4.038   1.346   1.189  0.6619 -0.3244 -0.0378
 1209TIP3    H125262   4.025   1.426   1.241  4.0466  0.0132  0.3680
 1209TIP3    H225263   4.001   1.368   1.103 -0.3560  0.9231  0.6957
 1210TIP3   OH225264   1.908   0.277   6.506 -0.3555  0.2626 -0.0426
 1210TIP3    H125265   1.894   0.329   6.585 -0.8123  1.6665 -1.0358
 1210TIP3    H225266   1.849   0.315   6.441 -1.4104 -2.1168 -0.5352
 1211TIP3   OH225267   1.210   3.515   7.212  0.7064 -0.2829 -0.4667
 1211TIP3    H125268   1.235   3.593   7.161  4.7116 -1.9467 -1.2886
 1211TIP3    H225269   1.183   3.452   7.146  0.5476 -0.6192 -0.0767
 1212TIP3   OH225270   7.220   4.434   7.043  0.6392  0.4407 -0.0930
 1212TIP3    H125271   7.294   4.395   7.091  1.3942  0.9110 -0.8741
 1212TIP3    H225272   7.216   4.384   6.961  0.7039  1.0559 -0.4702
 1213TIP3   OH225273   6.892   4.330   7.494 -0.2711  0.1667 -0.0432
 1213TIP3    H125274   6.833   4.400   7.466  0.2646  0.3786 -0.6511
 1213TIP3    H225275   6.970   4.376   7.526 -0.1993 -0.1310  0.2091
 1214TIP3   OH225276   2.193   4.500   6.164 -0.0386  0.4729 -0.3004
 1214TIP3    H125277   2.171   4.427   6.106  2.3443 -4.7341  4.8037
 1214TIP3    H225278   2.272   4.538   6.126 -0.1189 -0.9376 -1.9622
 1215TIP3   OH225279   3.860   3.596   7.872 -0.0640  1.4686 -0.1979
 1215TIP3    H125280   3.898   3.684   7.871  0.5866  1.1738 -1.3070
 1215TIP3    H225281   3.868   3.565   7.782 -2.9477  1.3972 -0.4835
 1216TIP3   OH225282   0.660   2.718   6.098 -0.5594  0.0294 -0.1772
 1216TIP3    H125283   0.692   2.808   6.100 -0.3859 -0.0409  0.6128
 1216TIP3    H225284   0.603   2.711   6.175 -0.1851 -0.6612  0.0452
 1217TIP3   OH225285   6.493   5.385   0.239  0.2409 -0.1993 -0.7410
 1217TIP3    H125286   6.410   5.353   0.204  0.5602 -1.1388 -0.6322
 1217TIP3    H225287   6.523   5.449   0.175 -0.2949 -0.2489 -1.0478
 1218TIP3   OH225288   2.466   3.071   1.204  0.2556  0.3378 -0.3324
 1218TIP3    H125289   2.392   3.030   1.160  0.7943 -0.6061 -0.3851
 1218TIP3    H225290   2.543   3.027   1.168  0.8549  1.4184 -0.4011
 1219TIP3   OH225291   7.250   0.192   7.464  0.2071 -0.0250 -0.0782
 1219TIP3    H125292   7.193   0.118   7.483  0.4147  0.2560  1.7049
 1219TIP3    H225293   7.190   0.263   7.440 -0.0397 -0.4777 -0.8230
 1220TIP3   OH225294   2.907   3.431   7.185  0.0375  0.5034  0.2159
 1220TIP3    H125295   2.941   3.349   7.149 -1.5542 -0.6577  1.3150
 1220TIP3    H225296   2.922   3.424   7.279 -0.7865  1.1576  0.3983
 1221TIP3   OH225297   2.643   4.269   7.054  0.0453 -0.4287 -0.0028
 1221TIP3    H125298   2.711   4.282   7.121 -0.1417 -0.2640  0.1553
 1221TIP3    H225299   2.561   4.292   7.098 -0.1687 -1.1047 -0.0448
 1222TIP3   OH225300   3.505   1.486   6.916 -0.0921 -0.3539  0.1888
 1222TIP3    H125301   3.523   1.578   6.932 -0.2063 -0.1812 -0.6701
 1222TIP3    H225302   3.423   1.469   6.963  1.3358 -0.7151  2.6562
 1223TIP3   OH225303   2.344   3.635   6.675  0.1947  0.0633  0.6499
 1223TIP3    H125304   2.299   3.717   6.695  1.9689  0.3568  3.8513
 1223TIP3    H225305   2.413   3.660   6.614  0.3607  0.8525  1.1494
 1224TIP3   OH225306   1.942   2.969   5.945  0.0847 -0.3300 -0.5990
 1224TIP3    H125307   1.960   2.933   6.032 -0.9666 -0.7688 -0.5454
 1224TIP3    H225308   1.883   3.042   5.962  1.2671  0.6830 -0.8095
 1225TIP3   OH225309   2.351   3.432   5.893  0.1596  0.1930 -0.0118
 1225TIP3    H125310   2.267   3.465   5.860 -0.3462 -1.0300  0.0569
 1225TIP3    H225311   2.412   3.505   5.877 -0.2842  0.0446 -2.7226
 1226TIP3   OH225312   6.672   7.218   0.082 -0.5052  0.1600 -1.0584
 1226TIP3    H125313   6.696   7.301   0.122  0.8903 -1.3637  1.3860
 1226TIP3    H225314   6.578   7.226   0.064 -0.4239  2.1652 -0.6404
 1227TIP3   OH225315   6.989   2.376   1.342  0.0640  0.5785  0.5484
 1227TIP3    H125316   6.997   2.309   1.274  0.7454  0.1170  1.0736
 1227TIP3    H225317   6.910   2.353   1.390 -0.2979  0.7792  0.0425
 1228TIP3   OH225318   2.697   1.125   7.476 -0.3689 -0.0737 -0.1668
 1228TIP3    H125319   2.705   1.156   7.566  0.6378 -0.5550 -0.0856
 1228TIP3    H225320   2.698   1.205   7.423 -1.1002  0.2154  0.2534
 1229TIP3   OH225321   3.719   2.132   1.134  0.2440 -0.2678  0.5190
 1229TIP3    H125322   3.715   2.176   1.219  1.2791 -0.4329  0.6687
 1229TIP3    H225323   3.711   2.039   1.156 -1.6145 -0.1857  0.2342
 1230TIP3   OH225324   3.832   4.245   8.458  0.1237 -0.4637 -0.3235
 1230TIP3    H125325   3.899   4.190   8.418  0.9004 -0.2116  0.5856
 1230TIP3    H225326   3.756   4.189   8.468  0.1195 -0.6869 -1.6005
 1231TIP3   OH225327   1.769   3.307   6.653 -0.1346 -0.1802 -0.3903
 1231TIP3    H125328   1.813   3.248   6.715 -4.1655 -2.1305  0.7896
 1231TIP3    H225329   1.740   3.381   6.706 -0.0050  0.1381 -0.7598
 1232TIP3   OH225330   2.449   2.378   6.954  0.0261 -0.0801 -0.7075
 1232TIP3    H125331   2.419   2.291   6.980  0.8642  0.1783  1.1779
 1232TIP3    H225332   2.427   2.434   7.028  2.2973  0.7062 -0.6064
 1233TIP3   OH225333   1.233   4.511   6.499  0.6335 -0.1740  0.4346
 1233TIP3    H125334   1.303   4.468   6.451  0.8362 -0.2852  0.8274
 1233TIP3    H225335   1.273   4.540   6.581  0.0058 -1.0652  1.0756
 1234TIP3   OH225336   3.399   1.344   6.540  0.8744  0.5406 -1.1029
 1234TIP3    H125337   3.436   1.333   6.628  0.3026 -3.4810 -1.2795
 1234TIP3    H225338   3.476   1.349   6.483  1.2084  0.2463 -0.6828
 1235TIP3   OH225339   3.632   1.616   6.323 -0.1573 -0.0419 -0.4213
 1235TIP3    H125340   3.631   1.705   6.288  0.4164  0.2868  0.3951
 1235TIP3    H225341   3.654   1.561   6.248 -0.4246  0.5091 -0.9068
 1236TIP3   OH225342   1.864   1.117   7.871 -0.4492  0.0328 -0.3253
 1236TIP3    H125343   1.815   1.100   7.791 -0.1535 -1.7210 -0.1607
 1236TIP3    H225344   1.809   1.082   7.941 -0.2282  0.5957  0.1418
 1237TIP3   OH225345   3.745   2.943   7.543  0.4612 -0.3928  0.2131
 1237TIP3    H125346   3.741   2.888   7.464 -1.4889  1.1784 -0.8176
 1237TIP3    H225347   3.760   3.031   7.509  1.8210 -0.0043  1.7642
 1238TIP3   OH225348   4.447   4.377   7.901  0.2610 -0.4990  0.4326
 1238TIP3    H125349   4.517   4.317   7.874 -0.0930 -0.4474 -0.6357
 1238TIP3    H225350   4.464   4.457   7.851  0.5278  0.1778  1.5958
 1239TIP3   OH225351   2.131   3.413   7.146  0.1054  0.2414 -0.2395
 1239TIP3    H125352   2.141   3.399   7.052  0.0795  0.6053 -0.2960
 1239TIP3    H225353   2.157   3.504   7.160  1.3116 -0.1583  0.2783
 1240TIP3   OH225354   2.931   0.637   6.268 -0.6412  0.2014 -0.1523
 1240TIP3    H125355   2.848   0.591   6.280 -1.4276  1.6076  0.0070
 1240TIP3    H225356   2.932   0.659   6.175 -1.0929  1.3311  0.0945
 1241TIP3   OH225357   3.527   4.308   7.791  0.0798  0.1275 -0.1813
 1241TIP3    H125358   3.604   4.353   7.754  0.2245 -1.3410 -1.7136
 1241TIP3    H225359   3.462   4.312   7.721 -0.0220 -1.7026 -0.2058
 1242TIP3   OH225360   4.911   3.629   6.882  0.1086 -0.3373  1.1879
 1242TIP3    H125361   4.829   3.609   6.837  1.2683  1.5168 -1.8874
 1242TIP3    H225362   4.895   3.712   6.926  0.7794  0.8757 -0.7792
 1243TIP3   OH225363   3.537   1.074   7.213  0.1068  0.3649  0.4613
 1243TIP3    H125364   3.474   1.006   7.237 -0.4408  0.4994 -0.5786
 1243TIP3    H225365   3.594   1.032   7.148  0.6272  0.4729  0.8464
 1244TIP3   OH225366   4.395   3.811   6.921  0.5825 -0.0536 -0.0720
 1244TIP3    H125367   4.437   3.742   6.972  1.5519  0.1566 -0.5585
 1244TIP3    H225368   4.453   3.823   6.845 -0.2891  0.3502 -0.6858
 1245TIP3   OH225369   5.639   4.232   6.810  0.4895 -0.4151 -0.2519
 1245TIP3    H125370   5.674   4.232   6.899 -2.0763  1.0722  0.7942
 1245TIP3    H225371   5.677   4.311   6.770 -1.3665  1.0380  0.7896
 1246TIP3   OH225372   3.963   2.193   7.625 -0.4904 -0.8566 -0.3099
 1246TIP3    H125373   3.920   2.259   7.571  0.6311 -0.0592 -0.2443
 1246TIP3    H225374   4.002   2.131   7.563  1.8858  0.7547 -0.4653
 1247TIP3   OH225375   4.790   6.481   2.112  0.2082  0.3718 -0.5221
 1247TIP3    H125376   4.812   6.543   2.182  0.7906 -0.3995 -0.0195
 1247TIP3    H225377   4.869   6.429   2.101 -0.1158  0.0417 -1.2918
 1248TIP3   OH225378   2.693   1.592   7.257 -0.1647 -0.2225  0.2223
 1248TIP3    H125379   2.743   1.635   7.188 -0.5975 -0.2335 -0.0992
 1248TIP3    H225380   2.722   1.634   7.338  0.9969 -0.8239  0.1272
 1249TIP3   OH225381   6.053   5.137   6.514 -0.2730  0.7302  0.3934
 1249TIP3    H125382   5.990   5.207   6.496 -1.9676 -0.8331  0.1759
 1249TIP3    H225383   6.138   5.177   6.497 -1.2581  2.5452 -0.3962
 1250TIP3   OH225384   4.356   2.857   8.186 -0.4699 -0.3136  0.5279
 1250TIP3    H125385   4.351   2.770   8.225  0.0650 -0.1820  0.8838
 1250TIP3    H225386   4.409   2.908   8.246 -0.7339  0.2475  0.2906
 1251TIP3   OH225387   2.525   1.835   6.871  0.3609 -0.4257 -0.0465
 1251TIP3    H125388   2.462   1.797   6.810 -0.2200 -0.8298  0.8008
 1251TIP3    H225389   2.567   1.760   6.912  1.5608 -0.1662 -0.7531
 1252TIP3   OH225390   2.621   2.784   7.588  1.0634 -0.2253  0.0041
 1252TIP3    H125391   2.610   2.858   7.648  1.0278 -1.8717  2.0647
 1252TIP3    H225392   2.534   2.772   7.549  0.8112  0.1423  0.4442
 1253TIP3   OH225393   3.858   5.185   7.544  0.0962  0.2343 -0.5173
 1253TIP3    H125394   3.833   5.276   7.562  1.0001  0.9211 -2.5600
 1253TIP3    H225395   3.953   5.183   7.559  0.1374 -0.2695 -0.8244
 1254TIP3   OH225396   2.198   3.721   7.811 -0.5361  0.2208 -0.3141
 1254TIP3    H125397   2.211   3.705   7.905 -1.8795  0.3135 -0.1047
 1254TIP3    H225398   2.216   3.636   7.770 -0.3866  0.0634  0.0682
 1255TIP3   OH225399   5.825   5.656   8.332 -0.8418  0.9172  0.1246
 1255TIP3    H125400   5.877   5.667   8.252 -0.5532 -0.7141  0.0814
 1255TIP3    H225401   5.741   5.698   8.311 -0.5100  1.1658 -0.7635
 1256TIP3   OH225402   1.950   4.375   6.745  0.3520 -0.6447  0.0783
 1256TIP3    H125403   1.862   4.389   6.781  0.0587  0.9792 -1.1954
 1256TIP3    H225404   2.001   4.339   6.818 -0.8039  0.4611  1.4630
 1257TIP3   OH225405   2.387   2.266   6.189  0.1788  0.1441  0.3856
 1257TIP3    H125406   2.402   2.210   6.265 -0.2259  1.6591  1.6114
 1257TIP3    H225407   2.445   2.341   6.203  0.9680 -0.0897 -1.4049
 1258TIP3   OH225408   3.907   0.414   7.457 -0.6081 -0.0371 -0.3777
 1258TIP3    H125409   3.961   0.342   7.424 -1.3680 -1.7273  1.9231
 1258TIP3    H225410   3.821   0.399   7.418 -0.5999  0.0089 -0.4144
 1259TIP3   OH225411   3.817   4.531   2.207 -0.2227 -0.5741 -0.0875
 1259TIP3    H125412   3.901   4.546   2.251 -0.5448  1.5084 -0.1198
 1259TIP3    H225413   3.807   4.436   2.205  2.0628 -0.8383  0.0521
 1260TIP3   OH225414   6.762   3.492   6.417  0.1286  0.4397 -0.0017
 1260TIP3    H125415   6.810   3.487   6.499 -0.6120  0.5742  0.4402
 1260TIP3    H225416   6.705   3.415   6.418 -0.8978  1.1952  0.2543
 1261TIP3   OH225417   3.986   3.037   6.307 -0.1890 -0.0899  0.0795
 1261TIP3    H125418   3.986   3.029   6.402 -0.0367 -0.7406  0.0301
 1261TIP3    H225419   4.029   2.957   6.276 -3.1263 -1.4970 -0.6490
 1262TIP3   OH225420   1.903   1.505   6.982  0.2453  0.2631 -0.1509
 1262TIP3    H125421   1.909   1.423   7.032  0.3380  1.1156  1.2648
 1262TIP3    H225422   1.982   1.553   7.006  0.3329  0.6484 -1.2070
 1263TIP3   OH225423   4.652   4.428   0.135  0.9174 -0.5686 -0.0018
 1263TIP3    H125424   4.705   4.485   0.079 -1.3864  0.5912 -1.0998
 1263TIP3    H225425   4.610   4.368   0.073 -0.6981 -0.0818  0.6088
 1264TIP3   OH225426   7.070   4.953   1.294  0.0865 -0.1904  0.1673
 1264TIP3    H125427   7.145   5.012   1.305 -0.8055  1.0296 -0.2076
 1264TIP3    H225428   7.083   4.914   1.207 -0.7684  1.5528 -0.7570
 1265TIP3   OH225429   5.188   1.266   7.384 -0.3809  0.7239 -0.5078
 1265TIP3    H125430   5.201   1.249   7.291  0.5945 -1.6272  0.0286
 1265TIP3    H225431   5.119   1.205   7.411 -0.8831  1.6068  0.2650
 1266TIP3   OH225432   2.535   0.967   6.954 -0.5741  0.5812  0.0213
 1266TIP3    H125433   2.597   0.951   6.883 -1.1130 -0.3072 -0.2611
 1266TIP3    H225434   2.451   0.935   6.920 -0.7520 -0.2612  1.2120
 1267TIP3   OH225435   2.113   6.928   0.147 -0.2171 -0.3039 -0.0748
 1267TIP3    H125436   2.093   6.922   0.054 -0.0427  0.9957 -0.2053
 1267TIP3    H225437   2.147   7.017   0.158  0.0925 -0.5743  1.1607
 1268TIP3   OH225438   3.956   4.931   6.163  0.3904 -0.2716  0.4890
 1268TIP3    H125439   4.024   4.864   6.170  0.7635  0.0769  0.1963
 1268TIP3    H225440   3.881   4.893   6.209  0.6447 -0.8324  0.4513
 1269TIP3   OH225441   4.040   1.449   6.856 -0.3956 -0.0667 -0.2336
 1269TIP3    H125442   4.087   1.518   6.811  0.3157 -1.3588 -1.5059
 1269TIP3    H225443   4.027   1.483   6.945 -2.3534  2.7417 -1.5420
 1270TIP3   OH225444   4.251   1.272   6.788 -0.1419  0.4619 -0.1783
 1270TIP3    H125445   4.318   1.333   6.819 -0.9464  1.8121 -1.0823
 1270TIP3    H225446   4.171   1.324   6.783 -1.1880 -1.0363  0.5059
 1271TIP3   OH225447   0.042   4.218   7.131 -0.3554  0.2293 -0.0699
 1271TIP3    H125448  -0.015   4.212   7.208  0.1507  0.3592  0.3124
 1271TIP3    H225449   0.021   4.139   7.081 -0.2770 -0.1447  0.4789
 1272TIP3   OH225450   4.436   0.587   7.264  0.0140  0.6543 -0.1899
 1272TIP3    H125451   4.390   0.664   7.296 -1.5603 -0.4047  0.2000
 1272TIP3    H225452   4.408   0.516   7.322  2.5644  0.0455  0.3908
 1273TIP3   OH225453   2.812   2.355   7.127  0.0546  0.1743  0.0141
 1273TIP3    H125454   2.857   2.430   7.088 -1.2307  1.7311  1.4597
 1273TIP3    H225455   2.824   2.284   7.064  1.9057  1.3817 -1.0380
 1274TIP3   OH225456   4.276   1.941   7.208 -0.0684  0.2171  0.4762
 1274TIP3    H125457   4.215   1.885   7.159  0.0050 -0.5102  1.2077
 1274TIP3    H225458   4.342   1.966   7.144 -1.0443  0.8852 -0.2931
 1275TIP3   OH225459   0.955   4.181   7.328  0.2035 -0.4304 -0.5853
 1275TIP3    H125460   1.002   4.111   7.283 -1.7427 -1.2068 -1.5065
 1275TIP3    H225461   0.957   4.255   7.267 -0.5750 -0.7762 -1.0369
 1276TIP3   OH225462   2.354   2.892   6.398  0.0775  0.4618 -0.5884
 1276TIP3    H125463   2.306   2.864   6.476 -0.6453  1.4601 -0.6647
 1276TIP3    H225464   2.394   2.812   6.365 -1.7997 -0.4703 -0.6941
 1277TIP3   OH225465   2.630   2.117   6.363  0.1663 -0.4037  0.1912
 1277TIP3    H125466   2.660   2.154   6.280  1.0976 -0.2944  0.5662
 1277TIP3    H225467   2.665   2.028   6.365  0.2006 -0.3864  0.4912
 1278TIP3   OH225468   3.831   2.097   7.076  0.0416 -0.3919 -0.0675
 1278TIP3    H125469   3.876   2.077   7.157  0.4291  0.1516 -0.1447
 1278TIP3    H225470   3.896   2.081   7.007 -0.0407 -0.0964 -0.2155
 1279TIP3   OH225471   2.277   3.435   7.761 -0.4009 -0.4009 -0.0629
 1279TIP3    H125472   2.338   3.467   7.695  0.9452 -0.5293  1.0920
 1279TIP3    H225473   2.262   3.343   7.737  0.5986 -0.6322  0.1788
 1280TIP3   OH225474   2.792   1.597   7.992 -0.1156  0.6109 -0.4581
 1280TIP3    H125475   2.766   1.630   8.078  0.9445  2.1537 -0.7004
 1280TIP3    H225476   2.753   1.658   7.930  0.5941  0.5357 -0.9927
 1281TIP3   OH225477   1.329   3.412   6.345 -0.0513 -0.2510  0.0834
 1281TIP3    H125478   1.267   3.351   6.385 -0.6287  0.7314  0.6955
 1281TIP3    H225479   1.398   3.422   6.410  0.6638 -1.1791 -0.5120
 1282TIP3   OH225480   4.057   4.186   7.012  0.9382  0.0167  0.0025
 1282TIP3    H125481   3.980   4.230   6.977  1.4743  0.6355 -0.4008
 1282TIP3    H225482   4.116   4.177   6.937  0.8957 -1.2480  0.1066
 1283TIP3   OH225483   6.775   3.263   6.878 -0.0871  0.2491 -0.6091
 1283TIP3    H125484   6.697   3.304   6.840  0.6127  0.1275 -2.1754
 1283TIP3    H225485   6.802   3.324   6.946 -0.7972  0.9295 -0.9248
 1284TIP3   OH225486   3.898   0.298   1.838 -0.0656 -0.5018 -0.4772
 1284TIP3    H125487   3.973   0.276   1.893  1.8853  3.7114 -1.2511
 1284TIP3    H225488   3.923   0.270   1.750  0.3303  0.2894 -0.6192
 1285TIP3   OH225489   1.057   4.351   0.578 -0.1636  0.2319  0.4536
 1285TIP3    H125490   1.006   4.411   0.524 -0.7973 -0.4914  0.2445
 1285TIP3    H225491   0.992   4.292   0.617  0.5086 -0.7669  0.0914
 1286TIP3   OH225492   2.676   0.566   6.321  0.0730 -0.1367 -0.8670
 1286TIP3    H125493   2.649   0.638   6.262 -0.6314  1.0272  0.8389
 1286TIP3    H225494   2.621   0.577   6.398  1.1758 -1.5070  0.1228
 1287TIP3   OH225495   3.884   4.279   6.817  0.3714  0.6419 -0.2786
 1287TIP3    H125496   3.799   4.284   6.774  0.1477  1.3297  0.2461
 1287TIP3    H225497   3.939   4.231   6.755 -0.3094  0.4600 -0.7497
 1288TIP3   OH225498   3.593   1.200   1.210  0.1198  0.2916 -0.5102
 1288TIP3    H125499   3.658   1.192   1.279 -0.0407 -1.1633 -0.4969
 1288TIP3    H225500   3.603   1.289   1.177  1.9667  0.1589 -0.3661
 1289TIP3   OH225501   4.204   3.246   0.200  0.3444 -0.2394  0.5072
 1289TIP3    H125502   4.140   3.262   0.269  0.7745 -1.6050  1.2342
 1289TIP3    H225503   4.288   3.238   0.245  1.2066  2.4570 -0.5186
 1290TIP3   OH225504   1.009   3.648   6.994 -0.8020 -0.2096 -0.4786
 1290TIP3    H125505   0.988   3.733   7.033  0.8464 -0.7216  1.6698
 1290TIP3    H225506   1.035   3.668   6.904 -0.7962  1.5177 -0.1067
 1291TIP3   OH225507   3.191   2.611   6.870 -0.2724 -0.0387 -0.3686
 1291TIP3    H125508   3.276   2.605   6.914  0.0769 -0.2039 -1.0623
 1291TIP3    H225509   3.209   2.653   6.787 -1.4442  3.2520  0.9683
 1292TIP3   OH225510   3.637   4.265   6.655 -0.4594 -0.6978  0.3785
 1292TIP3    H125511   3.609   4.357   6.660  0.5060 -0.3624 -0.3433
 1292TIP3    H225512   3.572   4.223   6.599  0.7023  0.1871 -1.6864
 1293TIP3   OH225513   0.953   3.237   6.905 -0.1108 -0.3934  0.2051
 1293TIP3    H125514   0.871   3.193   6.887 -0.6730  0.4922  0.5180
 1293TIP3    H225515   0.927   3.324   6.936  0.9968  0.7333 -1.9411
 1294TIP3   OH225516   2.750   1.456   8.407  0.5207  0.4586  0.5219
 1294TIP3    H125517   2.734   1.367   8.376  0.8165  0.4040  0.5283
 1294TIP3    H225518   2.729   1.453   8.500  0.7081  0.3489  0.5605
 1295TIP3   OH225519   5.026   0.602   6.537 -0.0284  0.7025  0.7337
 1295TIP3    H125520   4.934   0.597   6.513  0.0817  1.7720  0.0797
 1295TIP3    H225521   5.062   0.516   6.512 -0.3324  1.1009 -1.1551
 1296TIP3   OH225522   3.577   2.478   8.457 -0.2521  0.0221 -0.1104
 1296TIP3    H125523   3.522   2.557   8.449 -2.8231 -1.7708 -0.8344
 1296TIP3    H225524   3.577   2.459   8.551  0.7281  1.1229  0.1179
 1297TIP3   OH225525   3.890   1.835   7.821  0.0495  0.0981  0.0670
 1297TIP3    H125526   3.975   1.804   7.789  0.5331 -0.6398  1.9955
 1297TIP3    H225527   3.911   1.884   7.901 -1.1000  2.1051 -0.8152
 1298TIP3   OH225528   4.976   2.256   7.017 -0.2645 -0.3899 -0.1287
 1298TIP3    H125529   4.934   2.175   6.989  0.2775 -0.8951  0.5140
 1298TIP3    H225530   5.021   2.233   7.099  0.9728  0.2295 -0.6265
 1299TIP3   OH225531   3.428   0.791   7.264 -0.6977  0.3373  0.7515
 1299TIP3    H125532   3.417   0.713   7.208 -1.1617  0.4839  0.6322
 1299TIP3    H225533   3.522   0.804   7.268 -0.6527  0.2455  0.1067
 1300TIP3   OH225534   3.028   5.844   7.157 -0.2423  0.2817 -0.5061
 1300TIP3    H125535   2.951   5.900   7.166 -0.7148 -0.1257 -1.8205
 1300TIP3    H225536   3.101   5.905   7.150 -0.6501  0.7258 -0.9884
 1301TIP3   OH225537   5.210   2.597   7.048 -0.6012  0.1367 -0.6899
 1301TIP3    H125538   5.206   2.652   7.126 -0.3606 -2.8287  1.5076
 1301TIP3    H225539   5.303   2.597   7.023 -0.6007  0.7039 -0.6835
 1302TIP3   OH225540   5.536   0.047   0.646 -0.4693 -0.7802 -0.0178
 1302TIP3    H125541   5.527   0.001   0.730 -2.5845 -0.9954 -0.3525
 1302TIP3    H225542   5.614   0.008   0.606 -0.5580 -2.0259  0.9848
 1303TIP3   OH225543   2.622   4.475   6.621  0.2178  0.0618  0.0004
 1303TIP3    H125544   2.543   4.465   6.675 -0.4000 -2.5403 -1.3171
 1303TIP3    H225545   2.641   4.387   6.590  2.8151  0.9103 -0.9070
 1304TIP3   OH225546   4.204   4.368   7.464  0.4088 -0.0714 -0.4091
 1304TIP3    H125547   4.282   4.318   7.492  1.0220  1.0565 -0.0827
 1304TIP3    H225548   4.183   4.332   7.378 -0.1048 -1.9805  0.4673
 1305TIP3   OH225549   7.010   4.598   7.211 -0.2932  0.0516 -0.2983
 1305TIP3    H125550   7.032   4.585   7.303 -1.9541  3.1261  0.6075
 1305TIP3    H225551   7.089   4.636   7.172  0.6620 -1.9310 -0.3578
 1306TIP3   OH225552   6.179   0.792   8.279 -0.0958  0.2222  0.0296
 1306TIP3    H125553   6.169   0.814   8.187  0.0221  1.4150  0.2889
 1306TIP3    H225554   6.225   0.868   8.317 -0.4135 -0.1148  1.1198
 1307TIP3   OH225555   1.970   3.446   6.048  0.2825  0.1824  0.1279
 1307TIP3    H125556   1.909   3.467   6.118 -0.4491 -0.6945 -0.2242
 1307TIP3    H225557   2.023   3.525   6.036  0.5034  0.2877  1.7474
 1308TIP3   OH225558   3.435   1.872   8.393 -0.1472  0.9835 -0.3845
 1308TIP3    H125559   3.369   1.836   8.452  1.4038 -1.0752  0.1397
 1308TIP3    H225560   3.450   1.803   8.328  1.1876  1.5813 -0.7368
 1309TIP3   OH225561   3.277   1.741   7.136  0.7690  0.2490 -0.3971
 1309TIP3    H125562   3.361   1.719   7.176  1.6329  0.4748 -2.0773
 1309TIP3    H225563   3.254   1.664   7.084  0.6126  0.7256 -1.0419
 1310TIP3   OH225564   2.942   3.293   8.256 -0.1523 -0.1184  0.3023
 1310TIP3    H125565   2.940   3.385   8.279  0.9789 -0.3587  1.4156
 1310TIP3    H225566   2.859   3.258   8.288  0.0315  0.2226  1.1610
 1311TIP3   OH225567   3.796   6.450   6.944 -0.6496 -0.8231 -0.5347
 1311TIP3    H125568   3.746   6.518   6.900  1.6395  0.9142 -0.5226
 1311TIP3    H225569   3.829   6.395   6.873  2.1871  1.3828 -0.9797
 1312TIP3   OH225570   4.985   3.110   6.595 -0.4676  0.0464  0.1015
 1312TIP3    H125571   5.043   3.147   6.661 -1.2463  1.6754 -0.0986
 1312TIP3    H225572   5.037   3.111   6.514 -1.2124  2.9765 -0.4276
 1313TIP3   OH225573   3.330   2.600   7.975 -0.1829 -0.0001  0.5392
 1313TIP3    H125574   3.426   2.601   7.978 -0.2090  0.6146  1.0997
 1313TIP3    H225575   3.303   2.596   8.066 -0.7199  1.3550  0.4424
 1314TIP3   OH225576   2.202   2.438   5.880  0.2653 -0.4081  0.0663
 1314TIP3    H125577   2.288   2.454   5.841  0.9228 -2.7849  0.4308
 1314TIP3    H225578   2.152   2.517   5.862  2.0178  0.3709 -1.5615
 1315TIP3   OH225579   3.597   2.620   0.867 -0.2258  0.7567 -0.0916
 1315TIP3    H125580   3.503   2.602   0.869 -0.4371  1.9692  2.1114
 1315TIP3    H225581   3.607   2.686   0.798 -0.7661 -0.3988 -1.3128
 1316TIP3   OH225582   2.853   2.978   7.128  0.1372  0.2106  0.1136
 1316TIP3    H125583   2.796   3.016   7.061 -0.1479 -0.1240  0.1630
 1316TIP3    H225584   2.802   2.905   7.163  0.5559 -0.0228  0.2331
 1317TIP3   OH225585   6.799   3.521   2.090 -0.3033 -0.5108 -0.2478
 1317TIP3    H125586   6.767   3.590   2.148 -0.1484  0.1166 -0.8965
 1317TIP3    H225587   6.780   3.440   2.136 -2.3596 -0.1343 -0.3712
 1318TIP3   OH225588   1.949   4.359   0.545 -0.1372 -0.6737 -0.3992
 1318TIP3    H125589   2.030   4.408   0.558  0.4107 -1.4561 -0.7956
 1318TIP3    H225590   1.912   4.350   0.632 -0.2849  0.5076 -0.3346
 1319TIP3   OH225591   1.836   3.702   6.555  0.0760 -0.0154 -0.5483
 1319TIP3    H125592   1.903   3.765   6.527  1.5599 -0.9285  0.9230
 1319TIP3    H225593   1.841   3.632   6.491  1.1096 -0.4766  0.0316
 1320TIP3   OH225594   2.874   2.174   6.525 -0.1266 -0.4392  0.0260
 1320TIP3    H125595   2.901   2.228   6.450 -0.9120  1.1549  0.8752
 1320TIP3    H225596   2.952   2.170   6.580 -0.0134 -0.3307 -0.1249
 1321TIP3   OH225597   4.294   1.903   6.687  0.0086  0.2052 -0.3519
 1321TIP3    H125598   4.323   1.952   6.764 -1.5212 -1.3781  1.2716
 1321TIP3    H225599   4.232   1.962   6.643 -0.1265  0.6062  0.3666
 1322TIP3   OH225600   4.178   5.508   7.513  0.1497 -0.0676 -0.4387
 1322TIP3    H125601   4.250   5.489   7.573  0.0140 -2.0998 -0.8869
 1322TIP3    H225602   4.174   5.432   7.455  0.5417  2.0285 -3.3287
 1323TIP3   OH225603   2.204   1.544   6.739 -0.0340  0.3044  0.2547
 1323TIP3    H125604   2.207   1.471   6.677  0.0912 -1.7703  2.6150
 1323TIP3    H225605   2.121   1.588   6.720  0.5378  0.4194 -2.1175
 1324TIP3   OH225606   4.059   3.027   1.803  0.0431 -0.3597 -0.0098
 1324TIP3    H125607   4.106   3.096   1.756 -0.2938 -1.9309 -2.7878
 1324TIP3    H225608   4.002   3.073   1.864 -0.4724  1.8538 -2.1056
 1325TIP3   OH225609   2.635   3.511   6.707 -0.0331  0.6102 -0.3974
 1325TIP3    H125610   2.588   3.564   6.642 -0.6977  0.5840  0.0563
 1325TIP3    H225611   2.632   3.564   6.787  1.3637  0.9428 -0.5584
 1326TIP3   OH225612   4.148   2.051   7.446  0.4151 -0.2996  0.3857
 1326TIP3    H125613   4.193   2.044   7.530 -0.3943  0.5671  0.8956
 1326TIP3    H225614   4.218   2.046   7.381  1.0169 -1.3035  1.0892
 1327TIP3   OH225615   1.432   3.158   6.621  0.1468 -0.3930  0.6357
 1327TIP3    H125616   1.343   3.173   6.653 -0.0510 -0.7485  0.2656
 1327TIP3    H225617   1.440   3.063   6.615  0.8637 -0.4018  1.5159
 1328TIP3   OH225618   2.526   3.648   5.885 -0.2162 -0.4853 -0.8056
 1328TIP3    H125619   2.490   3.737   5.880 -0.4801 -0.6369 -1.6694
 1328TIP3    H225620   2.564   3.643   5.973 -0.1420  0.5047 -0.7702
 1329TIP3   OH225621   4.972   2.824   7.486 -0.3469  0.0599  1.0562
 1329TIP3    H125622   4.939   2.741   7.521 -0.4015 -0.0316  0.7894
 1329TIP3    H225623   4.900   2.858   7.433 -0.5776  0.6209  1.7282
 1330TIP3   OH225624   4.119   3.405   7.692  0.0412  0.1884 -0.2375
 1330TIP3    H125625   4.208   3.382   7.666 -0.4241 -0.0973 -1.6238
 1330TIP3    H225626   4.128   3.443   7.779  1.7201  1.6807 -1.0428
 1331TIP3   OH225627   3.027   1.822   7.611 -0.5584 -0.0568  0.5220
 1331TIP3    H125628   3.089   1.857   7.547 -0.6019  0.7227  0.8996
 1331TIP3    H225629   2.968   1.767   7.559  0.7586 -1.2330  0.2515
 1332TIP3   OH225630   2.236   2.909   1.750  0.0661  0.4751 -0.6238
 1332TIP3    H125631   2.307   2.972   1.737  0.5068  0.0455 -0.2921
 1332TIP3    H225632   2.184   2.945   1.822  1.6902 -0.7476  1.2089
 1333TIP3   OH225633   3.234   5.307   7.074  0.2094 -0.4000 -0.0488
 1333TIP3    H125634   3.242   5.263   7.158 -0.3081  0.1460  0.2941
 1333TIP3    H225635   3.140   5.320   7.063  0.3644  0.7730 -0.0549
 1334TIP3   OH225636   4.163   2.925   0.990  0.1339  0.6974 -0.1007
 1334TIP3    H125637   4.239   2.912   0.933  1.2171  1.7173  1.0740
 1334TIP3    H225638   4.180   3.009   1.032 -1.3767  0.6522  0.6100
 1335TIP3   OH225639   4.829   4.940   7.724 -0.1686  0.2570 -0.1392
 1335TIP3    H125640   4.817   4.888   7.645 -1.5086 -0.6254  0.6167
 1335TIP3    H225641   4.911   4.986   7.710 -0.1260 -0.2856 -1.8190
 1336TIP3   OH225642   0.300   5.131   7.675 -0.6924  0.7663 -0.4819
 1336TIP3    H125643   0.224   5.078   7.698 -0.2227 -0.6990 -2.1650
 1336TIP3    H225644   0.371   5.097   7.730 -0.5839  0.1549 -0.9870
 1337TIP3   OH225645   2.346   3.245   7.254 -0.5250  0.1241  0.1211
 1337TIP3    H125646   2.272   3.301   7.228 -0.7829 -0.4913 -0.4706
 1337TIP3    H225647   2.319   3.210   7.339 -1.5214 -1.1796 -0.7206
 1338TIP3   OH225648   1.985   4.184   7.848  0.3732  0.5986  0.8106
 1338TIP3    H125649   1.918   4.167   7.914  1.0066 -1.0429  1.0564
 1338TIP3    H225650   1.940   4.234   7.780 -0.9867 -0.0658  1.2011
 1339TIP3   OH225651   2.716   4.333   1.503 -0.5654  0.3322  0.0307
 1339TIP3    H125652   2.812   4.330   1.505 -0.5962 -0.2161  0.5405
 1339TIP3    H225653   2.692   4.283   1.425 -0.4805 -0.5393  0.5555
 1340TIP3   OH225654   5.655   1.486   7.089  0.1026  0.2268  0.1400
 1340TIP3    H125655   5.612   1.428   7.026  0.8404 -0.0601 -0.1076
 1340TIP3    H225656   5.589   1.500   7.157 -0.7417  0.6345 -0.7444
 1341TIP3   OH225657   0.263   2.266   6.626  0.0147  0.2678  0.3948
 1341TIP3    H125658   0.271   2.219   6.543 -1.8480  0.7962 -0.1085
 1341TIP3    H225659   0.337   2.327   6.627  1.1642 -1.0973  0.0378
 1342TIP3   OH225660   4.389   3.503   6.158  0.1029  0.5441  0.4274
 1342TIP3    H125661   4.355   3.589   6.132 -0.3973  0.1628 -0.2205
 1342TIP3    H225662   4.455   3.522   6.224  1.9682  1.6271 -1.6904
 1343TIP3   OH225663   4.636   0.833   0.584 -0.5323  0.2488  0.1060
 1343TIP3    H125664   4.607   0.921   0.608 -1.5932  0.3956 -1.6932
 1343TIP3    H225665   4.562   0.776   0.605 -0.7004  0.0983 -0.8939
 1344TIP3   OH225666   2.825   3.215   1.207  0.3587 -0.3312 -0.2617
 1344TIP3    H125667   2.730   3.227   1.206  0.1817 -1.2782  1.8154
 1344TIP3    H225668   2.844   3.189   1.297  2.7370  1.0140 -0.3329
 1345TIP3   OH225669   1.043   3.712   6.692 -0.5138  0.1342 -0.4809
 1345TIP3    H125670   1.046   3.807   6.690 -0.0960  0.1239 -0.3453
 1345TIP3    H225671   1.012   3.687   6.604 -1.3600  0.4154 -0.2694
 1346TIP3   OH225672   0.702   3.594   6.698 -0.0727  0.9167 -0.3737
 1346TIP3    H125673   0.612   3.591   6.667  0.2728  2.1471 -1.5596
 1346TIP3    H225674   0.697   3.631   6.786 -0.9074 -0.9452  0.3678
 1347TIP3   OH225675   3.829   3.675   7.272  0.9522  0.2933  0.4225
 1347TIP3    H125676   3.755   3.735   7.263 -0.5641 -1.2950  1.8413
 1347TIP3    H225677   3.812   3.608   7.205  1.3600  0.1779  0.4381
 1348TIP3   OH225678   3.434   1.338   7.260 -0.0195 -0.0321 -0.1773
 1348TIP3    H125679   3.467   1.254   7.227 -0.0218  0.6025 -1.8234
 1348TIP3    H225680   3.356   1.356   7.208 -1.3767 -0.1322  1.7746
 1349TIP3   OH225681   3.138   1.893   7.859  0.1138 -0.3218 -0.2767
 1349TIP3    H125682   3.098   1.860   7.778 -0.1307  1.5584 -0.9522
 1349TIP3    H225683   3.111   1.831   7.926 -1.1650 -0.9246 -1.3245
 1350TIP3   OH225684   4.180   2.539   7.833  0.1168  0.3460  0.5328
 1350TIP3    H125685   4.095   2.523   7.874  0.1149 -0.3848  0.2517
 1350TIP3    H225686   4.244   2.511   7.899  0.1084 -1.2913 -0.1409
 1351TIP3   OH225687   4.453   3.694   7.877  0.7095  0.6792  0.5497
 1351TIP3    H125688   4.445   3.783   7.843  2.7003  1.0349  0.9680
 1351TIP3    H225689   4.366   3.673   7.910 -0.3179  1.6840 -1.4326
 1352TIP3   OH225690   7.071   0.139   1.332  0.3090  0.3630 -0.0758
 1352TIP3    H125691   7.164   0.148   1.353  0.0492  2.7421  0.1771
 1352TIP3    H225692   7.030   0.216   1.372 -2.0019 -1.4624  1.1562
 1353TIP3   OH225693   4.223   2.074   0.207 -0.6847 -0.2611  0.0382
 1353TIP3    H125694   4.199   1.999   0.152  1.5096 -0.5954 -0.5127
 1353TIP3    H225695   4.246   2.035   0.291 -0.9232 -0.0510  0.2021
 1354TIP3   OH225696   3.715   3.536   7.012 -0.4161 -0.6809 -0.0978
 1354TIP3    H125697   3.703   3.629   6.995  1.8241 -0.2510  0.5410
 1354TIP3    H225698   3.743   3.500   6.928  0.6300 -0.4119  0.1284
 1355TIP3   OH225699   4.058   1.186   1.461 -0.3688  0.1673  0.4374
 1355TIP3    H125700   4.007   1.268   1.464 -1.1589 -0.2978 -0.2334
 1355TIP3    H225701   4.071   1.169   1.368 -1.2742 -1.1252  0.5307
 1356TIP3   OH225702   3.578   1.417   8.499 -0.1803 -0.4402  0.1810
 1356TIP3    H125703   3.547   1.419   8.409  0.1685  0.5201  0.0690
 1356TIP3    H225704   3.634   1.494   8.506  1.0056 -1.3437  0.7846
 1357TIP3   OH225705   3.233   3.403   1.270 -0.1234 -0.1015  0.2077
 1357TIP3    H125706   3.232   3.337   1.200  2.6624  1.2461 -1.1700
 1357TIP3    H225707   3.317   3.389   1.314  0.3593  2.3220  0.0876
 1358TIP3   OH225708   4.034   2.671   1.005  0.8265  0.3078 -0.3135
 1358TIP3    H125709   3.991   2.655   1.089 -0.2839 -3.5360 -1.5105
 1358TIP3    H225710   4.090   2.747   1.021  0.9819 -0.5886  4.0071
 1359TIP3   OH225711   3.820   3.172   8.450  0.2519 -0.5627  0.4023
 1359TIP3    H125712   3.765   3.250   8.457 -1.4747 -1.4122 -2.8513
 1359TIP3    H225713   3.882   3.191   8.381  0.7138 -1.5454  0.5322
 1360TIP3   OH225714   6.781   3.447   1.426 -0.1953  0.5250 -0.1363
 1360TIP3    H125715   6.749   3.383   1.489 -0.9087 -0.0287 -1.0592
 1360TIP3    H225716   6.869   3.468   1.457  0.3069 -1.3989 -0.1890
 1361TIP3   OH225717   0.987   6.174   8.361 -0.3549 -0.1796 -0.2062
 1361TIP3    H125718   1.078   6.156   8.385 -1.0009 -0.6989  1.9247
 1361TIP3    H225719   0.937   6.159   8.441 -2.2850  0.4752 -1.2476
 1362TIP3   OH225720   5.168   5.436   0.106  0.2604 -0.1042  0.3416
 1362TIP3    H125721   5.150   5.353   0.062 -0.0799  0.2939 -0.2931
 1362TIP3    H225722   5.240   5.417   0.166  1.1591 -0.5200 -0.8476
 1363TIP3   OH225723   4.127   4.487   1.673  0.0539  0.1330 -0.2613
 1363TIP3    H125724   4.218   4.460   1.661  0.1456  0.7089 -0.8954
 1363TIP3    H225725   4.114   4.485   1.768  0.1386 -1.8455 -0.2751
 1364TIP3   OH225726   3.607   2.052   0.017 -0.2541 -0.2481  0.5435
 1364TIP3    H125727   3.683   1.995   0.008  0.1551  0.0812  1.7336
 1364TIP3    H225728   3.533   2.000  -0.012  0.6250 -0.0426 -2.1762
 1365TIP3   OH225729   4.282   2.991   6.131  0.3796 -0.2575  0.1928
 1365TIP3    H125730   4.242   2.928   6.192 -0.0318  1.3540  1.6204
 1365TIP3    H225731   4.376   2.981   6.145  0.2893  0.1120  1.1304
 1366TIP3   OH225732   4.584   1.843   7.173  0.3126  0.0110  0.0643
 1366TIP3    H125733   4.564   1.932   7.200  0.6856  0.6981 -1.8167
 1366TIP3    H225734   4.679   1.836   7.183  0.1664 -0.5313  1.1823
 1367TIP3   OH225735   1.193   3.435   6.692  0.0772  0.1602 -0.0315
 1367TIP3    H125736   1.132   3.430   6.619 -1.3786 -0.2058  1.1728
 1367TIP3    H225737   1.152   3.381   6.760  0.7235  1.6059  1.5277
 1368TIP3   OH225738   3.242   4.976   7.144 -0.0460 -0.1753  0.2415
 1368TIP3    H125739   3.267   5.021   7.224  3.2735  0.9349 -1.3279
 1368TIP3    H225740   3.311   4.998   7.081 -2.8287 -0.5430 -3.1143
 1369TIP3   OH225741   2.432   5.217   0.729  0.0191 -0.1057 -0.2535
 1369TIP3    H125742   2.510   5.177   0.690 -0.1268  2.4997 -3.3499
 1369TIP3    H225743   2.467   5.290   0.780 -0.3433  0.7765 -1.2613
 1370TIP3   OH225744   1.803   4.021   6.674 -0.4404  0.2268 -0.0239
 1370TIP3    H125745   1.730   4.026   6.612  0.0936  2.1696 -0.5238
 1370TIP3    H225746   1.776   4.079   6.746  0.5523  0.8668 -0.1659
 1371TIP3   OH225747   4.577   6.726   0.914  0.1878 -0.1536  0.4394
 1371TIP3    H125748   4.645   6.793   0.925 -0.1475  0.2685 -0.0339
 1371TIP3    H225749   4.616   6.663   0.854  0.3777 -0.2097  0.6195
 1372TIP3   OH225750   4.387   3.906   6.651 -0.1249 -0.0288  0.0596
 1372TIP3    H125751   4.442   3.983   6.634 -1.7533  0.8504 -1.3284
 1372TIP3    H225752   4.401   3.850   6.574 -1.9643  0.6707 -0.7916
 1373TIP3   OH225753   2.687   2.262   7.789  0.3770  0.2620 -0.3074
 1373TIP3    H125754   2.640   2.230   7.712  1.5613  0.1912 -1.0141
 1373TIP3    H225755   2.756   2.198   7.803  0.7965  0.8217  0.2030
 1374TIP3   OH225756   3.613   3.615   0.950  0.1206 -0.2125  0.1531
 1374TIP3    H125757   3.567   3.684   0.998  0.8432 -0.1301  0.7262
 1374TIP3    H225758   3.600   3.637   0.858 -0.5712  0.0846  0.3140
 1375TIP3   OH225759   5.565   5.239   7.535 -0.0905 -0.8249 -0.1570
 1375TIP3    H125760   5.656   5.230   7.564  0.8093  2.1598 -1.8817
 1375TIP3    H225761   5.570   5.285   7.452 -3.2484  0.3507  0.2159
 1376TIP3   OH225762   2.330   0.570   7.595 -0.0487  0.3118  0.1562
 1376TIP3    H125763   2.421   0.589   7.571  0.5468 -0.5105  1.6887
 1376TIP3    H225764   2.288   0.655   7.603  1.3664  0.8336  2.3541
 1377TIP3   OH225765   0.108   3.458   6.931 -0.1383 -0.1694  0.4722
 1377TIP3    H125766   0.169   3.529   6.954  0.4231 -0.1612 -0.9763
 1377TIP3    H225767   0.023   3.490   6.959  0.4019  0.1935  1.7376
 1378TIP3   OH225768   3.799   1.737   7.224 -0.1792 -0.3095 -0.0563
 1378TIP3    H125769   3.819   1.830   7.238  0.4741 -0.5086  0.4270
 1378TIP3    H225770   3.815   1.697   7.310  1.0773 -1.1171 -0.6441
 1379TIP3   OH225771   3.506   4.455   6.485  0.0756  0.4041  0.0002
 1379TIP3    H125772   3.411   4.447   6.473  0.3707  0.1797 -2.4439
 1379TIP3    H225773   3.516   4.488   6.574 -2.2589 -0.5787  0.6686
 1380TIP3   OH225774   3.877   3.942   7.522 -0.1157  0.3386 -0.3709
 1380TIP3    H125775   3.931   3.866   7.501 -0.1580  0.7056 -1.8636
 1380TIP3    H225776   3.923   3.985   7.595  0.7248 -0.2725 -0.5350
 1381TIP3   OH225777   5.942   3.025   6.655 -0.3989  0.5415 -0.0940
 1381TIP3    H125778   5.935   3.119   6.672 -0.6433  1.2403 -3.5838
 1381TIP3    H225779   5.856   3.000   6.623  0.3660 -0.3002 -1.5637
 1382TIP3   OH225780   3.735   3.812   6.988  0.1479  0.2549 -0.0282
 1382TIP3    H125781   3.701   3.895   7.023 -0.8697 -0.0961 -0.1684
 1382TIP3    H225782   3.788   3.838   6.913 -0.1167  0.7872 -0.0332
 1383TIP3   OH225783   6.544   5.048   7.155 -0.2725 -0.0960 -0.4280
 1383TIP3    H125784   6.563   5.053   7.249 -1.0212 -1.0372 -0.2155
 1383TIP3    H225785   6.459   5.005   7.150 -0.1391 -0.2563 -1.5491
 1384TIP3   OH225786   5.377   4.295   6.829  0.1128  0.3030  0.1537
 1384TIP3    H125787   5.472   4.290   6.823  0.1395  0.6502  0.2768
 1384TIP3    H225788   5.361   4.362   6.895 -0.2075 -0.4059  0.7987
 1385TIP3   OH225789   5.649   3.852   7.511  0.6020  0.4929 -0.1919
 1385TIP3    H125790   5.603   3.836   7.429  0.3869 -1.7568  0.3244
 1385TIP3    H225791   5.579   3.864   7.576  0.7663  3.2046 -0.4760
 1386TIP3   OH225792   1.289   5.117   6.041  0.3667  0.5805 -0.1355
 1386TIP3    H125793   1.316   5.052   5.976  1.8614  0.3754  0.6853
 1386TIP3    H225794   1.369   5.142   6.086 -0.5359  1.2983  1.1165
 1387TIP3   OH225795   4.203   0.191   6.812 -0.0994 -0.2047 -0.0265
 1387TIP3    H125796   4.295   0.209   6.828 -0.4144  2.7641 -1.1077
 1387TIP3    H225797   4.197   0.096   6.807  2.6815 -0.4841  1.2281
 1388TIP3   OH225798   5.058   3.174   0.402 -0.2158  0.3565 -0.8397
 1388TIP3    H125799   5.140   3.173   0.451 -1.4337 -0.6974  1.1973
 1388TIP3    H225800   5.076   3.119   0.325  0.6546 -0.7676  0.1430
 1389TIP3   OH225801   5.905   3.694   0.193 -0.1044  0.3440  0.1421
 1389TIP3    H125802   5.972   3.641   0.150 -1.1331 -0.2853 -0.7265
 1389TIP3    H225803   5.929   3.785   0.172  0.2506  0.1072 -0.5058
 1390TIP3   OH225804   3.655   6.872   7.983 -0.0247 -0.2531 -0.2889
 1390TIP3    H125805   3.667   6.864   7.888  1.8777  1.5994 -0.2350
 1390TIP3    H225806   3.718   6.810   8.020 -1.4748 -1.7264 -0.2104
 1391TIP3   OH225807   1.405   5.302   6.383  0.4733 -0.1722 -0.8069
 1391TIP3    H125808   1.462   5.369   6.421  3.2818 -1.6195 -2.3714
 1391TIP3    H225809   1.416   5.310   6.289 -1.3869 -0.9541 -1.1187
 1392TIP3   OH225810   3.302   4.176   7.558  0.6767 -0.2356 -0.2635
 1392TIP3    H125811   3.208   4.192   7.545  0.3597 -1.3476  0.5240
 1392TIP3    H225812   3.309   4.081   7.564  2.0253 -0.2182 -1.4517
 1393TIP3   OH225813   3.380   5.551   6.779 -0.7613  0.3601  0.2060
 1393TIP3    H125814   3.400   5.575   6.688 -1.8953 -0.1408 -0.1822
 1393TIP3    H225815   3.391   5.456   6.782 -0.7818  0.3684  0.5819
 1394TIP3   OH225816   4.778   4.151   6.604  0.2602 -0.2773 -0.0294
 1394TIP3    H125817   4.808   4.066   6.573  1.0048 -0.5731  1.4633
 1394TIP3    H225818   4.683   4.142   6.612  0.0344 -0.1574 -2.2742
 1395TIP3   OH225819   5.517   3.694   6.582 -0.4145 -0.0592  0.4401
 1395TIP3    H125820   5.490   3.640   6.508  0.5940  2.0744 -1.5506
 1395TIP3    H225821   5.587   3.644   6.624  0.2823 -0.4770 -1.1801
 1396TIP3   OH225822   0.941   0.919   6.895  0.1616 -0.4070 -0.3347
 1396TIP3    H125823   0.991   0.861   6.952  1.6002 -0.4884 -1.6699
 1396TIP3    H225824   0.850   0.892   6.908  0.5590 -1.0601  1.1817
 1397TIP3   OH225825   5.793   3.200   7.032 -0.6874  0.0396 -0.2137
 1397TIP3    H125826   5.782   3.280   7.084 -2.2159 -0.1977 -0.1507
 1397TIP3    H225827   5.888   3.186   7.030 -0.5947 -0.6553  3.5939
 1398TIP3   OH225828   1.946   7.178   6.574 -0.2448  0.3286  0.4311
 1398TIP3    H125829   1.898   7.173   6.492  0.2880  2.8963 -0.0603
 1398TIP3    H225830   2.038   7.170   6.549 -0.1268  0.1218  0.9055
 1399TIP3   OH225831   2.922   1.378   7.057 -0.2530 -0.5362  0.4298
 1399TIP3    H125832   2.877   1.435   7.119 -1.3513 -1.2819  0.3427
 1399TIP3    H225833   2.880   1.292   7.068  0.3197 -0.9537 -0.5165
 1400TIP3   OH225834   4.767   2.346   7.215  0.3515  0.4683  0.3032
 1400TIP3    H125835   4.846   2.390   7.247  0.4525  0.5056  0.0106
 1400TIP3    H225836   4.774   2.352   7.119 -0.0788  0.6027  0.2785
 1401TIP3   OH225837   2.586   2.555   8.262  0.1777  0.3024 -0.3646
 1401TIP3    H125838   2.609   2.467   8.231 -1.7653  0.2628 -1.8148
 1401TIP3    H225839   2.596   2.610   8.184  1.7923  1.4680  0.6407
 1402TIP3   OH225840   3.407   2.283   6.074  0.5357 -0.2173 -0.2091
 1402TIP3    H125841   3.318   2.287   6.039  0.0462 -1.0051  0.9485
 1402TIP3    H225842   3.398   2.241   6.159  2.3459 -2.8549 -1.2576
 1403TIP3   OH225843   2.979   3.084   6.231  0.2415 -0.0366 -0.3897
 1403TIP3    H125844   2.994   3.159   6.173 -1.4113 -0.3038 -1.1710
 1403TIP3    H225845   2.991   3.120   6.319  0.1428  0.9865 -0.7864
 1404TIP3   OH225846   2.287   2.492   6.772 -0.2962  0.2331 -0.0242
 1404TIP3    H125847   2.224   2.421   6.784  0.3442 -0.5397 -1.1628
 1404TIP3    H225848   2.365   2.463   6.818 -0.3839  0.6600  0.3875
 1405TIP3   OH225849   3.995   6.799   7.445 -0.2791  0.3905  0.0883
 1405TIP3    H125850   3.970   6.804   7.353 -0.9409  1.4047  0.3085
 1405TIP3    H225851   3.981   6.708   7.470 -1.5144  0.4371 -0.4271
 1406TIP3   OH225852   1.916   1.232   7.096 -0.0874  0.2526  0.1405
 1406TIP3    H125853   1.990   1.208   7.151 -0.5884 -0.2805  0.5871
 1406TIP3    H225854   1.840   1.190   7.137 -0.9089  2.2023  0.6842
 1407TIP3   OH225855   4.776   6.094   8.420  0.2137 -0.0439  0.0601
 1407TIP3    H125856   4.818   6.159   8.363 -1.1495  0.5292 -0.2964
 1407TIP3    H225857   4.820   6.106   8.504  0.8098  0.5178 -0.3200
 1408TIP3   OH225858   4.575   4.554   0.917  0.8835  0.0247  0.6391
 1408TIP3    H125859   4.503   4.509   0.961 -0.6868  1.0627 -0.7958
 1408TIP3    H225860   4.616   4.488   0.862  1.8152 -0.8715  2.3785
 1409TIP3   OH225861   5.530   3.543   8.451 -0.2957  0.7103 -0.3298
 1409TIP3    H125862   5.491   3.534   8.538  0.6165  0.0722  0.0190
 1409TIP3    H225863   5.455   3.547   8.391 -0.9036 -0.9853  0.2863
 1410TIP3   OH225864   6.143   3.246   0.791  0.0486 -0.3027 -0.6124
 1410TIP3    H125865   6.093   3.166   0.808  1.0526 -1.0084 -0.9300
 1410TIP3    H225866   6.081   3.317   0.807 -0.6835 -1.1240  0.2770
 1411TIP3   OH225867   3.880   2.434   7.505 -0.0004  0.0851 -0.3228
 1411TIP3    H125868   3.844   2.489   7.574  0.7901  1.3517 -0.9118
 1411TIP3    H225869   3.964   2.475   7.482  0.3256 -1.0191 -1.1712
 1412TIP3   OH225870   4.265   0.445   1.349  0.6099  0.6989  0.4029
 1412TIP3    H125871   4.287   0.491   1.430 -0.2212 -0.1845  1.1426
 1412TIP3    H225872   4.174   0.470   1.331  0.6908  0.6477 -0.0953
 1413TIP3   OH225873   6.158   5.075   7.357  0.1671 -0.4635 -0.0239
 1413TIP3    H125874   6.188   5.145   7.299  0.0694  0.2084  0.7276
 1413TIP3    H225875   6.111   5.014   7.299  0.1020  0.1765 -0.6538
 1414TIP3   OH225876   4.524   2.913   0.552  0.0716  0.8507  0.0301
 1414TIP3    H125877   4.592   2.965   0.594  0.3483 -1.1267  2.1768
 1414TIP3    H225878   4.572   2.855   0.493  0.1387  0.5614  0.3599
 1415TIP3   OH225879   2.800   6.516   1.415  0.3723 -0.1152  0.1293
 1415TIP3    H125880   2.886   6.475   1.413  0.6307  0.4654 -2.0478
 1415TIP3    H225881   2.815   6.606   1.386 -0.3949  1.1771  3.5087
 1416TIP3   OH225882   5.474   2.571   6.947  0.0592 -0.6189 -0.0761
 1416TIP3    H125883   5.456   2.479   6.927 -2.3339 -0.0323 -0.7185
 1416TIP3    H225884   5.570   2.577   6.944  0.1592 -2.5561 -2.4750
 1417TIP3   OH225885   4.277   1.813   6.162  0.0096 -0.0140  0.2418
 1417TIP3    H125886   4.204   1.875   6.168  1.5244  1.7540  1.3883
 1417TIP3    H225887   4.347   1.863   6.119  0.7564 -1.4364 -0.2110
 1418TIP3   OH225888   6.359   3.108   5.814 -0.3390  0.2802  0.4915
 1418TIP3    H125889   6.396   3.025   5.784  2.1763  1.7022 -0.5131
 1418TIP3    H225890   6.419   3.138   5.882 -0.8448  1.6059  0.3662
 1419TIP3   OH225891   4.592   5.075   8.471  0.9481  0.7652 -0.3906
 1419TIP3    H125892   4.586   5.041   8.382 -0.5644 -0.2543  0.0812
 1419TIP3    H225893   4.666   5.029   8.510  0.2969 -0.3526 -0.4654
 1420TIP3   OH225894   4.859   2.602   6.684  0.7160 -0.4583 -0.0061
 1420TIP3    H125895   4.926   2.542   6.718  0.2043 -1.1441 -0.2024
 1420TIP3    H225896   4.902   2.688   6.684  1.4880 -0.8388  0.1764
 1421TIP3   OH225897   4.958   3.413   7.875 -0.4807  0.4330  0.7333
 1421TIP3    H125898   4.969   3.327   7.915  0.8319  0.8022  1.1758
 1421TIP3    H225899   5.046   3.451   7.873 -0.8914  1.3783 -0.3400
 1422TIP3   OH225900   5.724   2.557   1.123 -0.5235 -0.4730 -0.5155
 1422TIP3    H125901   5.649   2.538   1.066 -0.4190 -1.0975 -0.4469
 1422TIP3    H225902   5.703   2.515   1.206 -1.5182  1.9956  0.5242
 1423TIP3   OH225903   2.788   3.109   6.867  0.0779 -0.1306  0.3516
 1423TIP3    H125904   2.755   3.169   6.933 -0.2731  0.3785 -0.2840
 1423TIP3    H225905   2.715   3.097   6.806  0.1699 -1.1234  0.4144
 1424TIP3   OH225906   6.872   6.774   0.325  0.1659 -0.0625  0.0363
 1424TIP3    H125907   6.815   6.850   0.325 -0.3970 -0.4761  0.1629
 1424TIP3    H225908   6.907   6.770   0.414  0.3252  0.1462 -0.0181
 1425TIP3   OH225909   5.154   7.033   7.939 -0.2369 -0.6588  0.0760
 1425TIP3    H125910   5.239   7.054   7.978 -0.0012 -1.1916 -0.1503
 1425TIP3    H225911   5.103   6.994   8.010 -0.4817  0.1540  0.3517
 1426TIP3   OH225912   2.368   4.440   7.458 -0.0969  0.0341  0.0574
 1426TIP3    H125913   2.412   4.357   7.479 -2.3614 -1.0741  0.5283
 1426TIP3    H225914   2.433   4.507   7.478  1.0780 -1.5221  1.6320
 1427TIP3   OH225915   3.461   4.735   0.456  0.0121 -0.1019  0.2589
 1427TIP3    H125916   3.435   4.718   0.366 -1.1703  0.9289  0.3983
 1427TIP3    H225917   3.506   4.819   0.454  0.8057 -0.5109  0.4932
 1428TIP3   OH225918   6.072   2.196   6.469  0.1151  0.0648  0.5060
 1428TIP3    H125919   6.027   2.126   6.517 -0.5291 -0.8677 -1.4036
 1428TIP3    H225920   6.165   2.176   6.479  0.0020  0.0774  1.6403
 1429TIP3   OH225921   3.565   4.253   6.280  0.3314  0.1657 -0.6265
 1429TIP3    H125922   3.554   4.326   6.341  1.9613 -0.8901  0.9827
 1429TIP3    H225923   3.477   4.221   6.264 -0.0891  0.2849  1.4136
 1430TIP3   OH225924   2.220   3.219   6.730  0.3791 -0.0364 -0.1693
 1430TIP3    H125925   2.144   3.219   6.672  0.1378 -0.8091  0.1469
 1430TIP3    H225926   2.287   3.269   6.682  0.0610 -0.3575 -0.9492
 1431TIP3   OH225927   4.611   2.585   7.179  0.3429 -0.1629 -0.0306
 1431TIP3    H125928   4.647   2.497   7.184  2.0879  0.5301 -0.1183
 1431TIP3    H225929   4.602   2.603   7.085 -2.8484 -1.3386 -0.0238
 1432TIP3   OH225930   6.032   3.060   1.170 -0.8044  0.0011  0.0937
 1432TIP3    H125931   5.988   3.117   1.233 -0.3429  1.6738 -1.0839
 1432TIP3    H225932   5.997   3.086   1.085 -0.1277 -1.0547 -0.5149
 1433TIP3   OH225933   5.411   1.125   8.181 -0.0077  0.3441  0.2451
 1433TIP3    H125934   5.462   1.115   8.261  2.8005  1.6222 -1.2876
 1433TIP3    H225935   5.434   1.049   8.128  1.3970  1.6134 -1.0031
 1434TIP3   OH225936   3.324   4.469   2.004  0.0512 -0.3382  0.5087
 1434TIP3    H125937   3.237   4.457   2.042  0.4916  0.9591  1.9985
 1434TIP3    H225938   3.384   4.460   2.079  1.2681 -2.0736 -0.6452
 1435TIP3   OH225939   3.216   2.407   7.191 -0.2699  0.1668 -0.4115
 1435TIP3    H125940   3.278   2.407   7.264 -1.3944 -1.4986  0.5883
 1435TIP3    H225941   3.144   2.463   7.221 -0.1415  0.5425 -0.7914
 1436TIP3   OH225942   5.360   1.227   0.046  0.1945 -0.3399 -0.0794
 1436TIP3    H125943   5.354   1.132   0.056  0.9981 -0.1215  2.9323
 1436TIP3    H225944   5.313   1.245  -0.035 -0.1680 -3.2818 -0.5890
 1437TIP3   OH225945   5.843   4.672   6.386  0.0296  0.1159  0.2157
 1437TIP3    H125946   5.869   4.701   6.298 -0.7669  0.2426  0.0187
 1437TIP3    H225947   5.925   4.672   6.436  0.6319 -0.7537 -0.7417
 1438TIP3   OH225948   7.188   2.526   6.267  0.2823 -0.0059  0.1872
 1438TIP3    H125949   7.172   2.466   6.340  1.2816 -0.7555 -0.1967
 1438TIP3    H225950   7.259   2.485   6.218 -0.2524  0.5845 -1.1052
 1439TIP3   OH225951   5.653   1.459   6.691  0.2636  0.0969  0.2957
 1439TIP3    H125952   5.620   1.492   6.608 -0.3559 -0.9708  0.0949
 1439TIP3    H225953   5.686   1.371   6.670  1.0394  0.2232  0.9753
 1440TIP3   OH225954   3.560   3.994   7.675  0.0503 -0.4797 -0.1317
 1440TIP3    H125955   3.568   4.058   7.604  1.0531 -0.7102 -0.2418
 1440TIP3    H225956   3.606   3.917   7.642  0.4822 -0.6067  0.7525
 1441TIP3   OH225957   2.591   4.964   6.898  0.6967 -0.7434 -0.0306
 1441TIP3    H125958   2.568   4.894   6.838  2.1822  0.3803 -1.9635
 1441TIP3    H225959   2.513   5.020   6.902  0.3762 -1.1695 -0.4032
 1442TIP3   OH225960   2.948   5.270   7.067 -0.2954  0.1509 -0.5190
 1442TIP3    H125961   2.912   5.261   7.155  0.8327  2.7042  0.2285
 1442TIP3    H225962   2.874   5.251   7.009 -0.9300 -1.9846  0.9310
 1443TIP3   OH225963   5.646   4.133   6.509 -0.0318 -0.1799 -0.0009
 1443TIP3    H125964   5.725   4.085   6.534  0.7762  1.1986  0.1550
 1443TIP3    H225965   5.591   4.131   6.588 -0.0529 -0.9439 -0.0352
 1444TIP3   OH225966   4.635   5.005   6.870  0.1328  0.0205  0.1235
 1444TIP3    H125967   4.599   5.070   6.809 -0.5368 -1.1392 -0.7252
 1444TIP3    H225968   4.728   4.998   6.846 -0.1901 -0.6343 -0.9415
 1445TIP3   OH225969   4.602   2.755   0.287 -0.2660  0.2542  0.2124
 1445TIP3    H125970   4.621   2.669   0.250 -0.7921 -0.3365  1.3020
 1445TIP3    H225971   4.547   2.797   0.222  1.1571  0.3240 -0.9814
 1446TIP3   OH225972   5.687   3.599   7.646 -0.0492  0.5628 -0.0996
 1446TIP3    H125973   5.663   3.684   7.609 -0.8518  2.1577  3.8064
 1446TIP3    H225974   5.781   3.604   7.659 -0.3070  1.5135  1.5545
 1447TIP3   OH225975   3.696   1.674   0.065 -0.2865 -0.1090 -0.4601
 1447TIP3    H125976   3.629   1.723   0.114  0.6534  0.1227  0.6192
 1447TIP3    H225977   3.764   1.738   0.047 -0.5534 -0.2419 -1.9527
 1448TIP3   OH225978   3.581   1.914   7.238 -0.7976 -0.2160 -0.3824
 1448TIP3    H125979   3.582   1.965   7.157 -1.3182  0.6626  0.1493
 1448TIP3    H225980   3.607   1.826   7.212  1.5985  0.6540 -1.0686
 1449TIP3   OH225981   5.359   4.634   7.287  0.2074  0.0133  0.4225
 1449TIP3    H125982   5.323   4.722   7.285  0.2841  0.0170 -0.9760
 1449TIP3    H225983   5.451   4.645   7.264  0.5845 -0.2558  1.7785
 1450TIP3   OH225984   6.937   1.181   6.980 -0.1180  0.2514  0.2769
 1450TIP3    H125985   6.892   1.097   6.973 -0.8049  0.5427  1.0693
 1450TIP3    H225986   6.867   1.245   6.997  0.4151  0.9550 -0.1262
 1451TIP3   OH225987   5.048   2.777   5.784 -0.1612  0.2181 -0.0241
 1451TIP3    H125988   5.123   2.771   5.844 -0.7621  1.3553  0.8691
 1451TIP3    H225989   5.070   2.851   5.727 -0.0081 -0.2874 -0.6242
 1452TIP3   OH225990   3.570   7.183   2.113  0.1401  0.5570 -0.5198
 1452TIP3    H125991   3.498   7.225   2.159 -0.3886 -0.2730 -0.5814
 1452TIP3    H225992   3.648   7.205   2.165 -0.4497 -0.4003  0.7918
 1453TIP3   OH225993   5.316   3.859   1.336  0.1433 -0.5946  0.3351
 1453TIP3    H125994   5.393   3.812   1.305 -1.2784 -3.1741  0.5071
 1453TIP3    H225995   5.273   3.890   1.256  0.8765  0.0736  0.1949
 1454TIP3   OH225996   6.335   7.060   0.058 -0.0400 -0.1075  0.1585
 1454TIP3    H125997   6.251   7.093   0.026  0.3980  1.2618  0.4150
 1454TIP3    H225998   6.387   7.046  -0.020 -0.5054 -0.9897 -0.0041
 1455TIP3   OH225999   4.621   6.018   1.100 -0.2255  0.0677 -0.5498
 1455TIP3    H126000   4.690   6.049   1.158 -0.0518  0.8120 -1.1390
 1455TIP3    H226001   4.662   6.013   1.014 -0.8273  0.2326 -0.8548
 1456TIP3   OH226002   4.205   1.592   7.485 -0.3202  0.3883  0.7256
 1456TIP3    H126003   4.281   1.623   7.435 -1.3663  0.1286 -1.0413
 1456TIP3    H226004   4.231   1.603   7.577  2.2933 -0.7696  0.1544
 1457TIP3   OH226005   5.444   5.063   8.485  0.6206  0.0491 -0.0125
 1457TIP3    H126006   5.421   5.129   8.550 -0.8126  0.3664 -0.8048
 1457TIP3    H226007   5.432   4.979   8.530  1.9030  0.3066  0.8254
 1458TIP3   OH226008   0.137   3.393   7.390  0.2297 -0.0849  0.7493
 1458TIP3    H126009   0.198   3.364   7.321  0.0449 -1.7952  1.2812
 1458TIP3    H226010   0.166   3.346   7.468 -2.0319 -1.2540  0.9044
 1459TIP3   OH226011   0.355   0.038   1.863 -0.5092 -0.4140  0.6744
 1459TIP3    H126012   0.435   0.004   1.823 -0.3581  1.7152 -1.0034
 1459TIP3    H226013   0.381   0.066   1.951  0.4283 -0.4247  0.4032
 1460TIP3   OH226014   3.501   3.237   7.584 -0.3092  0.3238 -0.0789
 1460TIP3    H126015   3.466   3.309   7.636 -1.3327 -0.1088 -0.1622
 1460TIP3    H226016   3.439   3.165   7.597 -0.1041 -0.0717 -1.1829
 1461TIP3   OH226017   4.434   1.744   7.421 -0.0860  0.0878  0.4321
 1461TIP3    H126018   4.451   1.807   7.351  2.0670 -0.2009  0.6503
 1461TIP3    H226019   4.413   1.797   7.497  0.0649  0.4829  0.1997
 1462TIP3   OH226020   4.253   2.245   6.593  0.0415  0.1323 -0.2750
 1462TIP3    H126021   4.176   2.268   6.645 -0.8054 -1.0499 -0.9933
 1462TIP3    H226022   4.218   2.205   6.514  1.3944 -0.3759 -0.6341
 1463TIP3   OH226023   4.873   4.843   0.344  0.3208 -0.2885 -0.0392
 1463TIP3    H126024   4.890   4.898   0.268  1.4509 -0.7192 -0.1131
 1463TIP3    H226025   4.948   4.784   0.348 -0.2574 -0.9913  0.7747
 1464TIP3   OH226026   5.910   4.895   0.851 -0.1039  0.0025  0.0644
 1464TIP3    H126027   5.987   4.949   0.869 -0.3310  0.2366  0.3480
 1464TIP3    H226028   5.940   4.829   0.789  0.3545  0.0261  0.2619
 1465TIP3   OH226029   4.711   3.924   1.090 -0.3411 -0.0272 -0.2900
 1465TIP3    H126030   4.750   3.837   1.093  0.4541  0.3595  1.0200
 1465TIP3    H226031   4.635   3.918   1.148  1.0746  0.7686  1.7330
 1466TIP3   OH226032   5.226   7.128   7.169  0.1400  0.3803 -0.0457
 1466TIP3    H126033   5.252   7.066   7.237  0.0627 -0.3905 -0.7164
 1466TIP3    H226034   5.167   7.078   7.112  1.6353  0.4864 -1.7194
 1467TIP3   OH226035   3.262   2.360   0.746 -0.2136  0.4900  0.4664
 1467TIP3    H126036   3.292   2.426   0.808  1.7035  0.7640 -0.7389
 1467TIP3    H226037   3.284   2.276   0.788 -0.9145  0.6295  1.1291
 1468TIP3   OH226038   5.622   3.188   1.673 -0.4376 -0.4769  0.5971
 1468TIP3    H126039   5.666   3.270   1.650 -0.5095 -0.6223 -0.0643
 1468TIP3    H226040   5.529   3.206   1.663 -0.4543 -0.6342  0.4652
 1469TIP3   OH226041   3.690   6.022   7.456 -0.1623 -0.6363 -0.4073
 1469TIP3    H126042   3.698   5.963   7.531 -0.3609 -2.2276 -1.6220
 1469TIP3    H226043   3.629   6.090   7.485  1.0548 -0.2968  1.4461
 1470TIP3   OH226044   4.055   5.083   8.367 -0.2774  0.2745 -0.0371
 1470TIP3    H126045   4.101   5.118   8.291  0.7252 -1.4906 -0.2656
 1470TIP3    H226046   4.058   5.154   8.432  0.5105  1.1043 -0.9625
 1471TIP3   OH226047   4.389   2.576   8.261  0.3255 -0.3784 -0.2684
 1471TIP3    H126048   4.374   2.536   8.175 -1.0576 -1.1386  0.2993
 1471TIP3    H226049   4.320   2.540   8.316  2.8967 -2.1031  1.9301
 1472TIP3   OH226050   5.608   2.471   0.210  0.0773 -0.0922 -0.1571
 1472TIP3    H126051   5.549   2.505   0.277 -0.8409 -0.5285 -0.7413
 1472TIP3    H226052   5.583   2.517   0.130 -1.8266 -2.8002 -1.1814
 1473TIP3   OH226053   2.776   0.475   6.874  0.1442 -0.2339  0.7046
 1473TIP3    H126054   2.688   0.477   6.836 -0.0345  0.0987  1.1236
 1473TIP3    H226055   2.790   0.564   6.907  1.0189 -0.0293 -0.2060
 1474TIP3   OH226056   4.771   2.395   6.358  0.0532 -0.2248 -0.5005
 1474TIP3    H126057   4.857   2.438   6.354 -0.2304  0.3326 -0.6354
 1474TIP3    H226058   4.765   2.362   6.447  0.5404 -0.5402 -0.5802
 1475TIP3   OH226059   6.312   1.141   7.864 -0.0885  0.0581 -0.2572
 1475TIP3    H126060   6.301   1.067   7.805 -2.2881 -1.2001  1.6583
 1475TIP3    H226061   6.308   1.103   7.952  0.7832  2.1770  0.7276
 1476TIP3   OH226062   0.900   0.179   6.502  0.0351 -0.1332 -0.0682
 1476TIP3    H126063   0.862   0.191   6.590  0.6994  0.5578  0.1336
 1476TIP3    H226064   0.955   0.257   6.489  1.0430 -0.9077 -0.5331
 1477TIP3   OH226065   4.457   1.477   6.562 -0.1983  0.5647 -0.1147
 1477TIP3    H126066   4.511   1.471   6.484  0.9401  1.2062  0.6036
 1477TIP3    H226067   4.468   1.567   6.592  1.4797 -0.3688  2.2372
 1478TIP3   OH226068   3.729   4.828   1.001 -0.0039  0.6686  0.2426
 1478TIP3    H126069   3.759   4.815   0.911  0.2547 -0.8462  0.5376
 1478TIP3    H226070   3.682   4.748   1.023  1.0638  0.4725  1.9065
 1479TIP3   OH226071   5.920   4.262   7.647 -0.1163 -0.6028 -0.2296
 1479TIP3    H126072   5.890   4.178   7.682 -0.6770 -0.5815 -0.6629
 1479TIP3    H226073   5.875   4.271   7.563 -1.0782  0.7628  0.4174
 1480TIP3   OH226074   3.919   1.941   7.332 -0.3780  0.0967  0.0673
 1480TIP3    H126075   3.867   1.950   7.412 -0.0806  0.7384  0.1914
 1480TIP3    H226076   4.008   1.964   7.358 -0.6104  2.1298 -0.8560
 1481TIP3   OH226077   4.408   3.578   8.163  0.5113 -0.3022  0.5198
 1481TIP3    H126078   4.459   3.574   8.244  0.8282  1.1224  0.4005
 1481TIP3    H226079   4.330   3.629   8.186 -0.0174 -0.9581  0.2324
 1482TIP3   OH226080   3.982   4.554   6.485  0.3061 -0.3159 -0.9580
 1482TIP3    H126081   3.943   4.468   6.470 -0.7328  0.0943 -0.6100
 1482TIP3    H226082   4.056   4.537   6.543  0.9330 -1.1526 -1.9882
 1483TIP3   OH226083   6.165   2.060   1.445  0.1085  0.3136 -0.0950
 1483TIP3    H126084   6.235   2.108   1.401  0.6880 -0.8781 -0.5016
 1483TIP3    H226085   6.171   1.971   1.409  0.1586 -0.5141  1.8997
 1484TIP3   OH226086   3.187   4.487   7.627 -0.2239 -0.1412  0.0819
 1484TIP3    H126087   3.193   4.428   7.702  1.7605 -0.4805 -0.3302
 1484TIP3    H226088   3.185   4.575   7.666  1.2347 -0.2984  0.5307
 1485TIP3   OH226089   4.645   6.410   0.218  0.1054  0.1005 -0.2017
 1485TIP3    H126090   4.731   6.377   0.242 -1.1520 -1.2293  2.7102
 1485TIP3    H226091   4.586   6.335   0.230 -1.8816  1.7488  0.6818
 1486TIP3   OH226092   4.142   4.810   6.826 -0.2433 -0.0142 -0.2775
 1486TIP3    H126093   4.143   4.718   6.798 -0.8131 -0.1103  0.0013
 1486TIP3    H226094   4.202   4.854   6.766 -1.1270 -0.3031 -1.3929
 1487TIP3   OH226095   0.231   2.097   1.613  0.2079  0.5813  0.1545
 1487TIP3    H126096   0.163   2.154   1.578 -0.5281  0.9369  2.1149
 1487TIP3    H226097   0.307   2.155   1.622  0.9506  0.0882 -2.4304
 1488TIP3   OH226098   5.872   3.479   7.122  0.0831 -0.3148 -0.4742
 1488TIP3    H126099   5.941   3.492   7.187  0.0233  0.5255 -0.5658
 1488TIP3    H226100   5.799   3.441   7.170  0.2806 -0.3261 -0.1850
 1489TIP3   OH226101   4.134   3.675   7.188  0.4128  0.6588 -0.1858
 1489TIP3    H126102   4.057   3.729   7.206 -1.2091 -1.3189 -1.0141
 1489TIP3    H226103   4.161   3.701   7.100 -0.7786 -0.3219 -0.8592
 1490TIP3   OH226104   2.829   1.831   1.858  0.1324  0.1962  0.3582
 1490TIP3    H126105   2.741   1.866   1.840 -0.1639 -0.2543  0.9279
 1490TIP3    H226106   2.816   1.737   1.868  0.6076  0.1919  0.9511
 1491TIP3   OH226107   4.813   5.867   0.177 -0.2977  0.3070 -0.1039
 1491TIP3    H126108   4.823   5.833   0.088 -0.7847  1.2352 -0.5251
 1491TIP3    H226109   4.903   5.875   0.210 -0.1418 -0.4997 -0.3382
 1492TIP3   OH226110   4.311   0.437   6.423 -0.6777  0.1044 -0.1667
 1492TIP3    H126111   4.238   0.452   6.364 -0.5731 -0.8867 -0.5688
 1492TIP3    H226112   4.339   0.524   6.449 -1.0528  0.5429 -1.1791
 1493TIP3   OH226113   5.071   3.438   6.545  0.2730  0.4822  0.1704
 1493TIP3    H126114   5.109   3.360   6.505  0.7528  0.0907  1.3626
 1493TIP3    H226115   5.033   3.486   6.472 -0.0694 -0.8840 -0.5741
 1494TIP3   OH226116   3.734   1.515   6.083 -0.4799  0.2157 -0.4021
 1494TIP3    H126117   3.802   1.466   6.035 -0.0034 -1.1714  1.5959
 1494TIP3    H226118   3.652   1.479   6.052 -0.1900 -0.3491 -0.5247
 1495TIP3   OH226119   4.537   4.239   8.475  0.5452  0.3641 -0.0692
 1495TIP3    H126120   4.469   4.176   8.499  1.0710 -0.7616 -1.4466
 1495TIP3    H226121   4.505   4.278   8.393  1.7890 -0.5851 -1.0368
 1496TIP3   OH226122   3.746   4.739   8.361 -0.4350 -0.1977  0.5763
 1496TIP3    H126123   3.797   4.794   8.302  1.9265 -0.6251  2.1402
 1496TIP3    H226124   3.687   4.690   8.304 -0.6189  1.8853 -1.0844
 1497TIP3   OH226125   5.280   5.014   8.274 -0.0299 -0.1832  0.0600
 1497TIP3    H126126   5.348   5.010   8.341 -1.0868  0.4062  1.1947
 1497TIP3    H226127   5.235   4.930   8.280  0.9587 -0.8024 -1.0880
 1498TIP3   OH226128   2.378   4.046   7.271  0.0170  0.2490  0.0357
 1498TIP3    H126129   2.378   4.075   7.180 -0.1624 -0.1229 -0.0811
 1498TIP3    H226130   2.466   4.068   7.303  1.1159 -2.3761 -1.1051
 1499TIP3   OH226131   5.173   6.128   6.121 -0.0568  0.1821  0.0121
 1499TIP3    H126132   5.084   6.102   6.143  0.2355  1.0268  2.3718
 1499TIP3    H226133   5.174   6.223   6.135  0.8700  0.3737 -1.2515
 1500TIP3   OH226134   6.663   3.418   6.094  0.8027 -0.2215  0.3602
 1500TIP3    H126135   6.712   3.497   6.115 -1.4441  1.4884 -0.6031
 1500TIP3    H226136   6.578   3.430   6.137 -0.3375 -1.1007 -1.5422
 1501TIP3   OH226137   4.228   1.826   1.419 -0.0008  0.1170  0.1605
 1501TIP3    H126138   4.143   1.811   1.379  0.3170 -1.6921  0.1141
 1501TIP3    H226139   4.261   1.738   1.440  2.8892  0.5779 -2.0193
 1502TIP3   OH226140   3.977   2.317   1.591 -0.2461  0.6511  0.0643
 1502TIP3    H126141   4.071   2.328   1.581 -0.1970  0.5783  0.4263
 1502TIP3    H226142   3.963   2.310   1.686 -0.2578 -2.2536 -0.0844
 1503TIP3   OH226143   5.831   2.828   6.989 -0.0291  0.0490 -0.3949
 1503TIP3    H126144   5.846   2.868   6.903 -1.1424 -0.3641 -0.7806
 1503TIP3    H226145   5.918   2.824   7.028  0.4730  0.3569 -1.4509
 1504TIP3   OH226146   6.167   1.114   7.103  0.3093 -0.5751  1.0472
 1504TIP3    H126147   6.214   1.157   7.032 -1.3686 -0.0763  0.2016
 1504TIP3    H226148   6.173   1.175   7.177 -0.7533  0.4385  0.3174
 1505TIP3   OH226149   6.326   2.950   6.432  0.1355 -0.9761  0.0369
 1505TIP3    H126150   6.412   2.917   6.407 -0.1766 -1.1362 -0.8451
 1505TIP3    H226151   6.341   2.996   6.515  0.7709 -2.3904  0.7315
 1506TIP3   OH226152   5.261   2.723   5.936 -0.2859  0.0361 -0.0310
 1506TIP3    H126153   5.259   2.641   5.986  0.2182 -1.9753 -3.1556
 1506TIP3    H226154   5.350   2.756   5.948  0.0255 -0.7633 -0.1208
 1507TIP3   OH226155   5.053   5.884   6.306  0.3629  0.0118 -0.1130
 1507TIP3    H126156   5.092   5.798   6.288  0.3278  0.1180 -0.7046
 1507TIP3    H226157   5.114   5.925   6.368  0.1172 -0.6345  0.5634
 1508TIP3   OH226158   3.932   4.319   1.957  0.1092 -0.1385 -0.0052
 1508TIP3    H126159   3.984   4.397   1.976  0.7279 -0.7557  0.8949
 1508TIP3    H226160   3.866   4.316   2.026 -1.4971  0.9331 -1.4454
 1509TIP3   OH226161   6.142   7.131   8.362  0.4045  0.3437 -0.2889
 1509TIP3    H126162   6.052   7.114   8.333  0.2350 -0.3782  0.6589
 1509TIP3    H226163   6.150   7.227   8.360 -0.6016  0.4435  0.2658
 1510TIP3   OH226164   6.910   3.158   6.544  0.1895  0.2739 -0.1418
 1510TIP3    H126165   6.941   3.245   6.570  0.3128  0.2435 -0.1857
 1510TIP3    H226166   6.817   3.159   6.564  0.1162  0.5502 -0.4984
 1511TIP3   OH226167   5.103   4.173   7.716  0.8072  0.1434 -0.0704
 1511TIP3    H126168   5.079   4.253   7.669  0.7017  1.2764  1.8363
 1511TIP3    H226169   5.124   4.110   7.648 -3.9970  0.2125 -1.8491
 1512TIP3   OH226170   3.240   5.384   1.562 -0.2587  0.0560 -0.5225
 1512TIP3    H126171   3.313   5.325   1.578 -1.0428 -0.6498  0.5627
 1512TIP3    H226172   3.262   5.430   1.481  2.7291  1.9213  1.2464
 1513TIP3   OH226173   5.547   5.450   0.336 -0.3776  0.0016  0.2781
 1513TIP3    H126174   5.634   5.445   0.374  0.4603  2.7568 -1.1004
 1513TIP3    H226175   5.497   5.504   0.397 -0.8009 -0.6640  0.5220
 1514TIP3   OH226176   5.385   3.994   0.390  0.3988 -0.4993 -0.0567
 1514TIP3    H126177   5.402   3.901   0.406 -0.6191 -0.6152  0.3753
 1514TIP3    H226178   5.346   4.025   0.472 -0.4124  0.0186 -0.6330
 1515TIP3   OH226179   2.786   4.685   0.243  0.1947  0.1084  0.0616
 1515TIP3    H126180   2.836   4.673   0.162 -0.5120  0.4009 -0.4251
 1515TIP3    H226181   2.750   4.598   0.261 -2.3603  0.7424 -1.7582
 1516TIP3   OH226182   4.371   3.365   7.169  0.0681 -0.0838 -0.7242
 1516TIP3    H126183   4.419   3.384   7.089 -0.5917 -0.6641 -1.2680
 1516TIP3    H226184   4.438   3.336   7.231  0.5529  0.1436 -1.1419
 1517TIP3   OH226185   5.487   0.468   1.226 -0.3526  0.6647 -0.2870
 1517TIP3    H126186   5.399   0.482   1.191  1.0011  1.5071 -3.5620
 1517TIP3    H226187   5.532   0.552   1.213  1.8727 -0.6755 -1.5983
 1518TIP3   OH226188   3.941   5.126   7.117  0.4025 -0.0251 -0.4422
 1518TIP3    H126189   3.849   5.128   7.142 -0.0685  0.9758 -2.1510
 1518TIP3    H226190   3.957   5.210   7.073  2.4763  0.3661  0.9787
 1519TIP3   OH226191   2.683   4.017   0.916  0.2067  0.2892 -0.0768
 1519TIP3    H126192   2.689   3.969   0.999 -1.2952  0.6911  0.2899
 1519TIP3    H226193   2.622   3.966   0.864  0.1321  0.7487 -0.4383
 1520TIP3   OH226194   3.839   2.590   6.548 -0.0186 -0.2285  0.6372
 1520TIP3    H126195   3.929   2.606   6.522 -0.4035  1.1082  0.0681
 1520TIP3    H226196   3.835   2.622   6.639  0.4378 -1.6603  1.1797
 1521TIP3   OH226197   3.008   0.209   6.832 -0.2106  0.4713  0.0960
 1521TIP3    H126198   2.986   0.116   6.826 -0.6324  0.5605  0.2098
 1521TIP3    H226199   2.923   0.253   6.844 -0.2553  1.0629 -2.1904
 1522TIP3   OH226200   4.083   1.770   7.149  0.1548  0.6648 -0.3383
 1522TIP3    H126201   4.003   1.765   7.202  0.0539 -1.5481 -0.6673
 1522TIP3    H226202   4.051   1.771   7.058  0.5091 -0.1317 -0.4677
 1523TIP3   OH226203   5.138   0.983   2.487  0.2512  0.1375  0.1920
 1523TIP3    H126204   5.061   0.983   2.543 -0.7541 -0.8989 -1.1637
 1523TIP3    H226205   5.146   1.074   2.456  0.8058  0.7107  1.9574
 1524TIP3   OH226206   5.528   2.173   0.508 -0.5349  0.7414  0.0719
 1524TIP3    H126207   5.454   2.124   0.473  0.8055 -0.3501 -1.2690
 1524TIP3    H226208   5.499   2.200   0.596 -1.9308 -0.9583  0.1535
 1525TIP3   OH226209   6.571   1.345   6.923 -0.2382 -0.1171 -0.0112
 1525TIP3    H126210   6.594   1.265   6.971 -1.2034 -0.2855  0.1863
 1525TIP3    H226211   6.653   1.394   6.918  0.2226 -0.8196  0.4394
 1526TIP3   OH226212   4.237   5.643   0.694  0.4694 -0.2051 -0.0807
 1526TIP3    H126213   4.162   5.666   0.638 -0.0194 -0.6776  0.3656
 1526TIP3    H226214   4.225   5.696   0.772  1.2674  0.6096 -0.5024
 1527TIP3   OH226215   3.170   1.083   7.769 -0.0693 -0.1785  0.4016
 1527TIP3    H126216   3.235   1.103   7.701 -2.9147  0.7598 -2.1688
 1527TIP3    H226217   3.131   1.000   7.740 -0.7263 -0.2075  1.3642
 1528TIP3   OH226218   5.428   2.299   6.568  0.4941  0.8092  0.1146
 1528TIP3    H126219   5.398   2.213   6.538  1.2155 -0.4105  2.7691
 1528TIP3    H226220   5.512   2.312   6.525  1.2890 -0.6980  1.1894
 1529TIP3   OH226221   4.369   4.637   7.084  0.1998 -0.0183 -0.1080
 1529TIP3    H126222   4.457   4.668   7.102  0.2835 -0.5630  0.4158
 1529TIP3    H226223   4.369   4.619   6.990  0.1127  1.6682 -0.4523
 1530TIP3   OH226224   4.391   3.571   0.422  0.0361 -0.0893 -0.5644
 1530TIP3    H126225   4.296   3.560   0.417  0.1859 -1.6858 -0.0142
 1530TIP3    H226226   4.408   3.652   0.374 -1.8274  1.3131  1.0533
 1531TIP3   OH226227   2.250   4.074   6.394 -0.2443  0.0642 -0.0086
 1531TIP3    H126228   2.215   4.073   6.483 -1.1543 -0.7188 -0.3732
 1531TIP3    H226229   2.342   4.048   6.404 -0.6044 -0.9894  0.5768
 1532TIP3   OH226230   2.918   7.117   1.004  0.4093 -0.5071 -0.1200
 1532TIP3    H126231   2.892   7.188   1.063  1.4062  0.6259 -1.0240
 1532TIP3    H226232   2.909   7.038   1.057 -2.1768  0.1127  0.4455
 1533TIP3   OH226233   4.078   4.686   6.252 -0.2083 -0.9873 -0.6328
 1533TIP3    H126234   4.024   4.642   6.186 -0.0928  0.3139 -1.6318
 1533TIP3    H226235   4.085   4.623   6.323 -3.3160 -1.1077 -0.3338
 1534TIP3   OH226236   5.204   1.972   8.108  0.5073 -0.3168  0.5444
 1534TIP3    H126237   5.220   2.004   8.019 -0.2065  0.5523  0.7111
 1534TIP3    H226238   5.230   1.881   8.106  0.1964 -0.3929 -0.6557
 1535TIP3   OH226239   3.769   3.361   6.792 -0.2277 -0.1396  0.0694
 1535TIP3    H126240   3.674   3.350   6.795 -0.1444 -1.5600 -1.6753
 1535TIP3    H226241   3.788   3.387   6.702  1.1085 -0.6170  0.2006
 1536TIP3   OH226242   2.574   3.381   1.158 -0.2607 -0.1359 -0.1283
 1536TIP3    H126243   2.641   3.437   1.119 -0.1303  0.3706  0.7899
 1536TIP3    H226244   2.573   3.406   1.250 -0.5406 -1.3195  0.2030
 1537TIP3   OH226245   5.742   7.149   7.678  0.2179  0.0230 -0.2877
 1537TIP3    H126246   5.649   7.170   7.674 -0.2394 -1.8115  0.2290
 1537TIP3    H226247   5.763   7.114   7.592  0.6055  1.0976 -0.6349
 1538TIP3   OH226248   5.246   6.395   7.119  0.1507  0.3022 -0.6581
 1538TIP3    H126249   5.214   6.352   7.040  0.0175 -1.4729  0.3341
 1538TIP3    H226250   5.233   6.488   7.103 -1.8091 -0.1572 -1.9102
 1539TIP3   OH226251   4.752   3.408   0.539  0.1862 -0.3121 -0.0776
 1539TIP3    H126252   4.667   3.433   0.576  0.3537  0.8027 -0.4046
 1539TIP3    H226253   4.798   3.492   0.527  0.8841 -0.8153 -0.9681
 1540TIP3   OH226254   5.054   4.538   6.616  0.4135 -0.3491  0.2163
 1540TIP3    H126255   5.014   4.462   6.572  1.3060  0.2652 -1.7266
 1540TIP3    H226256   5.026   4.613   6.564  2.2388  0.3097  0.1587
 1541TIP3   OH226257   6.562   4.271   7.332 -0.4156  0.0079 -0.1997
 1541TIP3    H126258   6.641   4.307   7.370 -0.0156  0.1675 -1.1639
 1541TIP3    H226259   6.511   4.239   7.406 -1.0066  3.0083  0.7231
 1542TIP3   OH226260   4.502   1.758   1.202  0.0889 -0.3242  0.1019
 1542TIP3    H126261   4.426   1.806   1.236 -0.8004 -0.3170 -1.8264
 1542TIP3    H226262   4.479   1.665   1.213 -0.4393 -0.3277 -0.9353
 1543TIP3   OH226263   4.187   0.932   1.555 -0.0703  0.3591 -0.0355
 1543TIP3    H126264   4.130   1.003   1.526  1.1958  2.4926  2.4753
 1543TIP3    H226265   4.218   0.891   1.474 -0.5930  2.8463 -1.5466
 1544TIP3   OH226266   6.993   2.136   1.164  0.3573  0.3012  0.0507
 1544TIP3    H126267   7.066   2.082   1.135 -0.1377  1.0082 -2.6969
 1544TIP3    H226268   6.937   2.076   1.214  0.9794 -1.1654 -0.9717
 1545TIP3   OH226269   0.364   3.813   6.645  0.5377 -0.5035 -0.1241
 1545TIP3    H126270   0.438   3.816   6.584  0.8854 -0.9402  0.2798
 1545TIP3    H226271   0.332   3.724   6.639  2.5496 -1.4801  2.6853
 1546TIP3   OH226272   4.741   1.371   1.149  0.5391 -0.4412  0.0804
 1546TIP3    H126273   4.790   1.312   1.206  0.0921 -0.9595 -0.0665
 1546TIP3    H226274   4.798   1.384   1.073 -0.1786 -2.2560 -0.7887
 1547TIP3   OH226275   5.845   4.476   6.667  0.0799 -0.1998  0.4528
 1547TIP3    H126276   5.869   4.506   6.755 -0.6524 -1.1388  0.9817
 1547TIP3    H226277   5.915   4.509   6.611  1.6435 -1.3055  1.6906
 1548TIP3   OH226278   6.950   1.840   6.829 -0.3105 -0.3387  0.1103
 1548TIP3    H126279   6.906   1.891   6.761  0.5856 -1.0660 -1.0304
 1548TIP3    H226280   6.881   1.820   6.892 -1.0428  0.7737 -0.3344
 1549TIP3   OH226281   6.338   1.080   6.687 -0.0644  0.0228  0.8466
 1549TIP3    H126282   6.339   1.070   6.591 -0.4484 -0.9282  0.9387
 1549TIP3    H226283   6.374   0.999   6.720 -1.3244 -0.2669  1.5502
 1550TIP3   OH226284   3.749   4.850   6.791  0.0503  0.8488 -0.2113
 1550TIP3    H126285   3.783   4.828   6.704  0.3310 -1.4478  0.4601
 1550TIP3    H226286   3.826   4.850   6.848 -0.5853 -1.2612  0.7025
 1551TIP3   OH226287   4.961   2.861   6.455 -0.3339  0.1851 -0.4268
 1551TIP3    H126288   4.973   2.932   6.518  1.8921  2.7454 -3.5413
 1551TIP3    H226289   4.905   2.898   6.387 -0.5435 -1.6355 -1.2826
 1552TIP3   OH226290   6.277   3.030   6.162 -0.0429  0.1388  0.6576
 1552TIP3    H126291   6.358   3.015   6.113 -0.1450  0.9424  0.2342
 1552TIP3    H226292   6.292   2.990   6.247  1.3042  1.4705  1.0560
 1553TIP3   OH226293   6.475   4.530   1.037 -0.7978  0.0110 -0.0427
 1553TIP3    H126294   6.446   4.474   0.966  1.5324 -1.1673 -0.1316
 1553TIP3    H226295   6.463   4.477   1.116 -0.0178 -0.0741  0.0303
 1554TIP3   OH226296   4.509   5.877   7.873 -0.4801  0.1591 -0.4193
 1554TIP3    H126297   4.468   5.923   7.800  2.2648  2.1405 -0.7660
 1554TIP3    H226298   4.585   5.930   7.897 -0.7023 -1.0003  3.2151
 1555TIP3   OH226299   6.295   2.553   7.215  0.3256  0.4334  0.3085
 1555TIP3    H126300   6.349   2.588   7.286  0.5640 -0.8280  0.7615
 1555TIP3    H226301   6.353   2.494   7.168 -0.3445 -0.1008  0.1490
 1556TIP3   OH226302   5.774   3.920   7.197 -0.3337  0.3426 -0.2258
 1556TIP3    H126303   5.701   3.934   7.137  0.2126  1.8792 -0.5481
 1556TIP3    H226304   5.805   4.009   7.218  1.2513 -0.2914  0.1394
 1557TIP3   OH226305   4.000   1.771   6.898  0.6788  0.0272  0.0124
 1557TIP3    H126306   4.055   1.720   6.838 -0.7089 -0.5307 -0.8046
 1557TIP3    H226307   3.911   1.740   6.881  0.3221 -0.6367  2.8699
 1558TIP3   OH226308   3.944   1.989   8.021 -0.3500  0.0051 -0.2872
 1558TIP3    H126309   3.857   2.020   8.045  0.6515  2.0424  0.9107
 1558TIP3    H226310   3.995   2.069   8.010  1.4570 -1.1688 -0.5943
 1559TIP3   OH226311   4.388   1.121   8.289  0.4663 -0.2045  0.1793
 1559TIP3    H126312   4.460   1.168   8.332 -0.1517  0.3379  0.6338
 1559TIP3    H226313   4.386   1.155   8.200  1.1560 -0.6545 -0.0101
 1560TIP3   OH226314   4.355   7.286   7.539  0.4514  0.0017  0.1811
 1560TIP3    H126315   4.276   7.339   7.524  1.2658  1.0866 -0.3474
 1560TIP3    H226316   4.330   7.224   7.607 -0.0953  1.9913  1.8139
 1561TIP3   OH226317   3.538   4.305   7.026 -0.1158 -0.3081 -0.1471
 1561TIP3    H126318   3.575   4.363   7.093  0.5710  0.4035 -1.1232
 1561TIP3    H226319   3.480   4.246   7.075  0.8694 -0.2283  1.1595
 1562TIP3   OH226320   5.027   3.221   7.487 -1.1835 -0.5182  0.4877
 1562TIP3    H126321   5.008   3.203   7.579  0.0644  0.5214  0.9640
 1562TIP3    H226322   4.958   3.175   7.439 -1.2724 -1.8865  1.8899
 1563TIP3   OH226323   5.493   3.223   6.613  0.9715  0.3463 -0.2553
 1563TIP3    H126324   5.482   3.259   6.525  2.5571  0.5590 -0.3933
 1563TIP3    H226325   5.414   3.248   6.660  1.5796  3.1732 -0.6544
 1564TIP3   OH226326   3.478   2.151   6.701  0.2998  0.0387  0.0582
 1564TIP3    H126327   3.526   2.214   6.756  0.8132 -0.7246  0.4900
 1564TIP3    H226328   3.408   2.203   6.661 -1.0950  0.2911  2.7096
 1565TIP3   OH226329   6.174   0.585   7.893 -0.0416 -0.8882  0.2794
 1565TIP3    H126330   6.206   0.675   7.905 -0.2869 -0.6652 -0.7589
 1565TIP3    H226331   6.103   0.576   7.957 -0.8565  0.0766 -0.4672
 1566TIP3   OH226332   6.112   2.291   1.012  0.0665 -0.7869  0.1408
 1566TIP3    H126333   6.040   2.228   1.017 -0.6108 -0.1352 -1.0749
 1566TIP3    H226334   6.071   2.376   1.028  0.6781 -0.4888  0.1377
 1567TIP3   OH226335   2.861   2.682   7.493 -0.6207  0.1441  0.2327
 1567TIP3    H126336   2.779   2.717   7.529 -0.0949  0.4720  1.1235
 1567TIP3    H226337   2.930   2.729   7.540  0.0945  1.0862 -1.7127
 1568TIP3   OH226338   5.500   3.789   7.280 -0.1283  0.1042  0.5559
 1568TIP3    H126339   5.544   3.722   7.228 -0.5330  0.4454 -0.2357
 1568TIP3    H226340   5.409   3.788   7.249  0.1091  1.7727 -0.2386
 1569TIP3   OH226341   4.805   6.797   0.330  0.1743 -0.2080 -0.0444
 1569TIP3    H126342   4.843   6.729   0.275 -0.4269  0.8655 -1.8411
 1569TIP3    H226343   4.721   6.760   0.359  0.2015 -0.5269 -0.3673
 1570TIP3   OH226344   3.028   4.283   6.325 -0.2198  0.6099  0.4312
 1570TIP3    H126345   2.977   4.209   6.356 -0.6938  1.1016  0.8533
 1570TIP3    H226346   2.983   4.313   6.246 -0.6060  1.0475  0.8065
 1571TIP3   OH226347   4.670   3.791   6.852  0.2731  0.2099  0.1046
 1571TIP3    H126348   4.732   3.846   6.901  0.4576  0.6415 -0.6086
 1571TIP3    H226349   4.626   3.739   6.919  1.6599 -0.3546  0.5956
 1572TIP3   OH226350   4.456   3.505   6.608 -0.0103  0.4438  0.6016
 1572TIP3    H126351   4.449   3.523   6.515 -0.1078  1.8199  0.8627
 1572TIP3    H226352   4.402   3.572   6.650 -1.0113 -0.9326  1.5900
 1573TIP3   OH226353   5.557   2.454   7.768 -0.3299  0.1256 -0.8700
 1573TIP3    H126354   5.553   2.537   7.815 -0.5565 -0.9792  1.0847
 1573TIP3    H226355   5.650   2.432   7.765 -0.4883 -0.9995  1.2558
 1574TIP3   OH226356   4.158   3.503   7.941 -0.2963  0.2751 -0.3871
 1574TIP3    H126357   4.143   3.415   7.975 -0.3046  0.8164  1.0251
 1574TIP3    H226358   4.128   3.562   8.011  0.0697  1.3973 -1.1586
 1575TIP3   OH226359   5.081   2.100   6.373 -1.4664  0.6625 -0.7207
 1575TIP3    H126360   5.170   2.077   6.399 -2.2145  0.4127  1.7218
 1575TIP3    H226361   5.085   2.194   6.357 -0.9834  0.8350  0.3571
 1576TIP3   OH226362   1.194   5.122   7.252 -0.2552 -0.9655  1.0753
 1576TIP3    H126363   1.251   5.082   7.186  0.3153  0.3374  0.7809
 1576TIP3    H226364   1.135   5.051   7.278 -0.4610 -1.5072 -0.8095
 1577TIP3   OH226365   6.161   0.962   7.664  0.0059  0.3300  0.0488
 1577TIP3    H126366   6.195   1.046   7.634 -1.2418  0.8788  0.1579
 1577TIP3    H226367   6.067   0.968   7.651 -0.0662 -1.1480 -0.1728
 1578TIP3   OH226368   6.081   0.559   1.345 -0.6695 -0.7079  0.0038
 1578TIP3    H126369   6.080   0.580   1.438  1.2854  0.2554 -0.1638
 1578TIP3    H226370   6.139   0.483   1.338  0.7452  0.4065 -0.6318
 1579TIP3   OH226371   6.277   7.236   6.841  0.3003 -0.5183 -0.0710
 1579TIP3    H126372   6.233   7.309   6.798  0.7739 -0.9071 -1.2433
 1579TIP3    H226373   6.335   7.277   6.905 -0.4002  0.0707  0.1906
 1580TIP3   OH226374   4.809   2.269   8.347  0.2477  0.2037  0.3496
 1580TIP3    H126375   4.735   2.329   8.348  0.0407 -0.0520  0.4888
 1580TIP3    H226376   4.786   2.203   8.282  0.3495  0.1152  0.4040
 1581TIP3   OH226377   4.515   1.765   6.635  0.4438 -0.9071  0.6448
 1581TIP3    H126378   4.492   1.808   6.552  2.0267 -1.1427  0.0621
 1581TIP3    H226379   4.466   1.813   6.701 -0.0819 -0.0797 -0.3306
 1582TIP3   OH226380   5.935   1.224   6.057  0.0122 -0.3126 -0.2137
 1582TIP3    H126381   6.024   1.203   6.029 -0.7151 -0.5921 -2.4302
 1582TIP3    H226382   5.880   1.165   6.006 -1.4144 -0.7372  1.7729
 1583TIP3   OH226383   3.917   1.529   7.111  1.0239 -0.4120  0.1584
 1583TIP3    H126384   3.854   1.470   7.068  0.4078 -0.6830  1.4082
 1583TIP3    H226385   3.865   1.605   7.136  0.8083 -1.3499  2.6823
 1584TIP3   OH226386   5.410   0.595   6.626  0.3447 -0.3943 -0.1274
 1584TIP3    H126387   5.343   0.663   6.617  0.4156 -0.5797 -2.5523
 1584TIP3    H226388   5.489   0.634   6.589  0.2479 -1.9254 -2.0869
 1585TIP3   OH226389   3.610   1.556   6.581  0.5570  0.2523  0.2053
 1585TIP3    H126390   3.607   1.560   6.485  0.0375  0.8803  0.2436
 1585TIP3    H226391   3.537   1.611   6.609 -0.6690 -1.7165  0.9389
 1586TIP3   OH226392   5.518   3.519   6.366 -0.4233  0.1915  0.1040
 1586TIP3    H126393   5.602   3.503   6.324 -1.5268 -0.2124 -2.0003
 1586TIP3    H226394   5.479   3.432   6.375 -0.8215  0.4248  0.6790
 1587TIP3   OH226395   4.662   0.539   6.237  0.0400  0.4842  0.3993
 1587TIP3    H126396   4.737   0.594   6.213  0.1792 -0.0197 -0.3144
 1587TIP3    H226397   4.700   0.468   6.288 -0.2969  1.7366  2.4276
 1588TIP3   OH226398   1.933   3.613   7.749  0.3795  0.2692  0.0367
 1588TIP3    H126399   1.989   3.686   7.775  0.1921  1.3020 -2.2684
 1588TIP3    H226400   1.844   3.645   7.763  0.3079 -0.0379  0.3005
 1589TIP3   OH226401   6.641   2.651   6.940  0.5645 -0.4083 -0.0740
 1589TIP3    H126402   6.733   2.632   6.926  0.0657 -2.4090 -0.8639
 1589TIP3    H226403   6.616   2.707   6.867  0.8852 -0.8017 -0.4839
 1590TIP3   OH226404   4.211   4.966   2.088  0.2473  0.2048  0.4454
 1590TIP3    H126405   4.287   5.023   2.084 -0.5333  1.2163 -0.1724
 1590TIP3    H226406   4.144   5.011   2.037 -0.3028 -1.3841 -0.2681
 1591TIP3   OH226407   4.498   2.961   7.910  0.6671  0.1074 -0.0234
 1591TIP3    H126408   4.462   3.014   7.981  0.1165  1.1574 -1.0889
 1591TIP3    H226409   4.476   2.871   7.935 -0.9778  0.5866  0.3113
 1592TIP3   OH226410   5.321   4.419   5.944 -0.4333  0.2220  0.1284
 1592TIP3    H126411   5.384   4.476   5.901 -1.5265  0.1468 -1.6462
 1592TIP3    H226412   5.309   4.456   6.032  2.3770 -0.0398  0.6569
 1593TIP3   OH226413   5.131   2.006   7.410  0.3689 -0.3655 -0.1006
 1593TIP3    H126414   5.197   2.008   7.479  0.8064 -1.5620 -0.4740
 1593TIP3    H226415   5.047   2.008   7.456  0.6543  0.1196  0.4106
 1594TIP3   OH226416   0.862   4.133   6.796 -0.0441 -0.0167  0.1280
 1594TIP3    H126417   0.794   4.120   6.861  0.4132 -0.3372  0.5497
 1594TIP3    H226418   0.942   4.147   6.847 -0.0882  2.1055 -0.3376
 1595TIP3   OH226419   5.113   3.461   6.981  0.1851  1.0353 -0.6481
 1595TIP3    H126420   5.052   3.533   6.964 -0.0385  1.0544  0.2122
 1595TIP3    H226421   5.111   3.450   7.076 -0.2950 -0.5613 -0.8364
 1596TIP3   OH226422   6.356   3.533   6.544 -0.2763  0.1568  0.3129
 1596TIP3    H126423   6.372   3.468   6.475  0.2546 -0.3991  0.9442
 1596TIP3    H226424   6.276   3.577   6.518 -1.0183 -1.2173  0.2019
 1597TIP3   OH226425   6.713   5.527   1.355  0.0413 -0.1161 -0.2513
 1597TIP3    H126426   6.720   5.618   1.325  0.8103 -0.4684 -1.1911
 1597TIP3    H226427   6.713   5.475   1.275 -0.5397 -0.9387  0.2752
 1598TIP3   OH226428   6.673   3.610   6.884 -0.4161 -0.4097  0.3390
 1598TIP3    H126429   6.611   3.657   6.940  0.1514  0.9543 -0.1726
 1598TIP3    H226430   6.618   3.574   6.814 -0.8821 -0.7149  0.8524
 1599TIP3   OH226431   6.491   0.651   0.596  0.3330  0.2866 -0.4830
 1599TIP3    H126432   6.511   0.571   0.645 -1.4341  1.0949  1.6237
 1599TIP3    H226433   6.517   0.722   0.654 -0.4508  1.2675 -1.3229
 1600TIP3   OH226434   1.829   6.357   0.145 -0.3631 -0.5581  0.6560
 1600TIP3    H126435   1.893   6.332   0.212  0.4250 -2.8508 -0.9050
 1600TIP3    H226436   1.878   6.352   0.062 -1.5596  1.3762 -0.2191
 1601TIP3   OH226437   5.646   3.054   0.743  0.4531 -0.8966 -0.4528
 1601TIP3    H126438   5.646   2.983   0.679  0.5563  0.5951 -2.1740
 1601TIP3    H226439   5.567   3.104   0.723  2.6624  2.0482 -2.3198
 1602TIP3   OH226440   0.232   5.610   7.072 -0.2544 -0.1532  0.3345
 1602TIP3    H126441   0.212   5.618   6.978  0.4969 -0.3470  0.1546
 1602TIP3    H226442   0.189   5.686   7.111  2.2892  1.8812 -0.6460
 1603TIP3   OH226443   6.512   3.379   6.761 -0.1860  0.2413 -0.2344
 1603TIP3    H126444   6.471   3.417   6.683  1.4425  1.1326 -0.6698
 1603TIP3    H226445   6.440   3.334   6.806 -0.7321 -2.3273 -3.4661
 1604TIP3   OH226446   5.661   2.870   7.561 -0.5792  0.6352  0.1678
 1604TIP3    H126447   5.585   2.927   7.575 -2.3818 -1.3239 -1.1524
 1604TIP3    H226448   5.681   2.878   7.468  0.1015  0.2718  0.2769
 1605TIP3   OH226449   4.595   6.135   6.784 -0.5889  0.3084 -0.1506
 1605TIP3    H126450   4.554   6.088   6.711 -0.2181  0.6586 -0.5868
 1605TIP3    H226451   4.682   6.098   6.791 -0.8430 -0.1774  0.5400
 1606TIP3   OH226452   5.325   2.549   0.285 -0.5437 -0.1436 -0.3305
 1606TIP3    H126453   5.264   2.601   0.233  1.0289  0.9352 -1.1545
 1606TIP3    H226454   5.381   2.613   0.328 -0.6932 -1.0837  1.2848
 1607TIP3   OH226455   5.915   3.421   7.899 -0.3278  0.1785  0.1431
 1607TIP3    H126456   5.867   3.339   7.915  1.2111 -0.7381  0.1861
 1607TIP3    H226457   5.869   3.462   7.825 -1.0422 -0.7818  0.0445
 1608TIP3   OH226458   3.798   0.736   8.308 -0.5549  1.2386  0.1195
 1608TIP3    H126459   3.706   0.744   8.282 -0.2375 -0.0718 -1.4796
 1608TIP3    H226460   3.847   0.768   8.233  0.3242  1.1490  0.6474
 1609TIP3   OH226461   7.209   0.352   0.658 -0.1365 -0.2612  0.2341
 1609TIP3    H126462   7.274   0.410   0.617 -0.2670 -0.6516 -0.5279
 1609TIP3    H226463   7.259   0.275   0.685  0.1303  0.4044  1.7006
 1610TIP3   OH226464   5.249   3.810   1.031  0.7367  0.0410  1.1624
 1610TIP3    H126465   5.319   3.745   1.023 -0.1057 -0.7695  0.1425
 1610TIP3    H226466   5.169   3.758   1.044  0.1521  0.9047  1.0869
 1611TIP3   OH226467   2.082   0.686   1.303 -0.3918 -0.4230  0.3102
 1611TIP3    H126468   2.117   0.758   1.251  0.5659 -1.5013 -0.5723
 1611TIP3    H226469   2.086   0.717   1.393 -1.1001  1.0776 -0.1635
 1612TIP3   OH226470   3.789   2.297   0.725  0.2934  0.0275 -0.4784
 1612TIP3    H126471   3.779   2.350   0.805 -0.2353  0.8885 -1.1024
 1612TIP3    H226472   3.762   2.209   0.751 -0.7576  0.4956  0.0730
 1613TIP3   OH226473   3.946   6.102   7.390  0.5969  0.0401  0.0984
 1613TIP3    H126474   3.931   6.183   7.341  0.9282  1.5170  2.3617
 1613TIP3    H226475   3.858   6.071   7.412  0.3632 -1.6228 -2.8901
 1614TIP3   OH226476   6.025   0.253   7.000 -0.5960 -0.1644 -0.5924
 1614TIP3    H126477   5.957   0.312   6.966  0.2914  0.7213 -0.8750
 1614TIP3    H226478   6.100   0.266   6.941 -0.0543 -0.8536 -0.0737
 1615TIP3   OH226479   6.725   1.217   6.664  0.1652  0.6153 -0.2017
 1615TIP3    H126480   6.747   1.124   6.659 -0.7776  0.3471  0.4255
 1615TIP3    H226481   6.655   1.229   6.599 -0.1139  0.7614  0.1222
 1616TIP3   OH226482   5.315   0.566   8.136 -0.3241  0.2415  0.3499
 1616TIP3    H126483   5.226   0.532   8.134 -0.1862 -0.1043  0.1601
 1616TIP3    H226484   5.345   0.550   8.225 -0.8546  1.3904  0.7467
 1617TIP3   OH226485   4.912   7.227   1.693  0.1404 -0.1797  0.8675
 1617TIP3    H126486   4.970   7.286   1.741  0.9859 -1.4683  1.4640
 1617TIP3    H226487   4.897   7.154   1.753 -0.3415 -0.9035 -0.1143
 1618TIP3   OH226488   4.930   3.353   8.249  0.3828  0.0293 -0.3235
 1618TIP3    H126489   4.961   3.298   8.321  3.0267  0.2236 -1.2437
 1618TIP3    H226490   4.917   3.439   8.288 -1.2091 -0.6037  0.5659
 1619TIP3   OH226491   6.288   4.058   1.152  0.1029  0.0203 -0.2635
 1619TIP3    H126492   6.230   4.054   1.228  0.0525 -0.0671 -0.3075
 1619TIP3    H226493   6.358   3.996   1.173  1.2147  1.5400  0.6666
 1620TIP3   OH226494   2.765   0.563   0.147  0.4827  0.3009 -0.1716
 1620TIP3    H126495   2.814   0.547   0.229 -0.0884  0.1083  0.1344
 1620TIP3    H226496   2.735   0.653   0.155 -0.4473 -0.0420  0.2997
 1621TIP3   OH226497   5.298   2.030   7.842 -0.4361  0.1336 -0.2101
 1621TIP3    H126498   5.318   1.985   7.761  0.8000  1.1563 -0.4986
 1621TIP3    H226499   5.383   2.058   7.876 -1.0006  0.4666  0.9940
 1622TIP3   OH226500   3.763   3.868   1.230 -0.2368  0.1500 -0.2528
 1622TIP3    H126501   3.670   3.862   1.206 -0.0828  1.0820 -1.1112
 1622TIP3    H226502   3.762   3.893   1.323 -0.8686  1.8578 -0.6964
 1623TIP3   OH226503   4.807   2.154   6.161 -0.1656 -0.1198  0.2518
 1623TIP3    H126504   4.770   2.233   6.199  0.7898  0.5683 -0.2393
 1623TIP3    H226505   4.856   2.112   6.232 -0.2655 -0.0211  0.3776
 1624TIP3   OH226506   5.668   3.956   7.921  0.4108 -0.8798  0.1016
 1624TIP3    H126507   5.716   3.942   7.839  1.2573 -1.9847  0.7718
 1624TIP3    H226508   5.724   4.015   7.971  0.6528 -1.4659  0.5250
 1625TIP3   OH226509   6.636   7.099   7.989 -0.9147 -0.2517 -0.1069
 1625TIP3    H126510   6.642   7.155   8.067  1.6117 -0.0142 -0.4360
 1625TIP3    H226511   6.562   7.134   7.940 -0.7280  1.4431  0.7788
 1626TIP3   OH226512   7.168   2.903   6.125 -0.1475 -0.4013 -0.0362
 1626TIP3    H126513   7.211   2.948   6.198 -0.5552 -2.5303  1.5434
 1626TIP3    H226514   7.229   2.912   6.052 -0.1676  2.6222  0.2543
 1627TIP3   OH226515   4.606   5.283   0.521  0.0248 -0.0348  0.3012
 1627TIP3    H126516   4.632   5.222   0.452  0.6435 -0.1339  0.6214
 1627TIP3    H226517   4.544   5.342   0.479 -1.1161 -1.3090  0.1574
 1628TIP3   OH226518   5.627   4.992   7.354  0.0569  0.4712  0.1337
 1628TIP3    H126519   5.627   4.896   7.355  2.2109  0.4499  0.3622
 1628TIP3    H226520   5.539   5.016   7.385 -1.0338 -1.4169 -1.3834
 1629TIP3   OH226521   2.622   6.829   7.727  0.3218  0.1385  0.1710
 1629TIP3    H126522   2.547   6.771   7.718 -0.2000  0.7511  0.5398
 1629TIP3    H226523   2.640   6.832   7.821  1.2885 -0.6109  0.0135
 1630TIP3   OH226524   1.342   0.636   7.177 -0.3458 -0.3277  0.2438
 1630TIP3    H126525   1.255   0.639   7.216 -0.7000  0.6229 -0.6026
 1630TIP3    H226526   1.329   0.593   7.093 -0.5866  2.5592 -1.2886
 1631TIP3   OH226527   1.328   5.498   8.442 -0.3755  0.0107  0.3759
 1631TIP3    H126528   1.340   5.564   8.510 -1.5176  1.3642 -0.7319
 1631TIP3    H226529   1.413   5.493   8.398 -0.5753  1.4159 -0.1587
 1632TIP3   OH226530   6.411   3.095   0.963  0.3556 -0.3192 -0.3405
 1632TIP3    H126531   6.466   3.054   0.896  1.3482 -1.6488  1.2415
 1632TIP3    H226532   6.437   3.187   0.963  0.2195 -0.2717 -1.8972
 1633TIP3   OH226533   4.385   4.267   6.382  0.2138  0.3815 -0.1447
 1633TIP3    H126534   4.340   4.185   6.363  2.6521 -0.7106 -1.4753
 1633TIP3    H226535   4.373   4.321   6.304  1.0776  0.1247 -0.4655
 1634TIP3   OH226536   3.233   2.906   0.287  0.7421 -0.1832  0.1607
 1634TIP3    H126537   3.232   2.818   0.326  1.0777 -0.3187 -0.1367
 1634TIP3    H226538   3.295   2.900   0.215 -1.8946 -0.6546 -2.1363
 1635TIP3   OH226539   5.849   4.490   7.444  0.6479  0.0652  0.7672
 1635TIP3    H126540   5.891   4.525   7.365  2.9112 -1.8924  1.0531
 1635TIP3    H226541   5.891   4.537   7.516  1.9059 -1.4477  1.0265
 1636TIP3   OH226542   5.649   3.086   6.328 -0.0355  0.2327  0.4337
 1636TIP3    H126543   5.622   3.008   6.280  0.5570 -0.1179  0.6724
 1636TIP3    H226544   5.569   3.138   6.336 -0.0064  0.6029 -1.5073
 1637TIP3   OH226545   6.288   5.816   6.818  0.2981 -0.0380 -0.0769
 1637TIP3    H126546   6.354   5.753   6.846  2.2822  2.6208  1.4855
 1637TIP3    H226547   6.302   5.827   6.725  0.5788 -1.1450 -0.1661
 1638TIP3   OH226548   6.818   4.359   6.353 -0.0106  0.1210  0.3885
 1638TIP3    H126549   6.799   4.266   6.352 -0.0286  0.1231  0.4745
 1638TIP3    H226550   6.829   4.383   6.261  4.6000 -0.9098  0.5328
 1639TIP3   OH226551   6.238   3.101   8.164  0.3583  0.6120  0.1285
 1639TIP3    H126552   6.226   3.107   8.069 -0.0413 -0.0305  0.1333
 1639TIP3    H226553   6.232   3.007   8.183  1.4152  0.6404  0.6659
 1640TIP3   OH226554   4.953   5.619   2.173  0.0245 -0.4721  0.3540
 1640TIP3    H126555   4.883   5.591   2.233  0.2119 -0.5934  0.5172
 1640TIP3    H226556   4.999   5.688   2.220 -0.3570  0.0280  0.0009
 1641TIP3   OH226557   5.298   1.303   7.113  0.2144  0.6669 -0.5496
 1641TIP3    H126558   5.222   1.299   7.054 -0.5312  0.4587  0.4019
 1641TIP3    H226559   5.374   1.304   7.055 -0.5303  1.2199 -1.5272
 1642TIP3   OH226560   5.028   2.424   8.380 -0.7447  0.0857  0.4343
 1642TIP3    H126561   5.108   2.377   8.357 -1.3855 -0.7830 -0.0324
 1642TIP3    H226562   4.957   2.368   8.348 -1.5283  1.0875  0.4042
 1643TIP3   OH226563   5.117   1.628   8.041 -0.0339 -0.2288 -0.2678
 1643TIP3    H126564   5.058   1.603   8.112  0.6381  1.5759  0.9603
 1643TIP3    H226565   5.172   1.551   8.029 -1.2482 -1.1586  0.0262
 1644TIP3   OH226566   5.340   1.840   7.308 -0.6272 -0.0032 -0.2624
 1644TIP3    H126567   5.265   1.896   7.327 -0.1620  0.5319 -0.0010
 1644TIP3    H226568   5.303   1.752   7.302 -1.2317  0.2214  0.1404
 1645TIP3   OH226569   6.187   2.841   0.675 -0.0522  0.3284 -0.0004
 1645TIP3    H126570   6.140   2.763   0.646 -1.2544  1.1835 -0.4368
 1645TIP3    H226571   6.198   2.829   0.769  0.3438 -0.6648 -0.1761
 1646TIP3   OH226572   5.506   3.350   6.918 -0.0964 -0.7456 -0.5016
 1646TIP3    H126573   5.454   3.321   6.843 -2.5572 -0.6989  1.1026
 1646TIP3    H226574   5.551   3.271   6.948 -0.6001 -1.1816 -0.8783
 1647TIP3   OH226575   0.170   1.027   1.964 -0.0673  0.5060 -0.0782
 1647TIP3    H126576   0.179   1.033   2.059  0.3492 -0.4137 -0.0581
 1647TIP3    H226577   0.224   0.953   1.939 -0.7397  0.3004 -0.9527
 1648TIP3   OH226578   0.087   0.044   6.568  0.5950  0.1056 -0.3093
 1648TIP3    H126579   0.108   0.137   6.561 -0.5024  0.3819 -0.0972
 1648TIP3    H226580  -0.004   0.038   6.538  0.9288 -1.0263 -1.1147
 1649TIP3   OH226581   4.309   1.554   1.759  0.1116  0.1372  0.3740
 1649TIP3    H126582   4.258   1.497   1.816  2.1404 -0.8861  1.2370
 1649TIP3    H226583   4.280   1.642   1.781 -1.2395 -0.4162  0.8546
 1650TIP3   OH226584   6.456   5.672   6.670 -0.0543 -0.0483  0.3804
 1650TIP3    H126585   6.478   5.725   6.594 -0.3935 -0.9845 -0.3899
 1650TIP3    H226586   6.472   5.582   6.641 -0.8272 -0.4514  1.1908
 1651TIP3   OH226587   4.959   0.156   1.455  0.5742  0.1769  0.1918
 1651TIP3    H126588   4.993   0.140   1.543 -0.4665 -0.7619  0.4428
 1651TIP3    H226589   4.864   0.165   1.468  0.8141  4.1801 -0.2876
 1652TIP3   OH226590   5.977   2.457   6.445 -0.1221  0.1549  0.0713
 1652TIP3    H126591   5.985   2.366   6.474  3.2164  0.0529 -0.9309
 1652TIP3    H226592   6.035   2.462   6.368  0.3981  3.3231  0.6193
 1653TIP3   OH226593   6.630   4.918   8.387  0.4184  0.2493 -0.1480
 1653TIP3    H126594   6.582   4.982   8.334 -1.3699  1.1615  2.4753
 1653TIP3    H226595   6.595   4.833   8.359 -0.8705  0.7490 -0.0851
 1654TIP3   OH226596   6.678   2.797   6.580 -0.1615 -0.3124 -0.1277
 1654TIP3    H126597   6.627   2.801   6.500 -1.1604 -1.0191  0.4678
 1654TIP3    H226598   6.685   2.703   6.599  0.1727 -0.1536  0.5507
 1655TIP3   OH226599   5.263   0.139   6.489 -0.1505  0.1778  0.4167
 1655TIP3    H126600   5.305   0.055   6.471  0.7399  0.6661  0.1971
 1655TIP3    H226601   5.324   0.183   6.548 -0.7654  0.5445  0.7766
 1656TIP3   OH226602   6.219   1.220   7.542 -0.0081 -0.8507  0.0669
 1656TIP3    H126603   6.284   1.164   7.499  2.5881  2.8330 -1.1612
 1656TIP3    H226604   6.181   1.271   7.471 -0.8539  0.3348  1.3390
 1657TIP3   OH226605   4.282   1.577   1.494 -0.1815  0.3972  0.0440
 1657TIP3    H126606   4.193   1.542   1.488 -0.2848  0.5722  0.5910
 1657TIP3    H226607   4.307   1.566   1.585  0.2272  0.6736 -0.0327
 1658TIP3   OH226608   0.689   4.855   8.417  0.3363 -0.5398 -0.0382
 1658TIP3    H126609   0.727   4.924   8.362 -0.6202 -1.2922 -1.6614
 1658TIP3    H226610   0.595   4.861   8.402  0.0292 -0.6787  1.6502
 1659TIP3   OH226611   1.097   3.907   1.308 -0.2617 -0.4644 -0.1453
 1659TIP3    H126612   1.020   3.942   1.262 -1.3246 -2.1836  0.2653
 1659TIP3    H226613   1.154   3.875   1.238 -0.9052 -1.1199 -0.3823
 1660TIP3   OH226614   7.319   6.578   1.697 -0.2584  0.4372 -0.3271
 1660TIP3    H126615   7.389   6.635   1.664  1.0983 -0.4215  0.9490
 1660TIP3    H226616   7.322   6.501   1.640  0.3986  0.0597  0.1929
 1661TIP3   OH226617   6.633   3.660   7.293 -0.8030 -0.4589 -0.5896
 1661TIP3    H126618   6.722   3.685   7.316 -0.7413 -0.8942 -0.3491
 1661TIP3    H226619   6.589   3.743   7.274 -0.0768 -0.3097 -1.7033
 1662TIP3   OH226620   0.305   4.978   6.787  0.4631 -0.4883 -0.2354
 1662TIP3    H126621   0.311   4.957   6.693  0.5076 -0.4721 -0.2364
 1662TIP3    H226622   0.390   4.950   6.822  0.1395 -1.2309 -0.0502
 1663TIP3   OH226623   4.218   5.108   1.034  0.2441 -0.0586 -0.6770
 1663TIP3    H126624   4.236   5.202   1.042 -1.7147  0.2378  0.5214
 1663TIP3    H226625   4.302   5.066   1.051  0.8549  1.4323  0.1052
 1664TIP3   OH226626   5.249   3.297   6.798  0.3362  0.3717 -0.0435
 1664TIP3    H126627   5.209   3.360   6.738  0.2759  0.5780  0.2122
 1664TIP3    H226628   5.223   3.327   6.885  0.0220 -0.1982  0.0675
 1665TIP3   OH226629   5.445   0.515   7.792 -0.4282 -0.0235  0.5514
 1665TIP3    H126630   5.455   0.609   7.774  1.7965 -0.1540  0.9959
 1665TIP3    H226631   5.446   0.509   7.887 -1.4345 -0.4295  0.5439
 1666TIP3   OH226632   6.862   4.169   7.718  0.1386  0.3030  0.3485
 1666TIP3    H126633   6.884   4.221   7.795 -0.8125  0.6117  0.4207
 1666TIP3    H226634   6.850   4.233   7.648 -0.6028  0.1516  0.3329
 1667TIP3   OH226635   5.243   3.996   7.883 -0.4826 -0.0157  0.0632
 1667TIP3    H126636   5.186   3.923   7.905 -1.7091  0.9385  0.0677
 1667TIP3    H226637   5.184   4.069   7.868  0.8800  1.8489  3.2732
 1668TIP3   OH226638   2.168   1.590   7.022  0.0100  0.3473 -0.6450
 1668TIP3    H126639   2.201   1.574   6.934  1.0978  1.3235 -0.4361
 1668TIP3    H226640   2.210   1.523   7.076 -1.9220 -1.2795 -1.1177
 1669TIP3   OH226641   4.464   2.920   1.830  0.2691  0.3513 -0.9913
 1669TIP3    H126642   4.452   2.829   1.804 -1.3160  0.5400 -0.9606
 1669TIP3    H226643   4.445   2.921   1.924 -0.1282  0.7871 -1.0746
 1670TIP3   OH226644   4.711   5.549   0.073  0.0903  0.3570 -0.2255
 1670TIP3    H126645   4.630   5.535   0.024 -0.9462 -1.1202  1.8815
 1670TIP3    H226646   4.758   5.616   0.022 -1.7940  0.2123 -2.2146
 1671TIP3   OH226647   6.911   3.454   7.049  0.0385  0.6604 -0.0889
 1671TIP3    H126648   6.938   3.469   7.140  3.2657 -0.9608 -0.7237
 1671TIP3    H226649   6.930   3.536   7.005  1.8752  0.2683 -0.0443
 1672TIP3   OH226650   3.668   2.987   0.905 -0.4072  0.0447  0.3439
 1672TIP3    H126651   3.666   2.931   0.827 -0.3437  0.7689 -0.1795
 1672TIP3    H226652   3.753   2.969   0.944  0.4627  1.2965 -0.9468
 1673TIP3   OH226653   1.060   2.301   6.208 -0.0698 -0.4983  0.0375
 1673TIP3    H126654   1.114   2.239   6.257 -1.4768  0.1783  2.5460
 1673TIP3    H226655   0.982   2.252   6.184 -0.3143 -0.2694  0.3425
 1674TIP3   OH226656   6.389   4.316   8.040  0.2309 -0.1108  0.1807
 1674TIP3    H126657   6.462   4.320   7.979 -0.4943  0.1660 -0.6818
 1674TIP3    H226658   6.318   4.276   7.990 -0.6394  0.9097  0.5662
 1675TIP3   OH226659   6.534   2.340   6.686 -0.2586 -0.0339  0.2915
 1675TIP3    H126660   6.539   2.304   6.775  1.5594 -1.3649 -0.3206
 1675TIP3    H226661   6.533   2.263   6.629  2.0959  0.8559 -0.9848
 1676TIP3   OH226662   5.311   1.579   6.655 -1.1028  0.3679 -0.2220
 1676TIP3    H126663   5.354   1.494   6.645 -1.4112  0.2774 -0.8306
 1676TIP3    H226664   5.373   1.642   6.618 -1.4714  0.2427 -1.0602
 1677TIP3   OH226665   1.698   3.437   6.895  0.0655  0.1707 -0.0232
 1677TIP3    H126666   1.770   3.425   6.957 -0.0476  2.1538  0.5490
 1677TIP3    H226667   1.621   3.409   6.943  0.1655  0.2811  0.2048
 1678TIP3   OH226668   4.293   3.144   1.578 -0.1828 -0.7047  0.0970
 1678TIP3    H126669   4.372   3.097   1.603  0.6901  1.0160  0.6502
 1678TIP3    H226670   4.261   3.099   1.500  1.7019 -1.0328 -0.5059
 1679TIP3   OH226671   6.027   1.868   1.850  0.6296 -0.4637 -0.7368
 1679TIP3    H126672   6.074   1.925   1.911 -0.3000  0.0016 -0.4489
 1679TIP3    H226673   6.025   1.783   1.894 -0.9424  0.1191  0.3601
 1680TIP3   OH226674   0.527   5.784   6.681  0.3981  0.3270  0.2841
 1680TIP3    H126675   0.558   5.841   6.751 -0.8504  0.5249  0.6887
 1680TIP3    H226676   0.440   5.817   6.660 -1.3181 -2.8336  2.1127
 1681TIP3   OH226677   4.864   2.280   6.650  0.1465 -0.3322 -0.3038
 1681TIP3    H126678   4.916   2.200   6.647  0.3873 -0.2101  0.5606
 1681TIP3    H226679   4.928   2.351   6.640  0.2765 -0.1448  1.7341
 1682TIP3   OH226680   5.477   3.178   8.416  0.2898  0.5733  0.3815
 1682TIP3    H126681   5.518   3.176   8.330  0.0411 -1.5192  0.2930
 1682TIP3    H226682   5.414   3.250   8.411 -0.7687 -0.4575 -1.6815
 1683TIP3   OH226683   6.050   2.870   6.464  0.4766  0.2041  0.6221
 1683TIP3    H126684   6.018   2.914   6.542 -0.3741  0.5888  0.0657
 1683TIP3    H226685   6.130   2.918   6.441 -1.2629  2.4976 -0.8645
 1684TIP3   OH226686   6.238   3.581   7.064  0.3905 -0.4035  0.1324
 1684TIP3    H126687   6.274   3.599   7.151  0.7121 -1.2449  0.1821
 1684TIP3    H226688   6.204   3.665   7.034 -1.4850 -0.4986  1.8629
 1685TIP3   OH226689   1.102   1.264   6.281  0.3451 -0.2128  0.0483
 1685TIP3    H126690   1.193   1.248   6.305 -0.2116 -0.7062  1.8875
 1685TIP3    H226691   1.080   1.347   6.323  0.5641  1.0396 -2.1952
 1686TIP3   OH226692   0.306   4.313   6.330  0.4501 -0.4340 -0.2659
 1686TIP3    H126693   0.351   4.264   6.262  1.7577 -0.8744  0.9137
 1686TIP3    H226694   0.358   4.393   6.340 -0.2448  0.0401 -0.4037
 1687TIP3   OH226695   6.666   2.384   6.155 -0.1342 -0.0644  0.8185
 1687TIP3    H126696   6.698   2.378   6.065  2.1101 -1.2075  1.6596
 1687TIP3    H226697   6.571   2.393   6.146  0.3461  3.2349 -1.7554
 1688TIP3   OH226698   4.605   0.307   7.992  0.7144 -0.4053 -0.2662
 1688TIP3    H126699   4.528   0.326   8.046  0.5489  0.0626 -0.6676
 1688TIP3    H226700   4.574   0.246   7.926  0.0894  1.6772 -1.9362
 1689TIP3   OH226701   6.959   2.163   6.568 -0.1315  0.4904  0.1061
 1689TIP3    H126702   6.876   2.140   6.526  0.5124  0.0546 -0.9438
 1689TIP3    H226703   6.945   2.142   6.660 -0.9214 -0.3224 -0.1845
 1690TIP3   OH226704   3.324   3.890   7.699 -0.2222  0.5385  0.4349
 1690TIP3    H126705   3.415   3.920   7.696 -0.2929  0.6308 -1.6198
 1690TIP3    H226706   3.292   3.901   7.609 -1.6610 -1.3412  0.6683
 1691TIP3   OH226707   6.685   1.753   6.957  0.0072 -0.5499  0.1075
 1691TIP3    H126708   6.604   1.721   6.997  0.4849 -3.3135 -1.0118
 1691TIP3    H226709   6.725   1.675   6.919  2.7761  0.9370 -0.1177
 1692TIP3   OH226710   5.516   4.062   7.138  0.4496 -0.5324  0.5722
 1692TIP3    H126711   5.465   4.141   7.157  0.1917 -0.4348 -0.4820
 1692TIP3    H226712   5.504   4.006   7.214  1.2864  0.7793  1.6897
 1693TIP3   OH226713   5.352   2.047   7.554  0.1860 -0.1336 -0.1414
 1693TIP3    H126714   5.424   2.013   7.502 -0.7829 -1.3096 -0.7506
 1693TIP3    H226715   5.382   2.132   7.585  0.8861  0.4869 -2.4452
 1694TIP3   OH226716   7.055   5.094   6.820  0.6908 -0.9789  1.2046
 1694TIP3    H126717   7.034   5.003   6.840  1.4325 -2.0792 -2.7224
 1694TIP3    H226718   6.972   5.133   6.793  1.1386 -1.7477 -1.4212
 1695TIP3   OH226719   4.728   4.154   8.244  1.1185 -0.3242 -0.3800
 1695TIP3    H126720   4.801   4.147   8.306 -0.1022 -0.1710  1.0946
 1695TIP3    H226721   4.718   4.248   8.228  0.2726 -0.2347  0.6137
 1696TIP3   OH226722   6.701   5.973   1.418 -0.8509 -0.0895 -0.3104
 1696TIP3    H126723   6.728   5.895   1.466 -0.9884  0.2230  0.2778
 1696TIP3    H226724   6.655   6.026   1.483 -1.9098 -0.1113 -1.0289
 1697TIP3   OH226725   5.231   3.749   7.090 -0.1837 -0.0361  0.2969
 1697TIP3    H126726   5.212   3.755   6.997 -1.3595 -0.9290  0.4656
 1697TIP3    H226727   5.307   3.691   7.095  0.9127  1.3411 -0.2082
 1698TIP3   OH226728   5.909   4.006   6.552  0.0648  0.0717 -0.9515
 1698TIP3    H126729   5.973   3.991   6.483  1.2575 -1.8153  0.5092
 1698TIP3    H226730   5.951   4.072   6.608 -0.8058  1.4344 -1.8708
 1699TIP3   OH226731   7.307   3.079   6.269 -0.1798  0.1612  0.4595
 1699TIP3    H126732   7.393   3.122   6.274 -0.3665  0.4047  1.9017
 1699TIP3    H226733   7.246   3.144   6.304 -1.4936  1.3011 -3.7142
 1700TIP3   OH226734   6.037   2.887   8.078  0.3691  0.0335  0.5933
 1700TIP3    H126735   5.991   2.807   8.051 -0.3433  1.3034 -2.1793
 1700TIP3    H226736   6.002   2.907   8.164  0.0568 -2.2736  1.0324
 1701TIP3   OH226737   2.108   4.226   1.261  0.3077  0.2909 -0.7463
 1701TIP3    H126738   2.100   4.169   1.337  1.5751  0.4532 -0.4819
 1701TIP3    H226739   2.047   4.189   1.197  0.3344 -0.7307 -0.1875
 1702TIP3   OH226740   6.004   6.066   6.400  0.2612 -0.3105  0.1005
 1702TIP3    H126741   5.924   6.014   6.399  0.9895 -1.4665  0.9595
 1702TIP3    H226742   6.047   6.044   6.318  0.9763 -1.7387  0.8364
 1703TIP3   OH226743   6.341   3.679   6.774 -0.0876 -0.7285 -0.2877
 1703TIP3    H126744   6.338   3.644   6.685  0.0900 -1.7895  0.1290
 1703TIP3    H226745   6.278   3.627   6.823 -0.0640 -0.2529  0.2485
 1704TIP3   OH226746   5.007   3.585   6.322  0.2163  0.3050 -0.4508
 1704TIP3    H126747   4.947   3.561   6.252 -0.4576  1.2193 -0.1912
 1704TIP3    H226748   5.091   3.598   6.278 -0.0319  0.1384 -0.9780
 1705TIP3   OH226749   4.104   3.352   1.247 -0.0700  0.4023 -0.0368
 1705TIP3    H126750   4.065   3.423   1.196 -0.4577  0.0808 -0.1895
 1705TIP3    H226751   4.058   3.355   1.331  1.9206  2.1980  1.0437
 1706TIP3   OH226752   0.790   5.001   0.150  0.6519  0.2084 -0.3146
 1706TIP3    H126753   0.767   4.930   0.090  0.6915  0.5148 -0.7039
 1706TIP3    H226754   0.708   5.046   0.167  0.5596 -0.1838  0.2644
 1707TIP3   OH226755   4.042   0.032   0.506 -0.0239 -0.0936  0.3823
 1707TIP3    H126756   3.983   0.096   0.546  0.0746  0.2733 -0.0617
 1707TIP3    H226757   3.986  -0.019   0.448  0.2257  0.7283 -0.5972
 1708TIP3   OH226758   0.861   5.214   7.051  0.2127  0.3110  0.3083
 1708TIP3    H126759   0.791   5.180   6.994 -0.9729  1.9699  0.7402
 1708TIP3    H226760   0.904   5.281   6.999 -0.2006  1.1057  0.9776
 1709TIP3   OH226761   5.353   0.852   8.076 -0.1193  0.4018  0.3521
 1709TIP3    H126762   5.301   0.773   8.081  0.2294 -0.0339 -2.2617
 1709TIP3    H226763   5.289   0.922   8.064 -0.2721  0.2244  0.1325
 1710TIP3   OH226764   1.830   0.106   6.780  0.4705 -0.4305  0.5602
 1710TIP3    H126765   1.876   0.022   6.772 -0.2118 -0.6699 -0.9881
 1710TIP3    H226766   1.898   0.167   6.809  1.0052 -1.4748  1.5944
 1711TIP3   OH226767   6.182   0.643   2.338  0.0560  0.1458 -0.1759
 1711TIP3    H126768   6.109   0.692   2.376 -0.2436  0.1800 -0.8043
 1711TIP3    H226769   6.177   0.557   2.380 -0.4448  0.0909 -0.3426
 1712TIP3   OH226770   3.353   1.190   8.491  0.9176  0.1409 -0.5635
 1712TIP3    H126771   3.273   1.218   8.448  0.9788  1.5882  0.2357
 1712TIP3    H226772   3.406   1.270   8.498 -0.1437  0.5943  4.4884
 1713TIP3   OH226773   3.294   2.710   6.371  0.4869 -1.1231  0.0239
 1713TIP3    H126774   3.243   2.716   6.290 -0.6770 -1.6419  0.6969
 1713TIP3    H226775   3.326   2.620   6.373 -1.9740 -2.0360  1.5565
 1714TIP3   OH226776   6.629   0.691   1.027  0.6104  0.1215  0.1806
 1714TIP3    H126777   6.539   0.661   1.010  0.4538 -0.1163  1.4342
 1714TIP3    H226778   6.626   0.728   1.115  1.4546  1.2947 -0.2687
 1715TIP3   OH226779   5.716   2.023   0.396 -0.3744 -0.1252 -0.0961
 1715TIP3    H126780   5.637   2.069   0.422 -1.0008 -1.1702 -0.1350
 1715TIP3    H226781   5.749   1.983   0.477 -2.4117 -3.5110 -0.8234
 1716TIP3   OH226782   0.413   1.253   6.255 -0.3159 -0.0284  0.0581
 1716TIP3    H126783   0.325   1.287   6.243 -0.3447  0.3844  1.3196
 1716TIP3    H226784   0.400   1.162   6.284 -0.3845  0.4855  1.6996
 1717TIP3   OH226785   7.020   7.132   1.647 -0.2315  0.8145  0.0019
 1717TIP3    H126786   7.104   7.088   1.636  0.1454  1.5509 -0.1309
 1717TIP3    H226787   6.961   7.064   1.679 -0.1406 -0.2287 -1.9775
 1718TIP3   OH226788   1.341   2.222   1.976 -0.1997  0.1000 -0.4549
 1718TIP3    H126789   1.309   2.218   2.066  0.6505  0.1682 -0.1475
 1718TIP3    H226790   1.389   2.304   1.971  0.1097 -0.1014 -0.8539
 1719TIP3   OH226791   5.902   6.311   7.812 -0.0822  0.3194  0.1500
 1719TIP3    H126792   5.832   6.366   7.847 -2.3746 -1.5189 -1.4713
 1719TIP3    H226793   5.901   6.327   7.718  1.9432  0.5256  0.1320
 1720TIP3   OH226794   5.514   1.321   6.917  0.1901 -0.4852 -0.2439
 1720TIP3    H126795   5.509   1.225   6.914  0.7278 -0.4842 -1.3777
 1720TIP3    H226796   5.544   1.346   6.830 -0.2171  0.7406 -0.0373
 1721TIP3   OH226797   4.221   2.410   0.655  0.2663  0.6958 -0.7455
 1721TIP3    H126798   4.174   2.327   0.662  0.8943  0.2124 -2.1895
 1721TIP3    H226799   4.311   2.385   0.636  0.3206  1.7261 -1.8712
 1722TIP3   OH226800   6.651   6.418   6.613  0.5793  0.2010 -0.0888
 1722TIP3    H126801   6.712   6.386   6.679  1.7802  0.1501 -1.1889
 1722TIP3    H226802   6.629   6.341   6.561  1.2615  0.6074 -1.0003
 1723TIP3   OH226803   6.280   3.122   6.685  0.4489  0.2694  0.6225
 1723TIP3    H126804   6.263   3.086   6.772  0.5388 -0.2565  0.4260
 1723TIP3    H226805   6.216   3.193   6.675  0.1821  0.0790  0.9623
 1724TIP3   OH226806   4.291   4.989   0.127  0.4339 -0.0374 -0.7605
 1724TIP3    H126807   4.267   5.079   0.106 -0.5935 -0.7237 -2.5856
 1724TIP3    H226808   4.219   4.957   0.182  1.0801  0.4306  0.3667
 1725TIP3   OH226809   6.014   2.925   1.966  0.3239 -0.0809  0.6177
 1725TIP3    H126810   5.922   2.899   1.968  0.0762  0.8274  1.5839
 1725TIP3    H226811   6.034   2.949   2.057  1.3182  0.4116  0.2770
 1726TIP3   OH226812   0.608   3.320   6.954 -0.0847  0.0181 -0.0552
 1726TIP3    H126813   0.687   3.348   7.000 -1.1847 -0.9370  2.5188
 1726TIP3    H226814   0.613   3.224   6.955  0.3987 -0.0310 -2.9473
 1727TIP3   OH226815   0.477   3.952   7.163  0.0876 -0.5048 -0.4651
 1727TIP3    H126816   0.434   3.984   7.242  0.1948 -2.0518  0.2567
 1727TIP3    H226817   0.406   3.932   7.102  0.0250  1.0435 -0.9037
 1728TIP3   OH226818   3.694   3.101   6.473 -0.0680  0.3278 -0.2969
 1728TIP3    H126819   3.630   3.029   6.470 -0.8419  1.0029  0.0088
 1728TIP3    H226820   3.698   3.134   6.384  2.4578 -1.9636 -1.1166
 1729TIP3   OH226821   3.126   2.710   8.417 -0.9837 -0.2882  0.1983
 1729TIP3    H126822   3.103   2.756   8.498  0.1650 -1.8643  1.4563
 1729TIP3    H226823   3.056   2.645   8.405 -1.0102 -0.2368  0.0704
 1730TIP3   OH226824   5.603   5.966   0.420  0.1871 -0.6295  0.3586
 1730TIP3    H126825   5.691   5.987   0.452 -0.2545  1.3879  0.3688
 1730TIP3    H226826   5.548   6.037   0.455 -1.1958 -1.1426 -0.7368
 1731TIP3   OH226827   6.112   2.543   2.511  0.3122  0.3650  0.3850
 1731TIP3    H126828   6.097   2.618   2.454 -0.1931  0.1830  0.2682
 1731TIP3    H226829   6.169   2.575   2.580  0.7506  0.6443 -0.1109
 1732TIP3   OH226830   7.037   2.175   6.206 -0.2230  0.2475  0.9607
 1732TIP3    H126831   6.981   2.207   6.276 -0.8369  0.1901  0.5042
 1732TIP3    H226832   7.004   2.087   6.188 -0.0267  0.2358  0.6549
 1733TIP3   OH226833   6.044   5.910   6.639 -0.0005 -0.5953 -0.1326
 1733TIP3    H126834   6.116   5.941   6.693 -0.3754 -0.7492  0.4698
 1733TIP3    H226835   6.055   5.954   6.555 -0.4688  1.0759  0.6601
 1734TIP3   OH226836   6.882   2.489   7.057  0.0725 -0.3691 -0.1282
 1734TIP3    H126837   6.943   2.562   7.054 -0.1656 -0.1345  0.6951
 1734TIP3    H226838   6.798   2.528   7.081  0.3939 -1.1810  2.4512
 1735TIP3   OH226839   5.935   4.915   7.693  0.7091  0.7034 -0.2649
 1735TIP3    H126840   6.026   4.926   7.667  1.2337  0.7377  1.5040
 1735TIP3    H226841   5.931   4.951   7.782 -1.1119  1.0560 -0.4599
 1736TIP3   OH226842   4.005   2.731   2.358 -0.0410  0.7013  0.0556
 1736TIP3    H126843   4.024   2.694   2.445  2.3029  2.2925  0.2657
 1736TIP3    H226844   3.935   2.794   2.374 -1.1157 -0.5457  0.4001
 1737TIP3   OH226845   2.914   5.106   1.433  0.6468  0.1185 -0.1506
 1737TIP3    H126846   2.867   5.022   1.426  0.3695  0.1457  1.1695
 1737TIP3    H226847   2.846   5.169   1.459  0.9956  0.6087 -0.4253
 1738TIP3   OH226848   5.371   5.374   6.526 -0.0725 -0.0109  0.2280
 1738TIP3    H126849   5.429   5.405   6.457 -1.4638  1.1022 -0.4756
 1738TIP3    H226850   5.294   5.340   6.479  0.2735 -2.0877  1.1033
 1739TIP3   OH226851   3.336   5.393   0.607 -0.1523  0.3281 -0.5554
 1739TIP3    H126852   3.396   5.398   0.681 -0.9172 -2.0243  0.2946
 1739TIP3    H226853   3.272   5.462   0.623 -0.4661 -0.3198  1.1717
 1740TIP3   OH226854   1.611   3.709   8.342  0.0369  0.4767  0.5892
 1740TIP3    H126855   1.606   3.672   8.254  0.8440  1.4701  0.1223
 1740TIP3    H226856   1.589   3.801   8.331  1.6372  0.9466  1.1858
 1741TIP3   OH226857   4.502   2.682   7.879  0.3595 -0.1641  0.2756
 1741TIP3    H126858   4.486   2.593   7.910  0.9841  0.2950  1.9937
 1741TIP3    H226859   4.582   2.676   7.827  1.2049 -0.3714  1.5742
 1742TIP3   OH226860   5.990   3.587   0.449  0.4024  0.5657  0.2313
 1742TIP3    H126861   6.025   3.511   0.403 -0.2674 -0.4588  1.3653
 1742TIP3    H226862   5.982   3.655   0.382 -1.6040 -1.2198 -1.4131
 1743TIP3   OH226863   6.922   6.116   0.905  0.3852 -0.4019 -0.0241
 1743TIP3    H126864   6.991   6.057   0.875 -1.0109 -1.9975 -0.1427
 1743TIP3    H226865   6.899   6.084   0.992  0.9486  1.1695  0.7341
 1744TIP3   OH226866   6.060   4.599   6.551 -0.9358 -0.4216  1.2233
 1744TIP3    H126867   6.140   4.550   6.537 -1.7566 -1.5706  0.4451
 1744TIP3    H226868   6.089   4.684   6.584  0.8437  0.6647 -2.8056
 1745TIP3   OH226869   5.612   2.158   0.785 -0.3725 -0.2904 -0.2085
 1745TIP3    H126870   5.598   2.127   0.874 -1.7678 -0.8065 -0.6044
 1745TIP3    H226871   5.686   2.219   0.793 -2.7359  2.4348  1.8944
 1746TIP3   OH226872   4.513   7.288   7.129  0.1113  0.6768 -1.0449
 1746TIP3    H126873   4.524   7.194   7.114 -3.1056 -0.2036  1.5186
 1746TIP3    H226874   4.566   7.306   7.207 -0.9125  0.5531 -0.3198
 1747TIP3   OH226875   7.262   5.578   7.172 -0.2757 -0.2212  0.3456
 1747TIP3    H126876   7.328   5.593   7.104  0.1428 -0.3295  0.7187
 1747TIP3    H226877   7.234   5.488   7.159 -0.8399  0.0389 -0.2328
 1748TIP3   OH226878   5.349   1.639   8.238  0.3039  0.0980 -0.3410
 1748TIP3    H126879   5.431   1.591   8.234  0.8608  1.0858 -1.0578
 1748TIP3    H226880   5.313   1.633   8.149 -0.8642 -1.1128  0.1979
 1749TIP3   OH226881   5.365   1.571   7.065  0.0013 -0.5617  0.1669
 1749TIP3    H126882   5.319   1.545   6.985  0.2030  0.4466 -0.2752
 1749TIP3    H226883   5.349   1.499   7.126 -1.4226 -0.6273 -0.2795
 1750TIP3   OH226884   5.458   2.949   6.639 -0.0030 -0.1961  0.5877
 1750TIP3    H126885   5.499   3.035   6.636 -0.4951  0.0209 -0.2518
 1750TIP3    H226886   5.369   2.966   6.671 -0.5362 -0.2029 -0.8519
 1751TIP3   OH226887   2.098   3.326   7.399 -0.3777 -0.3948 -0.1697
 1751TIP3    H126888   2.015   3.341   7.444 -0.9314 -1.3532 -0.8562
 1751TIP3    H226889   2.080   3.346   7.307  0.5392  0.7869 -0.1198
 1752TIP3   OH226890   0.747   4.073   6.545 -0.5284 -0.1396  0.0631
 1752TIP3    H126891   0.781   4.084   6.634 -2.9527 -1.8626  1.2548
 1752TIP3    H226892   0.758   3.980   6.526 -1.1587 -0.0061 -0.9864
 1753TIP3   OH226893   6.946   2.422   6.779  0.4148  0.0232  1.0270
 1753TIP3    H126894   6.988   2.337   6.791 -0.9618 -0.8069  0.1369
 1753TIP3    H226895   6.904   2.442   6.863  1.3876  0.1920  1.4740
 1754TIP3   OH226896   4.180   3.439   8.374  0.6836 -0.1028  0.3700
 1754TIP3    H126897   4.211   3.504   8.437  1.9146 -0.5912  0.2782
 1754TIP3    H226898   4.244   3.443   8.303  0.1626 -0.6648 -0.1332
 1755TIP3   OH226899   6.853   4.399   0.438 -0.8009  0.5472 -0.2473
 1755TIP3    H126900   6.934   4.394   0.387 -0.0318 -0.6959  1.0422
 1755TIP3    H226901   6.882   4.392   0.529 -2.1930  2.1732  0.3449
 1756TIP3   OH226902   4.611   3.215   1.695 -0.2524 -0.7323  0.7812
 1756TIP3    H126903   4.706   3.210   1.689 -0.1196  2.7422 -1.2187
 1756TIP3    H226904   4.580   3.153   1.629  0.7282  1.6243 -1.9792
 1757TIP3   OH226905   0.626   6.467   1.879 -0.0623 -0.3587  0.7255
 1757TIP3    H126906   0.695   6.415   1.920  0.1246 -0.9411 -0.2953
 1757TIP3    H226907   0.545   6.439   1.922  0.1673 -0.7283  0.9135
 1758TIP3   OH226908   4.805   3.890   7.419  0.6857 -0.3086 -0.4668
 1758TIP3    H126909   4.830   3.983   7.424  1.0138 -0.4696  1.7813
 1758TIP3    H226910   4.870   3.851   7.361 -0.9652  1.3014 -3.5523
 1759TIP3   OH226911   5.789   5.056   7.134 -0.0801  0.2898 -0.0112
 1759TIP3    H126912   5.726   5.031   7.202 -0.7454  1.1130 -0.3241
 1759TIP3    H226913   5.784   5.151   7.129  0.4419  0.2872 -0.7627
 1760TIP3   OH226914   2.364   1.773   6.652  0.3122 -0.0518  0.3341
 1760TIP3    H126915   2.413   1.735   6.579 -1.7871 -1.9052 -0.1611
 1760TIP3    H226916   2.311   1.700   6.686 -0.7795  1.4606  1.9827
 1761TIP3   OH226917   5.501   4.843   7.127  0.0238  0.7137  0.1113
 1761TIP3    H126918   5.588   4.823   7.164 -0.1789 -1.4540 -0.5093
 1761TIP3    H226919   5.519   4.867   7.036 -0.1082 -1.0128 -0.3952
 1762TIP3   OH226920   1.797   0.121   7.769  0.2503 -0.2628 -0.3023
 1762TIP3    H126921   1.811   0.085   7.682  3.4522  0.1497 -0.0002
 1762TIP3    H226922   1.847   0.064   7.827  1.0250  1.5440  0.8268
 1763TIP3   OH226923   0.017   6.317   6.415 -0.3602 -0.3299 -0.2242
 1763TIP3    H126924   0.102   6.358   6.432  0.5388 -1.6291 -1.4845
 1763TIP3    H226925  -0.042   6.391   6.400  0.3427  0.6250  1.4223
 1764TIP3   OH226926   0.439   4.078   6.830 -0.3177  0.5346  0.3394
 1764TIP3    H126927   0.468   4.141   6.897  0.3355  1.2876 -0.6479
 1764TIP3    H226928   0.461   4.120   6.747  2.1291 -1.9601 -0.3084
 1765TIP3   OH226929   3.115   5.099   7.969 -0.4408 -0.5158  0.4875
 1765TIP3    H126930   3.074   5.129   7.888  2.0016 -1.6270 -1.2101
 1765TIP3    H226931   3.188   5.159   7.984  0.8239 -1.9845  0.3221
 1766TIP3   OH226932   7.216   7.056   8.370 -0.4313  0.1891 -0.2304
 1766TIP3    H126933   7.127   7.022   8.379 -1.4324  2.5872 -0.6928
 1766TIP3    H226934   7.232   7.102   8.452  0.3052 -0.0553 -0.2357
 1767TIP3   OH226935   6.923   6.854   0.581 -0.4668 -0.0725  0.1599
 1767TIP3    H126936   6.849   6.890   0.631  0.2396 -0.6908  1.6688
 1767TIP3    H226937   7.000   6.878   0.632  0.2274 -1.1885 -0.3581
 1768TIP3   OH226938   1.298   3.711   6.804  0.0249 -0.8116 -0.1591
 1768TIP3    H126939   1.348   3.629   6.808  0.4194 -0.5017  1.4502
 1768TIP3    H226940   1.216   3.686   6.761  0.8832 -1.6559 -1.3564
 1769TIP3   OH226941   3.141   5.094   0.858 -0.5219  0.0576 -0.2038
 1769TIP3    H126942   3.203   5.077   0.787 -0.4412  1.1209 -0.3891
 1769TIP3    H226943   3.171   5.038   0.929 -0.3499 -0.6958 -0.8545
 1770TIP3   OH226944   6.310   4.083   6.861  0.1643 -0.4698 -0.2148
 1770TIP3    H126945   6.220   4.113   6.869  0.5770  0.3041  1.8706
 1770TIP3    H226946   6.354   4.119   6.938  2.7857  1.0423 -2.3271
 1771TIP3   OH226947   3.181   4.078   6.884 -0.2932 -0.3052  0.1249
 1771TIP3    H126948   3.175   4.144   6.952  0.4290 -0.5444  0.4237
 1771TIP3    H226949   3.132   4.114   6.810  0.7692  0.8983  0.0087
 1772TIP3   OH226950   0.393   3.140   6.848  0.2830 -0.2944  0.5282
 1772TIP3    H126951   0.365   3.110   6.935 -0.0919  0.0638  0.5318
 1772TIP3    H226952   0.434   3.225   6.863 -0.8706  0.3376  0.2137
 1773TIP3   OH226953   2.165   4.800   8.416  0.2068 -0.1334  0.3677
 1773TIP3    H126954   2.219   4.725   8.391  1.1746  0.5525  0.3997
 1773TIP3    H226955   2.114   4.820   8.337  2.4390  1.3095 -0.7453
 1774TIP3   OH226956   1.700   5.692   0.090  0.6256 -0.0115 -0.0003
 1774TIP3    H126957   1.782   5.731   0.058  0.3029  0.8290  0.1759
 1774TIP3    H226958   1.634   5.718   0.026  0.3686 -0.0809  0.2341
 1775TIP3   OH226959   1.413   7.035   0.696 -0.4330  0.4464  0.2423
 1775TIP3    H126960   1.334   6.997   0.735  0.3777 -0.7829  0.7472
 1775TIP3    H226961   1.383   7.076   0.615 -1.8182  1.2791  1.1600
 1776TIP3   OH226962   0.830   4.605   6.621  0.5141  0.0788 -0.3112
 1776TIP3    H126963   0.814   4.613   6.715  1.9648  1.6578 -0.1745
 1776TIP3    H226964   0.845   4.695   6.591 -0.8536 -0.3023 -2.2365
 1777TIP3   OH226965   4.035   6.519   6.771  0.7190  0.3532  0.0476
 1777TIP3    H126966   3.984   6.589   6.729 -0.4761 -0.6669 -0.2505
 1777TIP3    H226967   4.112   6.509   6.715 -0.3647 -0.2905 -1.3737
 1778TIP3   OH226968   2.571   3.797   0.781 -0.3121 -0.0681  0.7291
 1778TIP3    H126969   2.528   3.722   0.822 -1.6295  1.5494  2.3893
 1778TIP3    H226970   2.651   3.760   0.742 -1.1979 -2.4087  1.0232
 1779TIP3   OH226971   4.390   4.049   0.125  0.6555  0.0904  0.2082
 1779TIP3    H126972   4.345   3.964   0.127  0.7267  0.0517  0.1690
 1779TIP3    H226973   4.439   4.052   0.207  1.3073 -0.2605 -0.1630
 1780TIP3   OH226974   1.535   5.127   6.639 -0.5286 -0.2663 -0.8975
 1780TIP3    H126975   1.522   5.173   6.556 -0.2398  2.5356  0.5491
 1780TIP3    H226976   1.462   5.156   6.694  0.3252 -0.6474  0.4416
 1781TIP3   OH226977   6.369   3.828   0.264  0.1529  0.4838  0.0121
 1781TIP3    H126978   6.384   3.920   0.244  2.9794  0.2044  0.5166
 1781TIP3    H226979   6.358   3.786   0.179  1.2985  0.9299 -0.3612
 1782TIP3   OH226980   3.630   0.177   0.777  0.2294 -0.4539 -0.4127
 1782TIP3    H126981   3.535   0.182   0.776  0.2847  0.6735 -0.2588
 1782TIP3    H226982   3.649   0.094   0.821 -0.6375  0.3498  1.5023
 1783TIP3   OH226983   0.897   3.881   7.081 -0.0755  0.3748  1.0630
 1783TIP3    H126984   0.904   3.925   7.165 -0.4158  1.2804  0.6174
 1783TIP3    H226985   0.830   3.930   7.033  0.2963  0.0228  0.1727
 1784TIP3   OH226986   0.969   4.322   6.621  0.5127 -0.8691  0.8976
 1784TIP3    H126987   0.926   4.266   6.685 -2.2471 -0.1822 -0.2852
 1784TIP3    H226988   0.915   4.400   6.617  1.3293 -0.3760 -1.3526
 1785TIP3   OH226989   1.766   7.256   1.067  0.6084 -0.1368 -0.1210
 1785TIP3    H126990   1.678   7.247   1.103 -0.3978  0.1255 -2.4372
 1785TIP3    H226991   1.780   7.175   1.018  1.1480  0.4006 -0.8647
 1786TIP3   OH226992   0.520   3.846   6.409 -0.1778  0.0454  0.0066
 1786TIP3    H126993   0.530   3.880   6.320 -0.8127 -0.4730 -0.2720
 1786TIP3    H226994   0.609   3.836   6.442  0.0628  0.0980 -0.6311
 1787TIP3   OH226995   1.770   6.294   1.719  0.4521 -0.1468  0.5202
 1787TIP3    H126996   1.784   6.359   1.650 -0.5415  0.1251  0.5639
 1787TIP3    H226997   1.848   6.300   1.774  0.5073  0.8019  0.3494
 1788TIP3   OH226998   0.905   3.425   6.572  0.1234 -0.2589  0.1011
 1788TIP3    H126999   0.942   3.505   6.535  1.5497 -0.3335  1.3038
 1788TIP3    H227000   0.846   3.455   6.641  1.4963 -0.2361  1.3012
 1789TIP3   OH227001   3.655   1.219   6.649 -0.5864 -0.2036  0.2104
 1789TIP3    H127002   3.637   1.216   6.555  2.3952 -0.8758 -0.3897
 1789TIP3    H227003   3.714   1.294   6.659 -0.4632 -0.4677  1.4461
 1790TIP3   OH227004   0.801   4.800   5.946 -0.6323  0.2225 -1.1059
 1790TIP3    H127005   0.783   4.717   5.903 -2.7031 -0.9341  1.8802
 1790TIP3    H227006   0.897   4.801   5.956 -0.5977 -1.8336 -1.0825
 1791TIP3   OH227007   0.796   4.529   5.924  0.0955 -0.1318 -0.0466
 1791TIP3    H127008   0.820   4.444   5.886  1.8732 -0.0099  0.7747
 1791TIP3    H227009   0.862   4.545   5.991 -1.1958  1.1393  0.9461
 1792TIP3   OH227010   0.361   5.260   8.449 -0.1241  0.5297 -0.0815
 1792TIP3    H127011   0.314   5.181   8.477  3.0035 -1.0373  1.0686
 1792TIP3    H227012   0.353   5.261   8.354 -0.4219 -1.0549 -0.0820
 1793TIP3   OH227013   6.070   4.962   0.096  0.2089 -0.0387 -0.2025
 1793TIP3    H127014   5.992   5.018   0.090 -0.7889 -1.5100 -1.4210
 1793TIP3    H227015   6.038   4.880   0.135  1.5177 -0.0202  0.9547
 1794TIP3   OH227016   6.353   6.706   7.372  0.5847  0.1610  0.3329
 1794TIP3    H127017   6.334   6.782   7.427 -0.1942  0.2338 -0.0201
 1794TIP3    H227018   6.272   6.692   7.323  1.6717  0.8629 -1.7157
 1795TIP3   OH227019   6.911   5.985   7.475 -0.2181 -0.6205 -0.1198
 1795TIP3    H127020   6.872   6.072   7.489  0.5488 -0.5318  1.6584
 1795TIP3    H227021   6.842   5.934   7.434 -1.0024  0.5645 -0.3028
 1796TIP3   OH227022   0.697   4.719   7.613 -0.0302  0.2536  0.3403
 1796TIP3    H127023   0.733   4.786   7.556 -2.8356  2.0618  0.6024
 1796TIP3    H227024   0.681   4.764   7.696 -1.9599 -0.7199  0.5154
 1797TIP3   OH227025   2.069   7.187   0.435  0.4070 -0.0070  0.1943
 1797TIP3    H127026   2.077   7.162   0.343 -0.8009 -0.8037  0.2940
 1797TIP3    H227027   2.011   7.264   0.434 -0.8916 -0.9662  0.4109
 1798TIP3   OH227028   3.176   1.801   1.375 -0.2193  0.4498  0.1475
 1798TIP3    H127029   3.113   1.750   1.324 -0.2557  1.4092 -0.8135
 1798TIP3    H227030   3.131   1.821   1.457 -0.5203 -0.3265  0.1714
 1799TIP3   OH227031   3.090   4.857   7.570  0.7970 -0.0080 -0.3183
 1799TIP3    H127032   3.130   4.796   7.509  2.1391 -1.7344  2.1986
 1799TIP3    H227033   3.103   4.943   7.530  1.9455 -1.0644 -2.2837
 1800TIP3   OH227034   0.517   5.221   5.943 -0.6737  0.2533 -0.6506
 1800TIP3    H127035   0.427   5.248   5.927  0.1259  2.5995 -1.3663
 1800TIP3    H227036   0.561   5.299   5.975  0.8739 -1.1340  0.7287
 1801TIP3   OH227037   6.680   4.501   7.457 -0.0486  0.2080  0.2733
 1801TIP3    H127038   6.615   4.525   7.524  0.9975 -0.8809  1.7031
 1801TIP3    H227039   6.628   4.486   7.378 -1.6904 -1.6344  1.6523
 1802TIP3   OH227040   0.731   4.817   6.999 -0.4583  0.3916  0.4734
 1802TIP3    H127041   0.820   4.782   7.008 -0.0256  1.3113 -0.1376
 1802TIP3    H227042   0.727   4.888   7.063 -0.3745  1.0737 -0.2696
 1803TIP3   OH227043   1.158   3.479   7.484 -0.4233 -0.3934 -0.2652
 1803TIP3    H127044   1.153   3.556   7.541  0.5375  0.0366 -0.7538
 1803TIP3    H227045   1.195   3.512   7.402 -0.1490 -1.3530 -0.5334
 1804TIP3   OH227046   1.067   5.228   6.705 -0.0968  0.2082 -0.5353
 1804TIP3    H127047   0.989   5.284   6.704 -0.8301 -0.8102 -0.3578
 1804TIP3    H227048   1.117   5.257   6.629 -1.0921  0.2497 -1.1907
 1805TIP3   OH227049   0.528   6.790   5.861  0.2891 -0.4275  0.1446
 1805TIP3    H127050   0.551   6.708   5.905 -0.6811 -0.7131  0.1312
 1805TIP3    H227051   0.438   6.808   5.888  0.8524  1.1917  0.9636
 1806TIP3   OH227052   0.865   5.043   6.256  0.3606  0.0166 -0.0264
 1806TIP3    H127053   0.785   5.041   6.203 -0.0342  0.8325  0.5251
 1806TIP3    H227054   0.929   5.087   6.201  0.0688  0.4906  0.0069
 1807TIP3   OH227055   2.508   6.275   7.151  0.7807 -0.0525 -0.0376
 1807TIP3    H127056   2.459   6.336   7.096 -0.1727 -1.6939 -1.0481
 1807TIP3    H227057   2.589   6.322   7.173 -0.6949  2.2426  0.6876
 1808TIP3   OH227058   7.236   5.394   0.694 -0.0180 -0.3867 -0.2277
 1808TIP3    H127059   7.228   5.468   0.753  1.1761  0.1078 -0.6510
 1808TIP3    H227060   7.147   5.376   0.664 -0.4710  0.0837  0.8269
 1809TIP3   OH227061   6.512   3.013   7.199 -0.0113 -0.5439  0.2170
 1809TIP3    H127062   6.580   3.077   7.221  0.6246 -0.3795 -2.0323
 1809TIP3    H227063   6.561   2.934   7.173 -0.6611 -0.5666 -0.9855
 1810TIP3   OH227064   7.309   6.323   7.594  0.5364  0.6522  0.0558
 1810TIP3    H127065   7.364   6.295   7.668  0.8289  1.8757  0.3147
 1810TIP3    H227066   7.371   6.358   7.530  0.2110  0.2890 -0.4639
 1811TIP3   OH227067   0.653   3.543   6.381  0.1653  0.0251  0.2643
 1811TIP3    H127068   0.604   3.544   6.463  1.3155 -0.8601  0.9795
 1811TIP3    H227069   0.705   3.462   6.385  0.1512 -0.0722 -1.3783
 1812TIP3   OH227070   1.842   6.201   6.799 -0.3358 -0.0586 -0.3101
 1812TIP3    H127071   1.859   6.109   6.820 -0.7490  0.0919  0.7169
 1812TIP3    H227072   1.768   6.225   6.855  0.0525  1.0272 -0.2496
 1813TIP3   OH227073   1.228   3.885   5.951 -0.4686  0.5099 -0.2046
 1813TIP3    H127074   1.316   3.886   5.913 -0.7403  0.3264 -0.8433
 1813TIP3    H227075   1.182   3.816   5.904 -0.3842 -0.7013  1.4369
 1814TIP3   OH227076   1.098   4.121   6.934 -0.1401 -0.0129  0.3383
 1814TIP3    H127077   1.158   4.176   6.984  0.9174  0.1145 -1.0442
 1814TIP3    H227078   1.112   4.032   6.969 -0.3224  0.2628  1.1205
 1815TIP3   OH227079   6.860   4.720   7.585 -0.4107 -0.3692 -0.8622
 1815TIP3    H127080   6.809   4.692   7.509 -0.5365  0.3707 -1.0555
 1815TIP3    H227081   6.946   4.679   7.573  0.3055  1.5112 -2.5861
 1816TIP3   OH227082   0.784   4.036   7.674 -0.1320  0.4082 -0.3778
 1816TIP3    H127083   0.711   4.019   7.735 -0.1701  3.9905  0.6915
 1816TIP3    H227084   0.742   4.067   7.595  0.1593  0.7005 -0.4166
 1817TIP3   OH227085   2.360   7.081   0.955  0.2822  0.6218  0.5834
 1817TIP3    H127086   2.399   7.143   0.893  0.0050  0.7497  0.5373
 1817TIP3    H227087   2.299   7.030   0.902 -0.5601  1.2801  0.9178
 1818TIP3   OH227088   1.135   3.718   7.632  0.3650 -0.1531 -0.3880
 1818TIP3    H127089   1.175   3.795   7.592  3.2401 -0.4176  1.7627
 1818TIP3    H227090   1.065   3.753   7.687 -1.7355  0.4342 -3.3352
 1819TIP3   OH227091   5.084   6.534   6.888 -0.8564 -0.2079 -0.2000
 1819TIP3    H127092   5.079   6.623   6.855 -0.7813 -0.9025 -2.1454
 1819TIP3    H227093   5.165   6.499   6.852 -0.5997 -0.9080  1.0039
 1820TIP3   OH227094   7.145   0.997   6.839 -0.3305 -0.3235  0.1237
 1820TIP3    H127095   7.194   1.041   6.770  1.9177 -1.9917  0.5887
 1820TIP3    H227096   7.085   1.064   6.873 -0.7276  0.7950 -2.7065
 1821TIP3   OH227097   3.267   1.075   6.877  0.0251  0.3449 -0.3744
 1821TIP3    H127098   3.358   1.082   6.846  0.0596  3.9700  0.2654
 1821TIP3    H227099   3.215   1.114   6.807 -0.9057 -0.5192 -0.1618
 1822TIP3   OH227100   5.995   3.975   0.595 -0.1746  0.1261 -0.1013
 1822TIP3    H127101   5.956   3.942   0.676  1.4742 -1.0955  0.2072
 1822TIP3    H227102   6.081   4.009   0.622 -0.3926  1.4480 -1.0278
 1823TIP3   OH227103   4.126   3.859   6.937  0.1175  0.3054 -0.0904
 1823TIP3    H127104   4.104   3.952   6.931 -0.2789  0.1376 -1.3588
 1823TIP3    H227105   4.222   3.857   6.933  0.1986  0.7428  1.2911
 1824TIP3   OH227106   6.251   4.319   7.082 -0.0350  0.1508 -0.2167
 1824TIP3    H127107   6.174   4.363   7.118 -0.7926 -0.9011 -0.5136
 1824TIP3    H227108   6.298   4.387   7.034 -0.7300  0.8306  0.0663
 1825TIP3   OH227109   6.846   3.590   6.691 -0.1184 -0.3463 -0.1079
 1825TIP3    H127110   6.863   3.683   6.678 -0.2636 -0.4996 -1.4910
 1825TIP3    H227111   6.788   3.586   6.767  1.4943  0.5454  1.2128
 1826TIP3   OH227112   0.733   5.441   6.395 -0.2501 -0.7328 -0.4177
 1826TIP3    H127113   0.647   5.445   6.353  0.0658  0.3879 -0.9915
 1826TIP3    H227114   0.791   5.485   6.333  0.3794  0.2035  0.8139
 1827TIP3   OH227115   1.855   5.196   6.725  0.6284  0.0898 -0.0283
 1827TIP3    H127116   1.877   5.140   6.651  1.9615  0.4078  0.1147
 1827TIP3    H227117   1.920   5.174   6.792 -1.0346 -0.7736  1.3624
 1828TIP3   OH227118   6.448   2.510   2.088 -0.4843  0.2059  0.0505
 1828TIP3    H127119   6.521   2.557   2.047 -0.2968 -0.8121 -0.8111
 1828TIP3    H227120   6.479   2.492   2.177 -0.2967  1.1124  0.1765
 1829TIP3   OH227121   4.006   5.988   1.029  0.1729 -0.1423  0.3921
 1829TIP3    H127122   3.914   6.016   1.029  0.9324  2.4418  0.4590
 1829TIP3    H227123   4.042   6.021   1.111  1.9069  1.4357 -0.9694
 1830TIP3   OH227124   6.848   4.079   6.366  0.2144  0.1665 -0.5594
 1830TIP3    H127125   6.829   4.027   6.287 -1.0105  1.8746 -1.4406
 1830TIP3    H227126   6.937   4.112   6.352  0.3631 -0.3171 -0.7760
 1831TIP3   OH227127   5.962   6.875   7.052  0.2105 -0.1056  0.1340
 1831TIP3    H127128   5.882   6.923   7.075  0.6153  0.7260 -0.1600
 1831TIP3    H227129   6.003   6.928   6.983  0.3778 -1.1699 -0.6106
 1832TIP3   OH227130   0.698   5.475   7.478  0.2480  0.2813 -0.0731
 1832TIP3    H127131   0.728   5.453   7.390  0.0816 -0.0668 -0.0446
 1832TIP3    H227132   0.668   5.391   7.515 -3.0142  0.9830 -0.9485
 1833TIP3   OH227133   6.929   6.893   7.521 -0.6368  0.2294 -0.0001
 1833TIP3    H127134   6.865   6.853   7.462 -0.2357 -0.0585 -0.2466
 1833TIP3    H227135   6.884   6.900   7.605 -0.2212 -2.1841  0.4788
 1834TIP3   OH227136   1.708   5.500   0.956 -0.0057  0.5551 -0.5512
 1834TIP3    H127137   1.788   5.457   0.985 -0.6761 -0.0057  0.4633
 1834TIP3    H227138   1.688   5.564   1.025  0.2830  1.6248 -1.4317
 1835TIP3   OH227139   5.548   4.811   7.879  0.4682 -0.5305 -0.0525
 1835TIP3    H127140   5.623   4.797   7.821  0.1950 -2.0194 -0.0674
 1835TIP3    H227141   5.473   4.817   7.819  0.3822 -0.5940  0.0491
 1836TIP3   OH227142   4.623   5.481   8.185  0.4124 -0.3264 -0.5675
 1836TIP3    H127143   4.576   5.533   8.120 -2.0245  0.6084  1.8165
 1836TIP3    H227144   4.710   5.519   8.189  0.0582  0.6760 -2.0470
 1837TIP3   OH227145   1.344   4.977   0.413  0.1726 -0.0828  0.4235
 1837TIP3    H127146   1.280   5.001   0.347  0.4506  1.4275  0.6977
 1837TIP3    H227147   1.359   4.883   0.398  0.3369  0.2668 -1.7053
 1838TIP3   OH227148   6.557   4.358   6.660  0.0280 -0.1693 -0.4002
 1838TIP3    H127149   6.628   4.391   6.716  0.7646 -1.0702 -0.7977
 1838TIP3    H227150   6.570   4.402   6.576 -1.0498  1.1445  0.0810
 1839TIP3   OH227151   3.725   5.127   0.816 -0.2484  0.3590  0.2272
 1839TIP3    H127152   3.748   5.141   0.908 -2.9899  0.4858  0.9163
 1839TIP3    H227153   3.722   5.032   0.807  0.1828  0.3450  0.2079
 1840TIP3   OH227154   1.139   2.981   6.571 -0.2030 -0.7142  0.5052
 1840TIP3    H127155   1.175   3.037   6.640  3.3702  1.4328 -2.8288
 1840TIP3    H227156   1.114   3.042   6.502  0.5880 -3.0019 -1.8880
 1841TIP3   OH227157   2.196   3.084   7.446  0.3909  0.3404  0.0604
 1841TIP3    H127158   2.152   3.164   7.418  1.8450  1.4832  0.9933
 1841TIP3    H227159   2.226   3.102   7.534  0.3702 -1.4028  0.4489
 1842TIP3   OH227160   6.778   5.624   6.681 -0.0100  0.1133  0.1121
 1842TIP3    H127161   6.747   5.624   6.591 -0.3205 -0.8330  0.2197
 1842TIP3    H227162   6.711   5.672   6.730 -1.5299 -2.2190  0.4088
 1843TIP3   OH227163   1.104   4.526   7.548 -0.0693  0.1933  0.4350
 1843TIP3    H127164   1.051   4.521   7.628  0.0156 -2.1116  0.4009
 1843TIP3    H227165   1.044   4.503   7.478 -0.1065  2.0931 -0.1745
 1844TIP3   OH227166   3.123   4.908   0.071 -0.6104  0.1317 -0.8049
 1844TIP3    H127167   3.070   4.970   0.120 -0.9670  0.4025 -1.5206
 1844TIP3    H227168   3.064   4.834   0.055 -0.7409  0.3819 -1.4967
 1845TIP3   OH227169   6.985   3.725   6.952  0.2210 -0.6147 -0.1065
 1845TIP3    H127170   7.026   3.802   6.914 -0.5654 -0.3804 -0.5023
 1845TIP3    H227171   6.896   3.753   6.973  0.3404 -1.0322  0.9845
 1846TIP3   OH227172   0.363   6.916   6.863  0.6068 -0.6478  0.4013
 1846TIP3    H127173   0.307   6.952   6.794  1.1268 -1.6825 -0.5941
 1846TIP3    H227174   0.303   6.885   6.930  0.1148  1.0035  0.7275
 1847TIP3   OH227175   4.886   5.031   1.073 -0.2213 -0.2583 -0.3970
 1847TIP3    H127176   4.939   5.022   0.994 -1.0082 -0.3444 -0.9268
 1847TIP3    H227177   4.871   5.125   1.081 -0.1648 -0.2514 -0.3735
 1848TIP3   OH227178   7.210   3.574   7.031  0.6417  0.0460 -0.2786
 1848TIP3    H127179   7.145   3.640   7.010 -0.6092 -1.0664 -0.0094
 1848TIP3    H227180   7.234   3.591   7.122  0.1946  0.0138 -0.1566
 1849TIP3   OH227181   7.205   4.022   7.964  0.3494  0.5850 -0.1046
 1849TIP3    H127182   7.184   3.931   7.942  0.8433  0.2744  0.6659
 1849TIP3    H227183   7.299   4.030   7.949  0.2117  1.1237 -0.6898
 1850TIP3   OH227184   1.465   5.130   8.411 -0.3127 -0.1755  0.4868
 1850TIP3    H127185   1.545   5.106   8.364  0.4059 -0.2418  1.7251
 1850TIP3    H227186   1.407   5.165   8.343  0.0904 -1.7742 -0.7013
 1851TIP3   OH227187   1.922   5.440   5.930 -0.3646 -0.0914 -0.6113
 1851TIP3    H127188   1.834   5.411   5.955 -0.2853 -0.3702 -0.6536
 1851TIP3    H227189   1.971   5.438   6.012 -0.4430  0.2348 -0.5542
 1852TIP3   OH227190   1.014   7.013   6.547 -0.0825  0.1159  0.2406
 1852TIP3    H127191   1.005   7.101   6.508 -1.0641  0.3638  1.0320
 1852TIP3    H227192   0.929   6.995   6.586 -0.6174 -2.1657 -1.9007
 1853TIP3   OH227193   1.680   5.918   1.412 -0.2062 -0.2706  0.1212
 1853TIP3    H127194   1.718   5.831   1.428 -1.6996 -1.5283 -2.7459
 1853TIP3    H227195   1.750   5.967   1.370 -0.0490 -0.8052 -0.2482
 1854TIP3   OH227196   1.458   3.343   7.041  0.4019  0.0087 -0.0265
 1854TIP3    H127197   1.477   3.278   7.109 -0.4806  0.4143  0.6227
 1854TIP3    H227198   1.363   3.348   7.039  0.4605  2.2412  0.8848
 1855TIP3   OH227199   1.686   4.115   7.562  0.0938  0.2172 -0.3341
 1855TIP3    H127200   1.621   4.098   7.631  1.1906 -0.2642  0.6107
 1855TIP3    H227201   1.683   4.210   7.550 -1.2185  0.1369 -0.7447
 1856TIP3   OH227202   2.070   3.750   8.411  0.0344 -0.2116  0.3904
 1856TIP3    H127203   2.056   3.674   8.354  1.7390 -1.7571  1.9569
 1856TIP3    H227204   1.983   3.771   8.445 -0.5463 -1.1332 -0.5064
 1857TIP3   OH227205   2.961   3.159   1.476  0.0310  0.5860 -0.6314
 1857TIP3    H127206   3.018   3.126   1.545 -0.0398 -0.6016 -1.1181
 1857TIP3    H227207   2.874   3.126   1.499  0.3489 -1.6078 -2.3580
 1858TIP3   OH227208   1.830   4.706   7.169 -0.1552  0.7029  0.3806
 1858TIP3    H127209   1.755   4.658   7.204  0.9855  0.1345  2.1632
 1858TIP3    H227210   1.858   4.761   7.242 -1.1173  3.7391 -1.4656
 1859TIP3   OH227211   2.770   6.237   7.555  0.1863 -0.2667  0.0617
 1859TIP3    H127212   2.779   6.332   7.547 -0.3492 -0.3883 -2.5355
 1859TIP3    H227213   2.765   6.221   7.649 -2.0123  2.5083  0.4780
 1860TIP3   OH227214   0.866   5.600   8.275 -0.3968 -0.6879  0.1107
 1860TIP3    H127215   0.938   5.654   8.307 -0.5846 -1.2691  1.5656
 1860TIP3    H227216   0.909   5.530   8.225 -0.0666 -0.0885 -0.4528
 1861TIP3   OH227217   2.367   4.910   1.638 -0.7015 -0.1534 -0.1400
 1861TIP3    H127218   2.412   4.988   1.669 -0.7726  0.1897 -0.8825
 1861TIP3    H227219   2.296   4.943   1.582 -0.8307 -0.7371 -0.3308
 1862TIP3   OH227220   2.622   4.172   6.512 -0.2395 -0.4013  0.6049
 1862TIP3    H127221   2.654   4.173   6.602  0.4289  0.2387  0.3677
 1862TIP3    H227222   2.548   4.111   6.513  1.6737 -2.7667  0.9212
 1863TIP3   OH227223   2.306   4.581   8.316 -0.2881  0.0920 -0.2445
 1863TIP3    H127224   2.298   4.491   8.284 -1.8468  0.8844 -2.1502
 1863TIP3    H227225   2.399   4.593   8.332  0.0838 -1.4600 -1.1837
 1864TIP3   OH227226   4.059   6.333   1.133 -0.6078 -0.5085 -0.1287
 1864TIP3    H127227   4.130   6.332   1.069  0.1683 -0.2301  0.7089
 1864TIP3    H227228   4.050   6.242   1.160 -1.1788 -0.6796 -0.8945
 1865TIP3   OH227229   2.240   5.965   7.011 -0.3450  0.1871 -0.4153
 1865TIP3    H127230   2.168   6.028   7.004 -0.0157  0.5159 -0.8263
 1865TIP3    H227231   2.262   5.943   6.921 -1.0703 -1.2242 -0.2698
 1866TIP3   OH227232   3.387   4.483   6.861  1.1987  0.1834 -0.0029
 1866TIP3    H127233   3.433   4.419   6.914  1.4277 -1.0375 -1.6261
 1866TIP3    H227234   3.342   4.431   6.794 -3.9223  1.1173  2.4287
 1867TIP3   OH227235   1.718   4.939   0.431  0.4510 -0.4191 -0.8153
 1867TIP3    H127236   1.796   4.899   0.394  0.3422 -0.6691 -0.7769
 1867TIP3    H227237   1.671   4.974   0.355 -0.6908 -2.5386 -1.1430
 1868TIP3   OH227238   3.890   5.063   1.544  0.2056 -0.0620 -0.0240
 1868TIP3    H127239   3.798   5.040   1.526  0.1339  0.2842 -0.1047
 1868TIP3    H227240   3.937   4.980   1.536 -0.5302 -0.8501  3.0097
 1869TIP3   OH227241   4.886   0.809   7.264 -0.4407  0.6140 -0.5053
 1869TIP3    H127242   4.810   0.863   7.242 -0.0353  0.2996 -2.7630
 1869TIP3    H227243   4.957   0.871   7.275 -0.7124  0.7972  0.2486
 1870TIP3   OH227244   5.271   3.220   8.013 -0.1288 -0.1169  0.1864
 1870TIP3    H127245   5.359   3.250   7.989 -0.0629  0.7734  1.4612
 1870TIP3    H227246   5.275   3.125   8.001  1.1077 -0.1222  0.4813
 1871TIP3   OH227247   7.269   3.362   7.245  0.5833  0.0136 -0.2289
 1871TIP3    H127248   7.307   3.288   7.198  1.9340 -0.2386  1.1742
 1871TIP3    H227249   7.332   3.379   7.316 -0.5701  1.4024  0.4866
 1872TIP3   OH227250   1.049   5.841   8.444 -0.2232  0.4285  1.0319
 1872TIP3    H127251   1.100   5.791   8.507 -0.4950 -0.6505  0.3985
 1872TIP3    H227252   1.113   5.868   8.377 -0.5408 -1.2666  0.0275
 1873TIP3   OH227253   0.257   3.657   7.063  0.3216 -0.0142  0.1528
 1873TIP3    H127254   0.253   3.753   7.058  1.2899 -0.0229 -1.0912
 1873TIP3    H227255   0.213   3.635   7.145 -0.5364  1.4501  0.0930
 1874TIP3   OH227256   3.429   7.178   0.148 -0.0692  0.5124 -0.1185
 1874TIP3    H127257   3.390   7.245   0.091  0.1368  0.6567 -0.0904
 1874TIP3    H227258   3.384   7.190   0.231 -0.2770  0.3885 -0.2111
 1875TIP3   OH227259   1.241   3.927   8.005 -0.3465 -0.4404  0.4165
 1875TIP3    H127260   1.157   3.884   7.990 -0.8583  0.7750 -0.1985
 1875TIP3    H227261   1.219   4.015   8.034  0.7103  0.2941 -0.9540
 1876TIP3   OH227262   2.684   5.433   2.050 -0.2654  0.4994 -0.0413
 1876TIP3    H127263   2.690   5.515   2.000 -2.3773 -0.2800 -1.6238
 1876TIP3    H227264   2.592   5.408   2.045  0.4114 -2.1703  0.1550
 1877TIP3   OH227265   0.878   3.971   1.108 -0.2861  0.3142 -0.2832
 1877TIP3    H127266   0.809   3.916   1.145 -0.6533 -0.4723 -2.0597
 1877TIP3    H227267   0.846   4.061   1.121 -0.1566  0.0961  1.7141
 1878TIP3   OH227268   3.185   1.167   0.209  0.1556 -0.4876 -0.3552
 1878TIP3    H127269   3.211   1.258   0.219 -0.6807 -0.0837 -1.7415
 1878TIP3    H227270   3.252   1.129   0.152  1.5258 -1.2280  1.6976
 1879TIP3   OH227271   2.405   4.135   6.725  0.3422 -0.2507 -0.1362
 1879TIP3    H127272   2.311   4.142   6.707 -0.0370  2.7531  2.4412
 1879TIP3    H227273   2.434   4.226   6.733  2.2795 -1.1768  4.7424
 1880TIP3   OH227274   1.024   4.918   7.046 -0.3215 -0.4956  0.2206
 1880TIP3    H127275   1.115   4.921   7.017 -1.1243 -0.0106 -2.4823
 1880TIP3    H227276   1.011   5.001   7.093  0.9556 -1.1593  1.7875
 1881TIP3   OH227277   0.976   6.019   1.968  0.1273  0.1830  0.0623
 1881TIP3    H127278   1.069   6.014   1.989 -0.1140  0.1953  1.1743
 1881TIP3    H227279   0.938   5.939   2.006 -0.8439  1.7468  2.5233
 1882TIP3   OH227280   1.554   3.949   8.219 -0.1661  1.0533 -0.2374
 1882TIP3    H127281   1.481   3.945   8.157  0.8297  0.0157 -1.3551
 1882TIP3    H227282   1.632   3.954   8.165  0.6278  1.8928  0.9589
 1883TIP3   OH227283   2.602   2.323   7.296  0.7714 -0.3392 -0.1923
 1883TIP3    H127284   2.541   2.387   7.261  1.3649  1.0218  1.1958
 1883TIP3    H227285   2.687   2.348   7.258  0.9695 -0.4156  0.1982
 1884TIP3   OH227286   2.687   3.303   7.032  0.4385  0.2905 -0.0867
 1884TIP3    H127287   2.717   3.355   7.106  1.5457  0.5639 -0.7109
 1884TIP3    H227288   2.608   3.348   7.001  0.9035  1.1251 -0.0871
 1885TIP3   OH227289   0.488   4.549   1.661  0.2833 -0.2149  0.2644
 1885TIP3    H127290   0.481   4.464   1.619 -2.4386 -0.7570  1.7086
 1885TIP3    H227291   0.497   4.611   1.589 -1.2535 -1.4116 -0.9765
 1886TIP3   OH227292   0.500   1.150   2.032 -0.1169 -0.2491 -0.5893
 1886TIP3    H127293   0.516   1.134   1.939  1.0049 -0.8066 -0.3035
 1886TIP3    H227294   0.477   1.243   2.037 -1.4672 -0.5143 -1.5804
 1887TIP3   OH227295   0.103   6.155   7.373 -0.0245  0.1247  0.0760
 1887TIP3    H127296   0.081   6.088   7.438 -0.8656  0.8893  0.5849
 1887TIP3    H227297   0.020   6.179   7.334  0.6228 -1.2003 -2.1665
 1888TIP3   OH227298   6.309   4.722   8.131 -0.0814 -0.1439  0.2251
 1888TIP3    H127299   6.261   4.673   8.065  1.3470 -1.4088  0.0955
 1888TIP3    H227300   6.358   4.787   8.082  0.0108 -0.2597  0.1654
 1889TIP3   OH227301   1.672   5.803   6.604 -0.0237 -0.0593 -0.2578
 1889TIP3    H127302   1.764   5.818   6.628 -0.4244  1.1103  0.5862
 1889TIP3    H227303   1.657   5.711   6.627  0.3322  0.3347  1.6724
 1890TIP3   OH227304   0.830   5.042   8.261 -0.5342  0.8231 -0.1790
 1890TIP3    H127305   0.916   5.083   8.253  0.1890 -0.5120  0.5872
 1890TIP3    H227306   0.780   5.103   8.315  0.2626  1.1150  0.2341
 1891TIP3   OH227307   1.929   3.123   6.801  0.1259 -0.7699  0.2126
 1891TIP3    H127308   2.006   3.103   6.855  1.8949 -0.9783 -2.2843
 1891TIP3    H227309   1.946   3.079   6.718 -1.4478  1.3950 -1.3226
 1892TIP3   OH227310   1.384   5.691   6.099  0.0589 -0.4325  0.2665
 1892TIP3    H127311   1.426   5.618   6.054  1.0982 -0.2567  0.9111
 1892TIP3    H227312   1.400   5.674   6.192  0.9394  0.9593  0.3953
 1893TIP3   OH227313   0.837   4.524   0.511  0.3455 -0.2509 -0.1592
 1893TIP3    H127314   0.802   4.538   0.599  2.6635  2.1413  0.4398
 1893TIP3    H227315   0.760   4.511   0.456 -1.1542 -1.1233  2.0920
 1894TIP3   OH227316   0.215   5.560   6.790 -0.5206 -0.0421  0.0416
 1894TIP3    H127317   0.208   5.645   6.747  0.6551  0.1050  0.1327
 1894TIP3    H227318   0.276   5.510   6.736  0.1613 -0.2126  0.9532
 1895TIP3   OH227319   1.461   4.127   7.749  0.1880  0.2998 -0.2542
 1895TIP3    H127320   1.436   4.034   7.754 -0.9061  0.5548 -0.7226
 1895TIP3    H227321   1.378   4.174   7.755  0.6705  1.2269 -0.7556
 1896TIP3   OH227322   0.848   6.405   7.104 -0.2152  0.3081 -0.1551
 1896TIP3    H127323   0.837   6.311   7.119 -0.7791  0.4697  0.4493
 1896TIP3    H227324   0.905   6.435   7.175 -1.9082  0.8438  1.0252
 1897TIP3   OH227325   0.989   3.042   6.278 -0.3917 -0.5971 -0.0356
 1897TIP3    H127326   0.918   3.041   6.214  0.7414 -1.3064 -1.3266
 1897TIP3    H227327   0.957   2.989   6.351 -2.6937  2.3147  1.1296
 1898TIP3   OH227328   1.197   2.706   6.538  0.6015 -0.7077 -0.0711
 1898TIP3    H127329   1.119   2.691   6.486 -0.1471  0.1734  0.7699
 1898TIP3    H227330   1.192   2.799   6.562  3.9298  0.4410 -3.3046
 1899TIP3   OH227331   2.236   3.069   6.971  0.2837 -0.3477  0.3074
 1899TIP3    H127332   2.271   2.992   6.925  0.5256 -0.5270  0.7897
 1899TIP3    H227333   2.237   3.139   6.905  2.5327 -0.0593  0.6126
 1900TIP3   OH227334   5.747   2.877   7.307  0.1450  0.3608 -0.2868
 1900TIP3    H127335   5.700   2.870   7.224 -0.1748 -0.0074 -0.0773
 1900TIP3    H227336   5.755   2.787   7.338  1.9571  0.3079 -0.8389
 1901TIP3   OH227337   2.546   3.487   7.375  0.8505 -0.5969  0.9383
 1901TIP3    H127338   2.482   3.434   7.327  1.1752 -1.1848  1.1482
 1901TIP3    H227339   2.541   3.574   7.335  0.0134 -0.6743  0.8686
 1902TIP3   OH227340   2.857   3.929   6.730  0.0456  0.3384 -0.0742
 1902TIP3    H127341   2.875   4.023   6.723 -2.5026  0.9342  0.9165
 1902TIP3    H227342   2.793   3.922   6.801 -2.3428 -1.7905 -2.3268
 1903TIP3   OH227343   7.093   4.854   6.602  0.1469  0.0726  0.3154
 1903TIP3    H127344   7.064   4.852   6.693 -0.2675  0.8503  0.2038
 1903TIP3    H227345   7.188   4.841   6.607  0.1198  0.0668  0.8539
 1904TIP3   OH227346   0.061   3.651   7.279 -0.2164  0.0223  0.6962
 1904TIP3    H127347  -0.032   3.672   7.285 -0.3337 -0.4177  0.4467
 1904TIP3    H227348   0.070   3.568   7.326 -0.1789 -0.5884 -0.3721
 1905TIP3   OH227349   1.502   7.157   8.478  0.0214 -0.6991 -0.2001
 1905TIP3    H127350   1.439   7.085   8.472  0.1036 -0.8715  0.8773
 1905TIP3    H227351   1.479   7.203   8.559  3.3666 -2.7981  2.0636
 1906TIP3   OH227352   1.690   3.714   7.426  0.0046 -0.7586  0.5300
 1906TIP3    H127353   1.770   3.694   7.379 -0.3468 -1.6409  0.3077
 1906TIP3    H227354   1.620   3.673   7.375 -0.4955 -0.7717  1.2121
 1907TIP3   OH227355   0.807   4.991   0.717  0.0346  0.1631  0.0030
 1907TIP3    H127356   0.730   4.954   0.673  0.2813  1.0920 -1.2413
 1907TIP3    H227357   0.815   5.079   0.681  0.9936  0.4938  1.0024
 1908TIP3   OH227358   5.969   3.624   7.611  0.0940 -0.2960 -0.0010
 1908TIP3    H127359   6.044   3.660   7.658 -0.5129  0.3060  0.5108
 1908TIP3    H227360   5.959   3.680   7.534  0.4915 -0.6988 -0.3508
 1909TIP3   OH227361   1.181   4.309   7.147  0.6677 -0.6701  0.2643
 1909TIP3    H127362   1.260   4.331   7.097  1.1306  2.9443  2.3966
 1909TIP3    H227363   1.201   4.335   7.236 -3.2898  1.3248  0.6936
 1910TIP3   OH227364   5.932   3.764   7.039 -0.2189  0.2384  0.1315
 1910TIP3    H127365   5.910   3.675   7.065 -1.2954  0.2257 -0.7834
 1910TIP3    H227366   5.872   3.819   7.089  0.2566  0.4358  0.4874
 1911TIP3   OH227367   1.646   0.177   6.176  0.3388  0.4461 -0.0880
 1911TIP3    H127368   1.709   0.105   6.183  2.0232  1.8995  0.0563
 1911TIP3    H227369   1.561   0.134   6.175  1.3012 -1.5361  0.2636
 1912TIP3   OH227370   0.676   6.798   8.019  1.1136 -0.2845  0.4839
 1912TIP3    H127371   0.624   6.871   7.987  2.0200 -0.0179 -0.4277
 1912TIP3    H227372   0.617   6.748   8.074  0.1336  0.4569  0.1143
 1913TIP3   OH227373   0.232   5.202   5.953 -0.0778  0.0076 -0.5537
 1913TIP3    H127374   0.217   5.295   5.937  0.0892  0.3287  1.0967
 1913TIP3    H227375   0.229   5.193   6.048  0.5262 -1.5708 -0.6696
 1914TIP3   OH227376   6.449   5.078   7.492 -0.0228  0.7715  0.2211
 1914TIP3    H127377   6.387   5.149   7.474  2.0324  2.3388 -0.7826
 1914TIP3    H227378   6.477   5.093   7.582  0.8288  1.5708 -0.1722
 1915TIP3   OH227379   1.838   3.209   6.005  0.1015  0.5247  0.8586
 1915TIP3    H127380   1.810   3.217   6.096 -1.5241  0.7817  0.3552
 1915TIP3    H227381   1.892   3.286   5.990 -1.1080  1.4392  1.1044
 1916TIP3   OH227382   4.569   6.190   1.920 -0.2289 -0.3378 -0.1113
 1916TIP3    H127383   4.589   6.276   1.884 -1.4108  0.0317  0.0715
 1916TIP3    H227384   4.488   6.204   1.970 -0.2603 -1.4881  0.1646
 1917TIP3   OH227385   1.881   6.176   7.960  0.2038  0.2665 -0.1745
 1917TIP3    H127386   1.858   6.085   7.977 -2.2203  0.5801 -1.4669
 1917TIP3    H227387   1.822   6.227   8.016 -0.4770  1.0710 -1.5827
 1918TIP3   OH227388   4.712   4.993   8.250  0.2400 -0.3567 -0.3632
 1918TIP3    H127389   4.749   5.003   8.162 -2.4789  1.8855 -1.3373
 1918TIP3    H227390   4.783   4.956   8.302  1.3231 -3.5105 -3.9097
 1919TIP3   OH227391   0.964   4.765   6.800 -0.9294  0.3949 -0.2044
 1919TIP3    H127392   0.927   4.835   6.747 -0.9482  1.7237  1.5166
 1919TIP3    H227393   0.975   4.803   6.887  0.4045 -1.3011  0.4177
 1920TIP3   OH227394   3.284   0.815   8.408  0.0527 -0.2547 -0.0574
 1920TIP3    H127395   3.212   0.754   8.422  0.7695 -0.8367  1.2235
 1920TIP3    H227396   3.243   0.895   8.375 -1.3436 -0.0373  2.1592
 1921TIP3   OH227397   6.774   5.858   6.306  0.1585 -0.4347 -0.4571
 1921TIP3    H127398   6.708   5.927   6.309  2.0794  1.4077  0.9424
 1921TIP3    H227399   6.839   5.889   6.243  2.5299  0.5184  2.3187
 1922TIP3   OH227400   5.950   3.107   7.907 -0.1976 -0.2640  0.3282
 1922TIP3    H127401   6.013   3.040   7.934 -0.6470 -1.6662 -1.9682
 1922TIP3    H227402   5.864   3.070   7.927 -0.5658 -1.4688 -3.0270
 1923TIP3   OH227403   2.803   6.210   7.840 -0.7158 -0.0081  0.4476
 1923TIP3    H127404   2.823   6.279   7.904  1.0857 -0.1983  0.1213
 1923TIP3    H227405   2.742   6.152   7.885 -1.4173  1.2154  1.1048
 1924TIP3   OH227406   4.605   6.458   6.902 -0.2071  0.3731  0.0255
 1924TIP3    H127407   4.533   6.515   6.929 -1.7367 -1.3544 -0.2253
 1924TIP3    H227408   4.638   6.420   6.984  1.4513  2.3145  0.2813
 1925TIP3   OH227409   3.738   6.579   7.181 -1.0700  0.2005 -0.0973
 1925TIP3    H127410   3.774   6.506   7.130 -0.8353  1.3960 -1.6661
 1925TIP3    H227411   3.662   6.607   7.131 -1.5115  0.6568  0.8253
 1926TIP3   OH227412   1.834   4.415   7.023 -0.3789 -0.4285  0.2609
 1926TIP3    H127413   1.907   4.476   7.021  0.1573 -1.0695 -0.2203
 1926TIP3    H227414   1.771   4.453   7.084  0.0334  0.4960  0.1131
 1927TIP3   OH227415   1.439   5.467   8.024 -0.1398  0.4227 -0.2802
 1927TIP3    H127416   1.520   5.499   8.063  0.5450 -0.9834 -0.4924
 1927TIP3    H227417   1.438   5.503   7.936 -0.1393  1.0859 -0.0092
 1928TIP3   OH227418   3.196   3.693   6.991 -0.4869  0.0931 -0.3120
 1928TIP3    H127419   3.131   3.670   6.925  0.2243  0.1000 -1.0141
 1928TIP3    H227420   3.247   3.612   7.004 -1.1658 -0.1600  0.8496
 1929TIP3   OH227421   7.058   5.307   0.511 -0.9826  0.4501  0.2421
 1929TIP3    H127422   6.964   5.301   0.492 -1.3292 -0.5445  2.2360
 1929TIP3    H227423   7.075   5.238   0.574  1.1566  0.4760 -0.2699
 1930TIP3   OH227424   1.888   3.395   7.591  0.1893  0.0679 -0.2618
 1930TIP3    H127425   1.895   3.473   7.647  0.2584 -0.1920  0.0892
 1930TIP3    H227426   1.795   3.386   7.574  0.2568  0.7294 -1.0078
 1931TIP3   OH227427   1.667   3.683   6.777  0.8186  0.3066  0.0776
 1931TIP3    H127428   1.736   3.710   6.716  1.9915  0.5440  1.4751
 1931TIP3    H227429   1.704   3.608   6.823 -0.3331 -0.3096  0.0152
 1932TIP3   OH227430   0.089   3.205   6.816 -0.1794  0.1047  0.4954
 1932TIP3    H127431   0.174   3.165   6.830 -1.3605 -1.9617  1.9474
 1932TIP3    H227432   0.091   3.285   6.869  1.5096  1.0843 -0.9727
 1933TIP3   OH227433   0.845   5.355   6.662 -0.3862  0.2117  0.1268
 1933TIP3    H127434   0.785   5.387   6.729 -0.9118  0.3600 -0.4046
 1933TIP3    H227435   0.816   5.398   6.581 -1.1494 -1.6803 -0.6270
 1934TIP3   OH227436   1.462   3.921   5.799  0.5064  0.0699  0.0395
 1934TIP3    H127437   1.539   3.875   5.834  0.5275 -0.4492 -0.6702
 1934TIP3    H227438   1.489   4.013   5.795  0.4870  0.1545  1.4186
 1935TIP3   OH227439   1.353   0.523   6.942  0.8395  0.3275  0.3327
 1935TIP3    H127440   1.314   0.554   6.859  1.5373 -1.8202 -0.8178
 1935TIP3    H227441   1.363   0.429   6.930  0.9052 -0.0200  2.9160
 1936TIP3   OH227442   0.358   0.812   6.574 -0.2245  0.2594  0.0732
 1936TIP3    H127443   0.323   0.810   6.663  0.7828  0.5643  0.4850
 1936TIP3    H227444   0.367   0.720   6.549  0.1255  0.1621  0.5445
 1937TIP3   OH227445   7.125   3.333   6.915 -0.4293  0.2434  0.4899
 1937TIP3    H127446   7.190   3.396   6.946 -0.1610  0.0563  0.3026
 1937TIP3    H227447   7.045   3.356   6.963 -0.2334  0.4863  0.7014
 1938TIP3   OH227448   6.855   3.872   6.597 -0.4224 -0.2344  0.5371
 1938TIP3    H127449   6.874   3.966   6.605 -1.8115  0.1338 -0.2492
 1938TIP3    H227450   6.868   3.853   6.504 -0.2089 -0.8018  0.6823
 1939TIP3   OH227451   1.125   6.251   7.636 -0.3006 -0.0709 -0.5471
 1939TIP3    H127452   1.178   6.189   7.686 -0.7681 -0.5818 -0.6845
 1939TIP3    H227453   1.050   6.270   7.692 -0.8380 -0.6658 -1.0652
 1940TIP3   OH227454   4.162   0.289   7.739 -0.3121 -0.0471  0.4910
 1940TIP3    H127455   4.166   0.232   7.662  0.9419 -0.0344  0.5345
 1940TIP3    H227456   4.111   0.364   7.710 -3.3274 -1.8747  0.8990
 1941TIP3   OH227457   1.968   3.406   6.377  0.4792 -0.3208  0.3190
 1941TIP3    H127458   1.951   3.486   6.328 -2.0597  0.1978  1.9469
 1941TIP3    H227459   2.040   3.430   6.436  1.7725 -0.1786 -1.2721
 1942TIP3   OH227460   6.268   6.184   1.601  0.3118  0.1154  0.1473
 1942TIP3    H127461   6.305   6.112   1.652  0.8225 -0.1414 -0.5800
 1942TIP3    H227462   6.343   6.239   1.580 -0.0178  0.6499  0.3589
 1943TIP3   OH227463   1.079   4.006   6.657  0.7144  0.5195  0.3521
 1943TIP3    H127464   1.008   4.070   6.660 -0.2154 -0.5352  1.8848
 1943TIP3    H227465   1.158   4.057   6.672  0.3280  1.7455 -1.5804
 1944TIP3   OH227466   1.437   6.392   7.601 -0.2409 -0.0902  0.3850
 1944TIP3    H127467   1.439   6.475   7.647 -0.3525 -0.6585  1.4344
 1944TIP3    H227468   1.362   6.345   7.638 -1.0420 -0.1004 -1.1896
 1945TIP3   OH227469   2.687   5.373   7.545 -0.2252 -0.0194 -0.0608
 1945TIP3    H127470   2.750   5.443   7.558 -1.0688  0.2590  2.7102
 1945TIP3    H227471   2.602   5.414   7.559 -0.8875 -1.0077 -1.0596
 1946TIP3   OH227472   2.438   6.685   0.271  0.8265  0.3770 -0.4014
 1946TIP3    H127473   2.364   6.731   0.311  0.3225 -0.9541  0.2255
 1946TIP3    H227474   2.514   6.714   0.320  0.4797  0.3909  0.1308
 1947TIP3   OH227475   0.403   4.479   0.896  0.1780 -0.0415  0.7719
 1947TIP3    H127476   0.383   4.453   0.986  0.1525  0.1413  0.8198
 1947TIP3    H227477   0.319   4.511   0.862  0.6743  2.0392  1.4223
 1948TIP3   OH227478   0.494   7.023   1.010 -0.0323  0.6462 -0.2979
 1948TIP3    H127479   0.470   7.115   1.020 -1.4961  0.6003 -2.9980
 1948TIP3    H227480   0.578   7.025   0.963  0.3931  0.5923  0.4427
 1949TIP3   OH227481   1.831   4.090   8.054 -0.3388  0.1773  0.1843
 1949TIP3    H127482   1.826   4.104   8.149  1.8608  1.2454  0.1736
 1949TIP3    H227483   1.852   3.997   8.045  0.8504  0.3655  0.8230
 1950TIP3   OH227484   6.503   3.925   7.295  0.2444  0.4508  0.0572
 1950TIP3    H127485   6.567   3.965   7.237 -0.4787 -0.5885 -1.5001
 1950TIP3    H227486   6.426   3.911   7.240 -0.8912  0.5697  1.5849
 1951TIP3   OH227487   2.154   4.608   6.474 -0.6366 -0.4697 -0.7281
 1951TIP3    H127488   2.170   4.521   6.439  1.5515 -0.2501 -0.3764
 1951TIP3    H227489   2.241   4.648   6.480 -1.3099  0.7800  1.5549
 1952TIP3   OH227490   1.907   5.297   0.694  0.2371  0.6612  0.3680
 1952TIP3    H127491   1.838   5.246   0.736 -0.6314  1.7218  0.2420
 1952TIP3    H227492   1.987   5.273   0.742  0.2311 -2.4406 -1.0778
 1953TIP3   OH227493   0.340   4.326   1.145 -0.2090  0.0869  0.6785
 1953TIP3    H127494   0.337   4.379   1.224 -1.2838  0.3342  0.4721
 1953TIP3    H227495   0.249   4.304   1.127 -0.1488  1.4179 -1.4293
 1954TIP3   OH227496   1.154   3.251   7.343  0.2726  0.0024 -0.4024
 1954TIP3    H127497   1.217   3.227   7.412 -0.8352 -1.0380  0.2718
 1954TIP3    H227498   1.107   3.325   7.379  2.2604  1.9350 -1.6254
 1955TIP3   OH227499   5.648   4.953   0.194 -0.4294  0.4005 -0.2675
 1955TIP3    H127500   5.705   5.026   0.216  0.3453 -0.0868 -0.6407
 1955TIP3    H227501   5.613   4.923   0.278 -1.6522  1.9264 -0.2219
 1956TIP3   OH227502   4.473   4.092   0.880  0.0805  0.0710 -0.0433
 1956TIP3    H127503   4.499   4.001   0.864 -1.3644 -0.2149 -0.8337
 1956TIP3    H227504   4.495   4.108   0.972  1.3542 -0.7223 -0.1969
 1957TIP3   OH227505   0.824   4.610   0.057 -0.1692 -0.7192  0.8974
 1957TIP3    H127506   0.750   4.553   0.033  0.6688 -0.5800 -2.2804
 1957TIP3    H227507   0.793   4.698   0.039 -0.1301 -0.4560  2.1083
 1958TIP3   OH227508   3.402   4.309   8.111 -0.0781  0.4603 -0.3138
 1958TIP3    H127509   3.476   4.369   8.122  1.7268 -2.3382  4.1132
 1958TIP3    H227510   3.440   4.230   8.073 -0.8099 -0.7592  1.3749
 1959TIP3   OH227511   5.587   4.438   7.658  0.3175  0.3437 -0.0565
 1959TIP3    H127512   5.584   4.532   7.677 -1.1681  0.6171 -1.4984
 1959TIP3    H227513   5.630   4.399   7.734 -1.5730  1.8614  1.8364
 1960TIP3   OH227514   5.674   4.846   8.410 -0.0246  0.0391  0.4780
 1960TIP3    H127515   5.683   4.851   8.505  0.7946  0.2617  0.3975
 1960TIP3    H227516   5.673   4.752   8.390  2.0245 -0.0258  0.5295
 1961TIP3   OH227517   6.963   4.306   0.667 -0.8490 -0.1960 -0.2370
 1961TIP3    H127518   7.003   4.233   0.715 -1.2758 -0.0999  0.2682
 1961TIP3    H227519   6.906   4.348   0.732 -1.1666  0.1386 -0.7388
 1962TIP3   OH227520   4.295   5.229   6.695 -0.8218 -0.0250  0.5474
 1962TIP3    H127521   4.255   5.303   6.648  1.1695 -0.2401 -1.6227
 1962TIP3    H227522   4.379   5.216   6.651 -0.1442 -2.1473  2.3724
 1963TIP3   OH227523   2.821   6.008   6.269 -0.3203  0.3389  0.3734
 1963TIP3    H127524   2.804   6.095   6.231 -0.7561  0.4887  0.9109
 1963TIP3    H227525   2.916   5.997   6.259 -0.2963  0.7746  0.0755
 1964TIP3   OH227526   5.683   4.260   7.457  0.3989  0.1256 -0.5675
 1964TIP3    H127527   5.706   4.352   7.469  0.7104  0.2588 -2.0793
 1964TIP3    H227528   5.592   4.255   7.485  0.0432  1.1360 -1.4965
 1965TIP3   OH227529   4.921   4.127   7.387 -0.2166  0.4489 -0.7817
 1965TIP3    H127530   4.938   4.166   7.301 -1.9520 -0.0859 -1.3872
 1965TIP3    H227531   4.962   4.187   7.449  0.3607  1.2691 -1.9337
 1966TIP3   OH227532   5.880   0.569   7.707  0.3590 -0.4032  0.1134
 1966TIP3    H127533   5.859   0.482   7.740 -1.6290 -0.3961 -1.0571
 1966TIP3    H227534   5.832   0.629   7.765  2.1453 -0.0423  1.2442
 1967TIP3   OH227535   4.755   3.820   6.370  0.4692  0.4021 -0.2882
 1967TIP3    H127536   4.713   3.906   6.367 -1.5895 -0.5385  0.5991
 1967TIP3    H227537   4.789   3.813   6.460 -2.0579 -0.9017  0.6206
 1968TIP3   OH227538   3.778   0.854   0.815 -0.4567 -0.1014 -0.0734
 1968TIP3    H127539   3.685   0.869   0.830 -0.4179  0.8961 -0.7558
 1968TIP3    H227540   3.783   0.802   0.735 -0.3097  3.5145 -2.5295
 1969TIP3   OH227541   2.196   5.535   8.062 -0.1728  0.1202 -0.3276
 1969TIP3    H127542   2.176   5.564   8.151  1.2914  0.5597 -0.1208
 1969TIP3    H227543   2.227   5.614   8.017  0.8180 -0.4522 -0.6861
 1970TIP3   OH227544   5.251   4.414   6.451 -0.5486 -0.1762 -0.2204
 1970TIP3    H127545   5.164   4.452   6.462 -0.7701 -0.5941 -0.4955
 1970TIP3    H227546   5.245   4.328   6.494  0.1157  0.3213  0.9026
 1971TIP3   OH227547   2.332   5.614   6.547 -0.2371 -0.2221  0.2354
 1971TIP3    H127548   2.311   5.523   6.571  0.2224 -1.0862 -2.4645
 1971TIP3    H227549   2.308   5.620   6.454  1.7957  1.7636 -0.1908
 1972TIP3   OH227550   4.718   2.882   6.858 -0.1457  0.4510  0.1270
 1972TIP3    H127551   4.720   2.959   6.802  1.3449  0.3745  0.0691
 1972TIP3    H227552   4.637   2.836   6.833 -0.8769  1.8159 -0.0513
 1973TIP3   OH227553   4.174   5.268   8.215 -0.4756 -0.4525 -0.1902
 1973TIP3    H127554   4.268   5.262   8.227 -0.3188 -1.1456 -1.6762
 1973TIP3    H227555   4.163   5.326   8.139 -1.2440 -0.3624 -0.0139
 1974TIP3   OH227556   4.479   2.862   6.723 -0.1687 -0.8993 -0.4138
 1974TIP3    H127557   4.409   2.801   6.700 -0.0741 -1.0660 -0.2667
 1974TIP3    H227558   4.550   2.841   6.663  0.5862 -2.2614  0.8891
 1975TIP3   OH227559   4.913   4.806   8.345  0.4311  0.1524 -0.2524
 1975TIP3    H127560   5.003   4.828   8.372 -0.3646  1.6158  1.3031
 1975TIP3    H227561   4.921   4.781   8.253  2.1733  2.1104 -0.6762
 1976TIP3   OH227562   3.884   5.468   7.564 -0.4659  0.2018  0.5180
 1976TIP3    H127563   3.951   5.534   7.550 -0.6148  0.0313 -1.0514
 1976TIP3    H227564   3.814   5.491   7.504 -1.4491 -0.1261  1.5242
 1977TIP3   OH227565   2.982   4.098   7.967 -0.2448  0.0168 -0.3934
 1977TIP3    H127566   3.025   4.089   7.882 -1.6416  4.1342 -1.6740
 1977TIP3    H227567   3.051   4.130   8.026  0.5693 -2.2057 -0.1161
 1978TIP3   OH227568   1.901   5.819   6.755 -0.7293 -0.2083  0.5552
 1978TIP3    H127569   1.882   5.849   6.843  1.4950 -0.1695  1.0600
 1978TIP3    H227570   1.948   5.891   6.715  0.7485 -1.2920  0.2899
 1979TIP3   OH227571   3.950   3.255   6.136  0.6353  0.3834 -0.2789
 1979TIP3    H127572   3.946   3.181   6.195  1.3042  1.6680  1.4103
 1979TIP3    H227573   4.011   3.228   6.067  0.6424 -0.7411  0.1673
 1980TIP3   OH227574   2.006   5.506   6.508  0.3759  0.4494  0.5765
 1980TIP3    H127575   2.059   5.427   6.521 -0.5332 -0.0164  1.5576
 1980TIP3    H227576   2.050   5.553   6.437  0.7697 -1.0606 -0.2038
 1981TIP3   OH227577   3.875   5.985   8.303  0.3889 -0.2441  0.3418
 1981TIP3    H127578   3.797   5.929   8.310  0.0333  0.5000  2.6850
 1981TIP3    H227579   3.886   5.998   8.209 -1.3949 -1.6491 -0.1040
 1982TIP3   OH227580   3.881   7.208   0.332 -0.3060  0.2912  0.1090
 1982TIP3    H127581   3.882   7.223   0.237 -1.5168 -0.8614 -0.1006
 1982TIP3    H227582   3.788   7.212   0.356 -0.0034  0.6352  1.2577
 1983TIP3   OH227583   3.669   5.720   8.307  0.5715 -0.5688 -0.8500
 1983TIP3    H127584   3.598   5.681   8.256  0.5373 -0.6587 -0.7339
 1983TIP3    H227585   3.626   5.756   8.384  0.5701 -0.0704 -1.0863
 1984TIP3   OH227586   0.520   4.195   0.689  0.2035 -0.0911 -0.5806
 1984TIP3    H127587   0.495   4.273   0.739 -0.8541 -0.8383  0.0923
 1984TIP3    H227588   0.436   4.159   0.659  0.7228 -0.6562 -1.3575
 1985TIP3   OH227589   1.903   4.100   7.268 -0.4543 -0.0260 -0.3608
 1985TIP3    H127590   1.972   4.073   7.328 -0.9205  0.1083  0.2412
 1985TIP3    H227591   1.862   4.018   7.240  0.3322 -0.1415 -1.1876
 1986TIP3   OH227592   2.991   5.692   7.760 -0.0317  0.2759 -0.5706
 1986TIP3    H127593   3.057   5.668   7.825 -0.3149  0.1423 -0.3269
 1986TIP3    H227594   2.976   5.785   7.774  1.3781  0.6941 -1.8012
 1987TIP3   OH227595   5.385   4.290   7.904 -0.0743  0.4497  0.1840
 1987TIP3    H127596   5.399   4.327   7.991 -0.0110  0.7092  0.0637
 1987TIP3    H227597   5.368   4.197   7.920  2.4579 -0.0374  0.3087
 1988TIP3   OH227598   1.169   6.055   0.230 -0.0288  0.1742  0.3650
 1988TIP3    H127599   1.170   6.134   0.283 -0.7548 -0.2728  1.0668
 1988TIP3    H227600   1.077   6.029   0.227  0.0748 -0.1281 -0.6470
 1989TIP3   OH227601   0.472   5.513   7.087 -0.2577 -1.0578  0.3607
 1989TIP3    H127602   0.521   5.594   7.072 -0.4439 -1.0833 -0.4160
 1989TIP3    H227603   0.380   5.539   7.080 -0.3470 -1.0957  1.3662
 1990TIP3   OH227604   4.441   5.248   6.197  0.1484 -0.4543  0.3298
 1990TIP3    H127605   4.446   5.324   6.255  2.8941 -1.0876  0.9916
 1990TIP3    H227606   4.362   5.262   6.146 -1.7443  0.7089  3.4222
 1991TIP3   OH227607   5.561   3.068   7.006  0.1614 -0.1578  0.4401
 1991TIP3    H127608   5.574   2.973   7.010 -1.0568 -0.3863 -0.6324
 1991TIP3    H227609   5.648   3.104   6.989  0.5381 -1.1258  0.2828
 1992TIP3   OH227610   0.933   5.869   0.473 -0.0645 -0.0447 -0.1632
 1992TIP3    H127611   0.970   5.877   0.561 -0.0400  0.2953 -0.2022
 1992TIP3    H227612   0.842   5.843   0.487  0.0566 -0.4080 -0.0513
 1993TIP3   OH227613   1.878   2.341   6.802 -0.0966  0.2234 -0.2864
 1993TIP3    H127614   1.894   2.433   6.822 -0.0517  0.0813  0.3164
 1993TIP3    H227615   1.827   2.343   6.721 -0.9171  0.7986  0.2449
 1994TIP3   OH227616   3.998   0.402   6.359 -0.1044  0.2489  0.6168
 1994TIP3    H127617   3.904   0.411   6.342  0.2615  0.7052 -1.3459
 1994TIP3    H227618   4.004   0.338   6.429 -1.8482 -0.8183 -0.1713
 1995TIP3   OH227619   4.233   0.670   0.397  0.3726  0.8033  0.1111
 1995TIP3    H127620   4.267   0.655   0.309 -0.4777  0.1277 -0.1067
 1995TIP3    H227621   4.143   0.700   0.383  0.3156  0.9359  0.7393
 1996TIP3   OH227622   3.763   4.455   7.201 -0.7614 -0.1245 -0.6137
 1996TIP3    H127623   3.815   4.389   7.247  1.2293  1.9644  0.2565
 1996TIP3    H227624   3.709   4.494   7.270 -0.1104  0.8168 -0.6169
 1997TIP3   OH227625   3.398   6.150   7.697 -0.1170  0.2066  0.0012
 1997TIP3    H127626   3.461   6.202   7.747 -0.0869 -0.9082  1.1504
 1997TIP3    H227627   3.314   6.194   7.710 -0.0121  0.2304  0.6115
 1998TIP3   OH227628   4.137   3.158   5.962  0.0241  0.3974  0.1465
 1998TIP3    H127629   4.209   3.221   5.948  1.4031 -0.5880  2.5383
 1998TIP3    H227630   4.175   3.091   6.019 -2.1074 -1.4300 -0.5437
 1999TIP3   OH227631   2.685   4.132   6.803 -0.0943 -0.6351  0.2662
 1999TIP3    H127632   2.707   4.178   6.884  1.7536 -2.0289  0.5805
 1999TIP3    H227633   2.598   4.095   6.819  0.6995 -1.7801  2.0203
 2000TIP3   OH227634   2.692   5.120   7.669  0.0776 -0.2166 -0.1486
 2000TIP3    H127635   2.603   5.098   7.640 -0.3594  0.6678  0.4867
 2000TIP3    H227636   2.718   5.194   7.614  0.2300 -0.1592  0.0000
 2001TIP3   OH227637   5.325   2.701   8.098  1.0692 -0.1653 -0.2258
 2001TIP3    H127638   5.302   2.779   8.048 -0.6477  0.8085  1.9923
 2001TIP3    H227639   5.357   2.734   8.181  1.7065 -1.7990  0.1954
 2002TIP3   OH227640   6.796   4.392   1.608 -0.7798 -0.9238 -0.0729
 2002TIP3    H127641   6.841   4.382   1.691 -2.3179 -4.6849  0.4131
 2002TIP3    H227642   6.759   4.481   1.611  0.2068 -0.5581  2.7084
 2003TIP3   OH227643   1.993   5.522   7.339 -0.0073  0.2352  0.4393
 2003TIP3    H127644   1.990   5.429   7.319  1.2536  0.5166 -1.1740
 2003TIP3    H227645   2.003   5.565   7.254 -1.2097  1.8954  1.0943
 2004TIP3   OH227646   2.432   4.682   6.078 -0.2247 -0.2561  0.7656
 2004TIP3    H127647   2.497   4.749   6.058 -0.2178 -0.7377 -0.9507
 2004TIP3    H227648   2.348   4.726   6.066 -0.2194  0.3009  2.7462
 2005TIP3   OH227649   4.202   5.204   6.379 -0.5908 -0.3001 -0.0671
 2005TIP3    H127650   4.211   5.272   6.446 -1.5640  0.6953 -0.9266
 2005TIP3    H227651   4.171   5.250   6.302 -1.4929 -1.7645 -0.6062
 2006TIP3   OH227652   5.594   7.277   8.450  0.2658  0.8863  0.3275
 2006TIP3    H127653   5.563   7.327   8.374  0.9047 -0.7461 -1.0367
 2006TIP3    H227654   5.536   7.304   8.521 -0.6641  2.0786 -0.8583
 2007TIP3   OH227655   2.229   4.538   7.217  0.1768  0.2308 -0.3944
 2007TIP3    H127656   2.230   4.485   7.297  0.2488  0.9648  0.0917
 2007TIP3    H227657   2.161   4.603   7.232 -0.9731 -0.6488 -1.6084
 2008TIP3   OH227658   5.107   4.145   0.261  0.1757  0.5472 -0.3699
 2008TIP3    H127659   5.146   4.169   0.345  1.1276 -1.3323 -0.2522
 2008TIP3    H227660   5.021   4.109   0.283 -0.1865  1.4402 -0.3283
 2009TIP3   OH227661   4.765   5.154   7.436 -0.3883 -0.7286  0.2917
 2009TIP3    H127662   4.799   5.067   7.415 -1.0756 -0.6475 -1.1817
 2009TIP3    H227663   4.674   5.138   7.463 -0.8968 -0.3465 -1.1622
 2010TIP3   OH227664   5.309   5.710   1.601 -0.2178  0.1505 -0.2597
 2010TIP3    H127665   5.355   5.651   1.541 -0.1969  2.1001 -2.2191
 2010TIP3    H227666   5.372   5.728   1.671 -1.0401 -3.9965  1.6954
 2011TIP3   OH227667   4.415   5.852   1.262 -0.7363  0.5930 -0.2321
 2011TIP3    H127668   4.386   5.854   1.353  1.5843 -0.1419  0.5756
 2011TIP3    H227669   4.510   5.868   1.266 -0.3431 -0.8115 -2.3769
 2012TIP3   OH227670   1.436   4.521   6.130 -0.5050 -0.1645 -0.1156
 2012TIP3    H127671   1.473   4.433   6.132  1.0422  0.3740 -2.7862
 2012TIP3    H227672   1.347   4.508   6.098 -0.2375 -0.7417 -0.6317
 2013TIP3   OH227673   5.122   4.553   8.485  0.1041  0.2324  0.4362
 2013TIP3    H127674   5.052   4.504   8.527 -0.0815 -1.7888 -2.0601
 2013TIP3    H227675   5.129   4.515   8.397  2.4466  2.2614 -0.3458
 2014TIP3   OH227676   2.205   5.081   0.297 -0.7664  0.1266  0.4697
 2014TIP3    H127677   2.157   5.027   0.235 -0.8437 -0.5847  1.1494
 2014TIP3    H227678   2.138   5.124   0.350 -0.7217  1.3512 -0.4515
 2015TIP3   OH227679   6.792   4.402   0.866 -0.1139  0.3004  0.2786
 2015TIP3    H127680   6.711   4.356   0.885 -1.1992  2.0250 -0.0865
 2015TIP3    H227681   6.792   4.477   0.925 -0.0703  1.7537 -1.5233
 2016TIP3   OH227682   5.644   4.002   8.379 -0.3979  0.2469 -0.4645
 2016TIP3    H127683   5.560   3.986   8.423  0.6153  0.3582  1.5709
 2016TIP3    H227684   5.642   3.943   8.303 -1.1589 -1.8301  1.1091
 2017TIP3   OH227685   6.378   3.363   0.212  0.2725 -0.7252 -0.2138
 2017TIP3    H127686   6.453   3.305   0.227  0.9370 -0.0109 -0.6752
 2017TIP3    H227687   6.325   3.317   0.147  1.8287  0.0689 -2.0948
 2018TIP3   OH227688   4.290   3.152   6.922 -0.0530  0.3642 -0.0525
 2018TIP3    H127689   4.338   3.216   6.974  1.2765  0.9893 -1.9744
 2018TIP3    H227690   4.233   3.205   6.865  0.1749 -0.1876 -0.8080
 2019TIP3   OH227691   2.018   3.940   6.911 -0.1962  0.6763 -0.3027
 2019TIP3    H127692   2.029   3.904   6.999 -0.0763 -0.0605 -0.6161
 2019TIP3    H227693   1.923   3.936   6.895  0.0308 -1.7390 -1.2557
 2020TIP3   OH227694   3.631   6.811   6.501  0.2163  0.2827 -0.3018
 2020TIP3    H127695   3.573   6.874   6.543  0.0695 -0.7295  1.0697
 2020TIP3    H227696   3.575   6.764   6.439 -0.2322 -0.0810  0.3717
 2021TIP3   OH227697   1.969   4.089   1.062 -0.6119  0.3522  0.3312
 2021TIP3    H127698   2.013   4.140   0.995 -0.1157  1.5350  1.5374
 2021TIP3    H227699   1.976   3.998   1.032 -0.4193  0.8605 -1.2107
 2022TIP3   OH227700   4.195   4.056   7.611 -0.4706 -0.2423 -0.6831
 2022TIP3    H127701   4.181   4.131   7.669  0.3625 -0.7255  0.1558
 2022TIP3    H227702   4.232   4.094   7.532 -0.9742  0.3469 -0.6422
 2023TIP3   OH227703   5.235   4.611   0.211 -0.0515  0.3579  0.1545
 2023TIP3    H127704   5.297   4.538   0.212 -0.6368 -0.1691  3.1045
 2023TIP3    H227705   5.181   4.597   0.134  2.1601 -0.3196 -1.3069
 2024TIP3   OH227706   2.776   5.299   7.295  0.1920 -0.2983 -0.1178
 2024TIP3    H127707   2.727   5.373   7.257  2.6849  1.1565 -0.6605
 2024TIP3    H227708   2.746   5.294   7.385 -0.2237  1.2099 -0.1538
 2025TIP3   OH227709   1.276   5.397   0.759 -0.4263 -0.0636 -0.1540
 2025TIP3    H127710   1.315   5.379   0.845 -1.0243 -0.6310  0.0012
 2025TIP3    H227711   1.316   5.332   0.701 -0.7098 -0.2731 -0.1145
 2026TIP3   OH227712   3.470   6.429   8.473  0.3715  0.5391  0.0802
 2026TIP3    H127713   3.521   6.500   8.434 -0.0826 -0.3321 -2.1748
 2026TIP3    H227714   3.467   6.362   8.405 -0.1868 -1.1688  1.7657
 2027TIP3   OH227715   3.295   4.202   6.262 -0.4466  0.1163 -0.1093
 2027TIP3    H127716   3.263   4.125   6.216 -0.6125 -1.7135  2.9142
 2027TIP3    H227717   3.217   4.251   6.287 -0.5427 -0.6231  1.0693
 2028TIP3   OH227718   1.700   0.215   7.259 -0.3805 -0.3363 -0.6715
 2028TIP3    H127719   1.669   0.182   7.343 -3.4649  2.2710 -0.6828
 2028TIP3    H227720   1.796   0.216   7.267 -0.6168 -0.3698  2.6955
 2029TIP3   OH227721   2.685   2.353   6.791  0.0351  0.1398 -0.3013
 2029TIP3    H127722   2.681   2.443   6.759 -1.4281 -0.1805 -1.1040
 2029TIP3    H227723   2.615   2.348   6.856  1.3723  0.1003  1.1610
 2030TIP3   OH227724   2.685   4.877   7.841  0.2090  0.3479  0.2573
 2030TIP3    H127725   2.681   4.919   7.755  0.2477 -0.1114  0.0289
 2030TIP3    H227726   2.742   4.934   7.893  1.6284 -0.3153 -0.5580
 2031TIP3   OH227727   3.370   3.410   7.776  0.3329 -0.1988 -0.2196
 2031TIP3    H127728   3.306   3.432   7.709 -0.9234 -1.4576  0.5201
 2031TIP3    H227729   3.335   3.448   7.857  0.3127 -1.1851  0.2546
 2032TIP3   OH227730   3.293   6.585   7.360  0.0202  0.1906 -0.0285
 2032TIP3    H127731   3.301   6.671   7.317 -1.0425 -0.1081 -0.8595
 2032TIP3    H227732   3.367   6.581   7.420  0.4190  1.4498 -0.4170
 2033TIP3   OH227733   3.146   6.899   6.516 -0.0557  0.1455  0.0953
 2033TIP3    H127734   3.191   6.979   6.489 -0.1615 -0.6870 -2.6008
 2033TIP3    H227735   3.195   6.828   6.474 -1.4060 -1.0458  0.5050
 2034TIP3   OH227736   3.581   1.998   7.529  0.3855 -0.3312  0.2475
 2034TIP3    H127737   3.591   2.074   7.472  1.2491  0.7341  1.7815
 2034TIP3    H227738   3.508   1.949   7.491 -0.5730  1.5769 -0.4341
 2035TIP3   OH227739   5.065   6.550   1.560 -0.0609  0.0634 -0.1968
 2035TIP3    H127740   5.121   6.618   1.597  0.1880  0.7205 -1.7608
 2035TIP3    H227741   5.112   6.468   1.577  1.5303  0.6354 -1.7349
 2036TIP3   OH227742   4.471   5.268   8.215  0.2167 -0.3079 -0.0233
 2036TIP3    H127743   4.514   5.343   8.255  2.0739 -1.3795  0.0865
 2036TIP3    H227744   4.536   5.233   8.154 -1.5513 -0.3357 -1.9501
 2037TIP3   OH227745   1.299   5.012   0.864  0.1938  0.0807 -0.1560
 2037TIP3    H127746   1.212   4.974   0.848 -0.4626  0.7980  1.4909
 2037TIP3    H227747   1.299   5.093   0.813 -0.1587  0.1302 -0.0847
 2038TIP3   OH227748   4.589   2.038   0.116  0.0488 -0.1660  0.0230
 2038TIP3    H127749   4.530   2.041   0.040  1.9069  0.1832 -1.4558
 2038TIP3    H227750   4.677   2.031   0.077  0.9673 -0.8226  2.1720
 2039TIP3   OH227751   1.194   0.872   6.744 -0.4392  0.1951  0.6049
 2039TIP3    H127752   1.274   0.868   6.796  0.0522  2.7721  0.1394
 2039TIP3    H227753   1.125   0.847   6.805  0.6094 -1.1867  1.2511
 2040TIP3   OH227754   4.624   4.641   7.729 -0.1661  0.0789  0.1638
 2040TIP3    H127755   4.545   4.649   7.675 -1.8925  0.5776  2.6634
 2040TIP3    H227756   4.618   4.714   7.790  0.7454 -1.5430  2.2569
 2041TIP3   OH227757   4.159   6.398   7.744  0.2022 -0.8609 -0.5429
 2041TIP3    H127758   4.119   6.355   7.820 -3.0968 -0.0254 -1.7712
 2041TIP3    H227759   4.212   6.468   7.783 -1.3320 -0.5266  1.0133
 2042TIP3   OH227760   2.934   2.623   7.878  0.6596  0.6354 -0.0666
 2042TIP3    H127761   2.923   2.615   7.973  0.9117  0.3199 -0.0674
 2042TIP3    H227762   2.853   2.587   7.841 -0.0527  2.0287  0.0699
 2043TIP3   OH227763   5.372   3.253   7.289 -0.0884  0.3873 -0.2290
 2043TIP3    H127764   5.326   3.337   7.286 -0.3563  0.2982  0.8725
 2043TIP3    H227765   5.320   3.195   7.235 -1.6485  0.1238  1.4953
 2044TIP3   OH227766   3.449   4.042   1.407  0.3226 -0.5104  0.2675
 2044TIP3    H127767   3.367   4.090   1.418  1.2143  1.6531 -2.1567
 2044TIP3    H227768   3.441   3.999   1.322  1.4661 -0.8092  0.2996
 2045TIP3   OH227769   3.575   7.273   6.894  0.2552 -0.4140 -0.4999
 2045TIP3    H127770   3.520   7.344   6.862 -1.9309 -0.9041  1.9910
 2045TIP3    H227771   3.663   7.296   6.865 -0.9855  1.2851 -3.0871
 2046TIP3   OH227772   4.206   2.371   7.627 -0.5439  0.2708  0.1503
 2046TIP3    H127773   4.141   2.304   7.608 -0.5658  0.4877 -0.5310
 2046TIP3    H227774   4.174   2.414   7.707 -0.4341 -0.6414  0.6912
 2047TIP3   OH227775   2.034   5.249   7.397  0.7429 -0.1496 -0.3476
 2047TIP3    H127776   2.098   5.232   7.328  0.5934 -0.7795 -0.3301
 2047TIP3    H227777   2.004   5.163   7.425  1.1968  0.0703  0.8809
 2048TIP3   OH227778   2.056   4.368   7.398 -0.2705 -0.1291  0.5407
 2048TIP3    H127779   2.102   4.435   7.448  0.4347  0.4107 -0.8246
 2048TIP3    H227780   2.098   4.286   7.423  0.3749  0.1861  0.4765
 2049TIP3   OH227781   3.080   3.207   2.136  0.0926 -0.4918 -0.0337
 2049TIP3    H127782   3.013   3.139   2.144  1.4980 -2.1076 -1.4239
 2049TIP3    H227783   3.031   3.287   2.117 -1.4975 -1.4431 -0.0616
 2050TIP3   OH227784   2.317   5.436   1.803 -0.0751  0.2398 -0.1133
 2050TIP3    H127785   2.290   5.355   1.847  1.8862  0.9495  2.5547
 2050TIP3    H227786   2.277   5.506   1.855  1.0698  1.0560 -0.3013
 2051TIP3   OH227787   4.454   2.006   7.579  0.5887 -0.1530 -0.8345
 2051TIP3    H127788   4.530   2.051   7.542  1.5598 -1.3429 -0.3256
 2051TIP3    H227789   4.432   2.056   7.658  0.5136  0.4904 -1.2587
 2052TIP3   OH227790   3.026   3.052   6.758  1.3654  0.5199  0.7749
 2052TIP3    H127791   2.952   3.062   6.818  0.9597  0.7528  0.2296
 2052TIP3    H227792   3.093   3.008   6.811  0.5503 -0.4350  1.0309
 2053TIP3   OH227793   1.122   5.270   8.259 -0.3141 -0.0004  0.4767
 2053TIP3    H127794   1.099   5.352   8.214 -4.4729 -1.4540 -0.2333
 2053TIP3    H227795   1.206   5.245   8.221 -1.3085  1.4524 -2.8593
 2054TIP3   OH227796   1.418   0.129   7.455  0.0810 -0.3232  0.1404
 2054TIP3    H127797   1.433   0.102   7.364  0.4222  2.7650 -0.7856
 2054TIP3    H227798   1.498   0.173   7.481  0.2489 -1.7850  2.2252
 2055TIP3   OH227799   2.923   4.754   0.666  0.3325  0.3864  0.0952
 2055TIP3    H127800   3.013   4.735   0.639  0.9093  0.7883  1.7034
 2055TIP3    H227801   2.878   4.778   0.585  1.2954 -1.2345 -0.9552
 2056TIP3   OH227802   3.946   2.844   2.004 -0.2470 -0.1424  0.0306
 2056TIP3    H127803   3.872   2.895   1.971  0.1978 -0.1962 -1.0651
 2056TIP3    H227804   3.944   2.763   1.953  1.4970  0.5120 -1.1301
 2057TIP3   OH227805   4.656   6.188   8.095 -0.6179 -0.3800  0.0802
 2057TIP3    H127806   4.680   6.149   8.011  0.8180  1.0247 -0.1872
 2057TIP3    H227807   4.738   6.186   8.146 -1.3046 -0.5789  1.1937
 2058TIP3   OH227808   2.589   6.728   7.450 -0.1932  0.4511 -0.2253
 2058TIP3    H127809   2.502   6.689   7.462 -0.3765  0.4868 -1.3695
 2058TIP3    H227810   2.578   6.820   7.473 -0.4319  0.4382 -0.2893
 2059TIP3   OH227811   2.283   5.139   6.160  0.1704 -0.2887  0.3465
 2059TIP3    H127812   2.306   5.221   6.202  1.1621 -0.4796  0.1900
 2059TIP3    H227813   2.278   5.160   6.066 -4.9649  0.8215  0.7243
 2060TIP3   OH227814   4.248   4.312   7.181  0.3815  0.2659 -0.1824
 2060TIP3    H127815   4.185   4.259   7.131 -1.1027 -0.0984  2.0105
 2060TIP3    H227816   4.329   4.261   7.178  0.3396  0.2485 -2.1876
 2061TIP3   OH227817   2.398   2.563   7.136  0.1789  0.2884  0.0367
 2061TIP3    H127818   2.468   2.620   7.103 -0.7703  1.3820 -0.1536
 2061TIP3    H227819   2.345   2.621   7.192 -0.3333 -0.6270  0.5068
 2062TIP3   OH227820   2.061   5.268   8.381  0.5123 -0.4268  0.1928
 2062TIP3    H127821   2.043   5.185   8.426  1.1348  0.0650  1.3636
 2062TIP3    H227822   2.156   5.269   8.370  0.3059 -0.8317 -1.7188
 2063TIP3   OH227823   1.521   4.183   8.424  0.6462  0.1146 -0.0159
 2063TIP3    H127824   1.600   4.210   8.379  0.7798  1.0242  0.7565
 2063TIP3    H227825   1.502   4.096   8.390  2.6333 -0.5935  0.6581
 2064TIP3   OH227826   2.433   5.750   7.031 -0.3705  0.1634 -0.3129
 2064TIP3    H127827   2.507   5.811   7.025  1.6180 -2.2436 -1.2289
 2064TIP3    H227828   2.420   5.720   6.941 -0.8320 -1.3096  0.2355
 2065TIP3   OH227829   4.551   6.237   0.765 -0.0231  0.5830  0.4529
 2065TIP3    H127830   4.466   6.261   0.728 -0.4995  0.1515  1.2495
 2065TIP3    H227831   4.605   6.316   0.755 -0.0134  0.3553 -1.4919
 2066TIP3   OH227832   4.748   3.295   0.801 -0.2899  0.1573  0.5272
 2066TIP3    H127833   4.715   3.329   0.718 -0.1921 -0.4004  0.2549
 2066TIP3    H227834   4.843   3.291   0.788 -0.5373 -3.1914 -0.5912
 2067TIP3   OH227835   5.509   6.494   8.474  0.2227 -0.2288  0.3044
 2067TIP3    H127836   5.565   6.534   8.542 -1.6535  1.2385  1.0654
 2067TIP3    H227837   5.469   6.569   8.429 -0.2420 -1.2248 -0.9747
 2068TIP3   OH227838   4.367   3.277   7.601  0.5860  0.0896 -0.6920
 2068TIP3    H127839   4.402   3.366   7.610  0.5177  0.0950 -0.4803
 2068TIP3    H227840   4.440   3.226   7.566  0.2310  0.5132 -2.0984
 2069TIP3   OH227841   3.751   4.481   0.066 -0.1657 -0.0221 -0.1208
 2069TIP3    H127842   3.809   4.415   0.027  1.8092  0.4270  1.9614
 2069TIP3    H227843   3.695   4.431   0.125 -0.1078 -0.1043 -0.1351
 2070TIP3   OH227844   1.500   5.221   7.220  0.0990  0.4109 -0.5389
 2070TIP3    H127845   1.591   5.198   7.199 -0.0089 -1.1285  0.6077
 2070TIP3    H227846   1.507   5.293   7.282  0.7106 -2.9702  3.5057
 2071TIP3   OH227847   0.468   4.342   6.880  1.2821 -0.3742  0.5213
 2071TIP3    H127848   0.380   4.349   6.918  0.9873 -1.9119  0.1610
 2071TIP3    H227849   0.527   4.352   6.954  0.7521 -1.1158  1.0514
 2072TIP3   OH227850   2.869   6.789   7.350  0.2329  0.3014  0.3844
 2072TIP3    H127851   2.839   6.789   7.441  0.0903  0.8566  0.3413
 2072TIP3    H227852   2.960   6.818   7.355  0.7199 -1.1964  0.4964
 2073TIP3   OH227853   3.090   4.604   0.375 -0.0877 -0.2195  0.0722
 2073TIP3    H127854   2.999   4.574   0.381 -0.7238  1.6221 -0.0294
 2073TIP3    H227855   3.121   4.605   0.466  0.2160 -1.9001  0.0155
 2074TIP3   OH227856   5.635   5.655   1.272  0.0057 -0.2629 -0.1123
 2074TIP3    H127857   5.638   5.745   1.303 -0.8007 -0.0653 -0.6038
 2074TIP3    H227858   5.555   5.619   1.309  0.5345 -0.9059  0.4209
 2075TIP3   OH227859   2.899   4.601   6.627  0.2437 -0.2773 -0.4767
 2075TIP3    H127860   2.909   4.668   6.560  2.4153 -0.5430 -0.4587
 2075TIP3    H227861   2.806   4.577   6.624 -0.1964  1.5075 -1.6341
 2076TIP3   OH227862   4.344   3.050   2.345 -0.3463 -0.3189  0.5770
 2076TIP3    H127863   4.271   3.006   2.303 -0.1832  0.2309 -0.2962
 2076TIP3    H227864   4.407   2.981   2.365 -0.1113 -0.4914 -0.7396
 2077TIP3   OH227865   1.961   0.663   0.056  0.2810  0.0869  0.2366
 2077TIP3    H127866   1.910   0.613   0.119  1.1263 -0.5004  0.4620
 2077TIP3    H227867   2.050   0.629   0.064  0.4425  0.1356 -1.1264
 2078TIP3   OH227868   4.497   5.143   1.143  0.1265 -0.8030 -0.3113
 2078TIP3    H127869   4.537   5.100   1.219  0.0856  0.9404  0.7259
 2078TIP3    H227870   4.477   5.231   1.173 -3.6019 -1.2937 -1.0959
 2079TIP3   OH227871   3.177   0.576   8.018 -0.2814 -0.2869 -0.0083
 2079TIP3    H127872   3.103   0.570   8.078  0.7354  1.5346  1.4935
 2079TIP3    H227873   3.138   0.591   7.932 -1.7172 -2.0394  0.3143
 2080TIP3   OH227874   3.041   5.102   7.467 -0.5113 -0.5834  0.3100
 2080TIP3    H127875   3.030   5.192   7.437  1.0543 -0.3186  0.5043
 2080TIP3    H227876   3.007   5.048   7.396 -1.1104  0.1352  0.0380
 2081TIP3   OH227877   4.608   5.160   6.633 -0.4696  0.1605  0.1661
 2081TIP3    H127878   4.552   5.107   6.577  0.7317  0.3618 -1.2674
 2081TIP3    H227879   4.585   5.250   6.610  1.4917  0.2607 -1.5783
 2082TIP3   OH227880   2.595   4.580   7.513 -0.5518 -0.4778  0.1052
 2082TIP3    H127881   2.667   4.570   7.449 -0.3256 -1.4807  0.5138
 2082TIP3    H227882   2.601   4.671   7.540 -1.5600  0.3772 -2.3847
 2083TIP3   OH227883   3.639   4.718   2.331  0.6292  0.4278  0.6751
 2083TIP3    H127884   3.707   4.670   2.283 -1.7089 -1.0490 -1.3016
 2083TIP3    H227885   3.642   4.681   2.420  1.6366 -0.4316  0.2973
 2084TIP3   OH227886   0.160   3.576   6.668 -0.3799 -0.1619 -0.0990
 2084TIP3    H127887   0.195   3.523   6.597 -1.0542 -1.2375  0.3653
 2084TIP3    H227888   0.159   3.518   6.744 -0.3247  0.7684  0.6190
 2085TIP3   OH227889   2.664   3.109   7.387 -0.3470 -0.1033  0.1735
 2085TIP3    H127890   2.610   3.136   7.461  0.1485 -1.8193  1.1889
 2085TIP3    H227891   2.603   3.061   7.330 -0.5331  0.4762 -0.1217
 2086TIP3   OH227892   5.088   4.077   6.458 -0.7856  0.6369  0.2808
 2086TIP3    H127893   5.157   4.134   6.491  0.4281 -0.4462 -0.3781
 2086TIP3    H227894   5.107   3.991   6.497  0.4218 -0.5586 -2.8427
 2087TIP3   OH227895   3.305   5.059   8.373 -0.6165 -0.0685 -0.2622
 2087TIP3    H127896   3.227   5.114   8.378 -0.4951  0.2274 -1.3420
 2087TIP3    H227897   3.291   4.991   8.439 -0.9225  1.0542  0.8518
 2088TIP3   OH227898   3.232   6.158   2.572  0.3769  0.1183  0.1603
 2088TIP3    H127899   3.309   6.106   2.595 -0.0915 -0.6759 -0.0813
 2088TIP3    H227900   3.269   6.236   2.530  1.0462 -0.3173 -0.0767
 2089TIP3   OH227901   4.591   3.426   8.003  0.3062 -0.0855 -0.4862
 2089TIP3    H127902   4.668   3.481   8.018  0.6271 -0.8669  0.7940
 2089TIP3    H227903   4.517   3.479   8.032  0.7326 -0.7893  2.0174
 2090TIP3   OH227904   5.355   5.152   6.985  0.1250  0.1332 -0.2301
 2090TIP3    H127905   5.297   5.223   7.012  0.4735  2.2135 -4.5891
 2090TIP3    H227906   5.301   5.096   6.930  1.0281 -0.4967 -0.4966
 2091TIP3   OH227907   3.964   5.063   6.489 -0.4207  0.4278 -0.5248
 2091TIP3    H127908   3.925   4.977   6.470 -0.4573  0.3519 -0.1111
 2091TIP3    H227909   4.040   5.067   6.432 -0.7631  0.3743 -0.9921
 2092TIP3   OH227910   1.438   5.407   6.797 -0.1586 -0.4990  0.1707
 2092TIP3    H127911   1.363   5.364   6.838 -2.9405  4.0105  0.1334
 2092TIP3    H227912   1.514   5.367   6.839 -2.6245 -3.4522  2.0399
 2093TIP3   OH227913   4.008   2.906   6.544 -0.3252 -0.1853  0.8650
 2093TIP3    H127914   3.988   2.813   6.541 -0.3661 -0.2433  2.4104
 2093TIP3    H227915   4.080   2.914   6.606  0.4382  0.6962 -0.1044
 2094TIP3   OH227916   2.151   4.303   5.997 -0.1723  0.4251  0.1453
 2094TIP3    H127917   2.090   4.275   5.929  0.5958 -1.7182  0.2960
 2094TIP3    H227918   2.193   4.222   6.026  0.4965  1.4880  2.2116
 2095TIP3   OH227919   2.728   5.424   0.569 -0.2941  0.0564 -0.1408
 2095TIP3    H127920   2.661   5.485   0.539 -1.6552 -0.2690  2.0758
 2095TIP3    H227921   2.744   5.448   0.660  1.7511 -0.6408 -0.2803
 2096TIP3   OH227922   2.242   0.839   8.419  0.1889  0.2605 -0.7237
 2096TIP3    H127923   2.187   0.760   8.423  2.0991 -1.0547  0.0409
 2096TIP3    H227924   2.221   0.887   8.499 -0.2492  0.0472 -0.7081
 2097TIP3   OH227925   3.229   4.439   6.458 -0.3157 -0.0550  0.4166
 2097TIP3    H127926   3.141   4.405   6.470 -1.0051  1.6000  0.2453
 2097TIP3    H227927   3.217   4.534   6.447  1.5153  0.2546  0.8422
 2098TIP3   OH227928   0.704   3.431   1.280 -0.4268  0.0492 -0.1880
 2098TIP3    H127929   0.695   3.433   1.376  1.1976 -0.0311 -0.0337
 2098TIP3    H227930   0.739   3.517   1.257 -0.2005 -0.1667 -0.6493
 2099TIP3   OH227931   5.107   4.607   6.861  0.0284  0.0305  0.0920
 2099TIP3    H127932   5.102   4.577   6.771 -0.1065 -0.9631  0.4275
 2099TIP3    H227933   5.027   4.572   6.902 -2.4933  4.5417 -0.6057
 2100TIP3   OH227934   4.149   6.289   6.279  0.2812 -0.4745  0.3483
 2100TIP3    H127935   4.161   6.343   6.201  2.5554 -0.0814  0.9374
 2100TIP3    H227936   4.120   6.351   6.346  0.2334 -0.4674  0.3208
 2101TIP3   OH227937   4.483   3.469   0.162  0.2358 -0.6471 -0.0741
 2101TIP3    H127938   4.477   3.484   0.256  2.0710  0.0968 -0.0699
 2101TIP3    H227939   4.494   3.374   0.154  1.1982 -0.5849  0.5112
 2102TIP3   OH227940   0.484   6.739   6.697  0.1920  0.1826 -0.4973
 2102TIP3    H127941   0.556   6.799   6.681  0.0191  0.3121 -0.8049
 2102TIP3    H227942   0.417   6.793   6.739  1.0218 -0.3750  1.5920
 2103TIP3   OH227943   3.631   4.565   7.419 -0.2753 -0.3410 -0.0447
 2103TIP3    H127944   3.674   4.636   7.467  1.9512 -1.8822  0.3113
 2103TIP3    H227945   3.538   4.576   7.439  0.1235  1.9596  0.6876
 2104TIP3   OH227946   5.112   6.258   0.211 -0.4448  0.4023 -0.9012
 2104TIP3    H127947   5.150   6.304   0.136  2.1945  1.7649  1.1908
 2104TIP3    H227948   5.177   6.191   0.235 -2.0896 -1.2449 -0.9397
 2105TIP3   OH227949   3.562   4.720   6.398  0.8415  0.1973 -0.8083
 2105TIP3    H127950   3.470   4.748   6.399  0.9015  0.3957  0.8347
 2105TIP3    H227951   3.558   4.625   6.407  0.8139  0.3468  1.0566
 2106TIP3   OH227952   0.513   0.251   0.902  0.1350  0.7268 -0.6299
 2106TIP3    H127953   0.568   0.261   0.980 -0.4286  1.5102 -0.3278
 2106TIP3    H227954   0.435   0.303   0.921 -0.7859 -0.4930 -1.0003
 2107TIP3   OH227955   1.857   3.989   8.386 -0.6143  0.2087 -0.2603
 2107TIP3    H127956   1.856   4.041   8.466 -0.2824 -0.4291  0.1667
 2107TIP3    H227957   1.949   3.986   8.360 -0.4413 -1.1930  0.4193
 2108TIP3   OH227958   1.707   5.694   7.116  0.0544 -0.0058 -0.3584
 2108TIP3    H127959   1.752   5.635   7.055 -0.6545  0.9012 -1.7883
 2108TIP3    H227960   1.765   5.770   7.122  0.2856 -0.2412  0.3677
 2109TIP3   OH227961   1.909   4.138   0.148  0.1548 -0.3326 -0.2985
 2109TIP3    H127962   1.939   4.106   0.233 -0.4780  1.2508  0.5269
 2109TIP3    H227963   1.816   4.116   0.146 -0.2229  1.2212  0.1635
 2110TIP3   OH227964   2.804   3.816   1.837  0.2128  0.2770  0.1321
 2110TIP3    H127965   2.765   3.888   1.786  0.8034  0.3292 -0.2474
 2110TIP3    H227966   2.847   3.761   1.772  1.5676  0.7094  0.6386
 2111TIP3   OH227967   4.633   2.458   6.646  0.2045  0.4433  0.5777
 2111TIP3    H127968   4.705   2.517   6.671  1.3072 -0.9171  0.6480
 2111TIP3    H227969   4.669   2.370   6.657 -1.4655 -0.2576  0.5566
 2112TIP3   OH227970   5.500   3.916   6.899  0.0622  0.0427  0.0167
 2112TIP3    H127971   5.595   3.907   6.901 -0.1037 -1.7239  2.6748
 2112TIP3    H227972   5.480   3.989   6.957 -0.1559  0.9290 -1.1688
 2113TIP3   OH227973   4.981   1.123   7.165  0.8477  0.4481  0.1668
 2113TIP3    H127974   5.037   1.051   7.195 -0.0212 -0.4416 -0.3326
 2113TIP3    H227975   4.956   1.099   7.076 -0.8644  0.5199  0.6122
 2114TIP3   OH227976   2.118   3.660   0.452 -0.1551 -0.6121 -0.3302
 2114TIP3    H127977   2.170   3.583   0.426  0.1222 -1.6044  2.9591
 2114TIP3    H227978   2.078   3.690   0.370  3.1644 -1.6446 -2.4483
 2115TIP3   OH227979   3.233   3.926   7.429  0.5091  0.5860  0.6197
 2115TIP3    H127980   3.139   3.942   7.441  0.2244  0.7706 -1.6966
 2115TIP3    H227981   3.238   3.856   7.365  1.9436  2.3796 -1.3280
 2116TIP3   OH227982   4.689   4.288   7.103 -0.2532  0.0015 -0.2971
 2116TIP3    H127983   4.703   4.302   7.009 -0.7798 -1.1072 -0.5527
 2116TIP3    H227984   4.776   4.297   7.142  0.1638 -0.6223 -1.0475
 2117TIP3   OH227985   4.792   2.054   7.832  0.1735 -0.2685  0.2048
 2117TIP3    H127986   4.860   1.991   7.808  0.5372  0.3490 -0.4181
 2117TIP3    H227987   4.787   2.113   7.757 -1.4247 -0.6179  0.0108
 2118TIP3   OH227988   3.285   3.007   8.125 -0.2734  0.5725 -0.2095
 2118TIP3    H127989   3.225   2.947   8.167 -0.1037  0.6005  0.0742
 2118TIP3    H227990   3.262   3.094   8.159 -0.4642  0.6573 -0.5551
 2119TIP3   OH227991   3.365   4.466   7.405 -0.5027 -0.3296  0.1700
 2119TIP3    H127992   3.323   4.482   7.489 -0.5507  1.2685 -0.1418
 2119TIP3    H227993   3.301   4.497   7.340  0.6705  1.0933 -0.3482
 2120TIP3   OH227994   3.124   5.550   6.543 -0.0744 -0.3932 -0.5181
 2120TIP3    H127995   3.054   5.537   6.479  1.3854 -0.8251 -2.0525
 2120TIP3    H227996   3.138   5.464   6.582 -1.1977 -0.0580  0.6361
 2121TIP3   OH227997   4.449   4.260   0.672  0.7542  0.0222  0.5969
 2121TIP3    H127998   4.371   4.301   0.711 -2.0622 -2.5170 -2.0807
 2121TIP3    H227999   4.462   4.180   0.723 -0.2345 -1.0486 -0.7945
 2122TIP3   OH228000   5.988   3.574   1.662 -0.0111  0.3299 -0.3720
 2122TIP3    H128001   5.949   3.600   1.746 -0.3986  0.6381 -0.6450
 2122TIP3    H228002   6.066   3.630   1.653 -0.7318  1.2775 -0.8644
 2123TIP3   OH228003   4.626   5.192   1.405  0.0750 -0.2531  0.3207
 2123TIP3    H128004   4.582   5.111   1.432 -0.0493 -0.0524  0.7182
 2123TIP3    H228005   4.695   5.205   1.470 -0.3931  0.3706  0.6959
 2124TIP3   OH228006   2.971   4.673   1.880  0.0569 -0.0253 -0.1223
 2124TIP3    H128007   2.917   4.751   1.862 -1.4251 -0.4916  2.0269
 2124TIP3    H228008   3.003   4.687   1.969  1.0859 -1.1500 -0.3065
 2125TIP3   OH228009   3.555   4.534   0.691 -0.0795 -0.3422 -0.6937
 2125TIP3    H128010   3.597   4.549   0.606  0.1122 -0.8989 -0.7021
 2125TIP3    H228011   3.598   4.596   0.750 -1.0041  0.8463 -1.2430
 2126TIP3   OH228012   3.335   2.101   7.388 -0.3476 -0.4197 -0.4299
 2126TIP3    H128013   3.345   2.007   7.400  2.2532  0.1004  2.0780
 2126TIP3    H228014   3.379   2.119   7.305 -1.5597 -1.4838 -1.3274
 2127TIP3   OH228015   4.750   5.309   7.099  0.6057  0.3537  0.5716
 2127TIP3    H128016   4.779   5.267   7.019 -0.3733  0.6496  0.0433
 2127TIP3    H228017   4.830   5.339   7.142  1.0973  0.7828 -0.6259
 2128TIP3   OH228018   2.152   3.085   7.949 -0.0589 -0.6028 -0.2861
 2128TIP3    H128019   2.113   3.011   7.995 -1.1282 -0.5017 -0.9886
 2128TIP3    H228020   2.076   3.138   7.922  0.6985  0.9450  0.5453
 2129TIP3   OH228021   4.922   5.230   8.259 -0.3889 -0.3879 -0.4496
 2129TIP3    H128022   4.932   5.269   8.172 -0.4288 -0.4557 -0.4848
 2129TIP3    H228023   4.827   5.218   8.269 -0.7170  3.0164  1.1051
 2130TIP3   OH228024   5.749   5.085   6.672  0.2089  0.0005  0.3711
 2130TIP3    H128025   5.654   5.072   6.670  0.3930 -1.3345 -0.5206
 2130TIP3    H228026   5.766   5.154   6.608 -0.3183  1.4491  1.7604
 2131TIP3   OH228027   5.287   4.803   6.742  0.3261 -0.1314  0.5001
 2131TIP3    H128028   5.302   4.755   6.661 -0.2218  0.0258  0.3050
 2131TIP3    H228029   5.233   4.745   6.795  0.3711 -0.0813  0.6010
 2132TIP3   OH228030   6.927   7.165   6.882  0.0948 -0.2576 -0.4091
 2132TIP3    H128031   6.919   7.186   6.789  0.6092 -0.3392 -0.4750
 2132TIP3    H228032   6.866   7.092   6.896 -2.5013  1.9553  0.0565
 2133TIP3   OH228033   5.760   6.003   7.324 -0.0058 -0.5481  0.1794
 2133TIP3    H128034   5.833   6.065   7.316 -0.0564  0.0224  3.2553
 2133TIP3    H228035   5.802   5.919   7.343 -0.0783 -0.5866  0.1685
 2134TIP3   OH228036   3.800   5.114   7.795  0.2071 -0.4812 -0.4983
 2134TIP3    H128037   3.890   5.139   7.817 -0.3380 -0.4448  1.7808
 2134TIP3    H228038   3.803   5.097   7.701  2.5193 -0.1383 -0.5278
 2135TIP3   OH228039   6.450   4.318   6.318  0.2453 -0.1895 -0.4001
 2135TIP3    H128040   6.363   4.288   6.293  0.7027 -1.0987 -0.9270
 2135TIP3    H228041   6.500   4.319   6.236  0.3684  1.6151 -0.3317
 2136TIP3   OH228042   4.604   3.588   6.326  0.6684 -0.5620 -0.2636
 2136TIP3    H128043   4.663   3.527   6.281  0.0251 -1.9716  0.7747
 2136TIP3    H228044   4.656   3.667   6.340  1.6423 -1.0258 -1.2326
 2137TIP3   OH228045   5.209   2.953   7.988 -0.1604 -0.2027  0.1461
 2137TIP3    H128046   5.178   2.889   7.924 -0.5809  1.7269 -1.6589
 2137TIP3    H228047   5.146   2.947   8.060 -0.7339 -1.1420 -0.4247
 2138TIP3   OH228048   2.199   4.820   6.076  0.3654 -1.1639  0.4642
 2138TIP3    H128049   2.162   4.811   6.163  0.4815 -2.2784  0.4126
 2138TIP3    H228050   2.167   4.904   6.044  0.3458 -0.7396  1.5864
 2139TIP3   OH228051   5.397   5.571   8.090  0.4088 -0.0483  0.1717
 2139TIP3    H128052   5.341   5.501   8.124 -2.1871  2.8516  2.2006
 2139TIP3    H228053   5.356   5.596   8.007  1.5455 -1.1460 -0.7313
 2140TIP3   OH228054   4.887   4.757   5.982 -0.1097 -0.1988  0.7147
 2140TIP3    H128055   4.873   4.729   5.891 -1.7662 -1.6753  1.4113
 2140TIP3    H228056   4.982   4.769   5.988 -0.2040  3.0543 -2.0872
 2141TIP3   OH228057   4.537   3.816   7.301  0.0310  0.2698  0.1317
 2141TIP3    H128058   4.629   3.825   7.327  0.5300 -2.0241 -0.7124
 2141TIP3    H228059   4.508   3.735   7.343 -1.1107  0.0965 -0.9501
 2142TIP3   OH228060   5.096   0.381   7.362  0.3901 -0.0875  0.4832
 2142TIP3    H128061   5.171   0.441   7.364  0.1333  0.3144 -1.2526
 2142TIP3    H228062   5.135   0.295   7.343  0.5742 -0.1948  1.2988
 2143TIP3   OH228063   2.505   5.121   1.779 -0.2168  0.2596 -0.3458
 2143TIP3    H128064   2.538   5.093   1.864  0.3933  0.6699 -0.4441
 2143TIP3    H228065   2.430   5.177   1.800  1.2623  2.1466  0.0158
 2144TIP3   OH228066   5.318   4.456   7.026 -0.2677 -0.3683 -0.0232
 2144TIP3    H128067   5.362   4.539   7.013  1.7351 -1.7877 -2.6214
 2144TIP3    H228068   5.224   4.476   7.018  0.1474  1.7478  0.2770
 2145TIP3   OH228069   5.788   5.819   6.621 -0.3606 -0.2713  0.1222
 2145TIP3    H128070   5.883   5.822   6.620 -0.1692 -3.9569 -0.2656
 2145TIP3    H228071   5.762   5.818   6.529 -0.4941 -3.2261  0.1324
 2146TIP3   OH228072   3.569   4.255   7.496 -0.0640 -0.0338  0.3146
 2146TIP3    H128073   3.576   4.350   7.486 -0.6579 -0.1917 -1.7730
 2146TIP3    H228074   3.480   4.234   7.468 -0.0500 -1.1736  1.0791
 2147TIP3   OH228075   0.245   4.963   6.501 -0.1094  0.2119 -0.2416
 2147TIP3    H128076   0.209   4.910   6.430 -1.5139  1.3125 -0.3765
 2147TIP3    H228077   0.334   4.984   6.472 -0.2507 -0.3564 -1.1232
 2148TIP3   OH228078   6.328   3.326   0.528  0.4334 -0.0174 -0.3493
 2148TIP3    H128079   6.285   3.306   0.611 -1.0606  3.4920 -0.2030
 2148TIP3    H228080   6.413   3.363   0.552  0.0847  0.8104 -0.3929
 2149TIP3   OH228081   6.166   6.494   7.785 -0.3435 -0.3177  0.6006
 2149TIP3    H128082   6.090   6.471   7.839 -0.4499 -1.9965 -0.2181
 2149TIP3    H228083   6.174   6.589   7.794 -0.5791 -0.5160  3.2410
 2150TIP3   OH228084   4.236   5.970   7.368 -0.3055  0.3893  0.4128
 2150TIP3    H128085   4.288   6.005   7.441  0.1286 -2.5122  1.5692
 2150TIP3    H228086   4.180   6.043   7.342  0.7198  2.0095  2.5551
 2151TIP3   OH228087   5.027   7.229   6.669  0.9690  0.6372 -0.1254
 2151TIP3    H128088   5.019   7.150   6.616  0.9212  0.1147  0.6485
 2151TIP3    H228089   4.978   7.296   6.621 -0.1688 -0.1605 -0.0903
 2152TIP3   OH228090   4.710   4.924   6.110 -0.3958  0.1578  0.1291
 2152TIP3    H128091   4.736   4.892   6.196 -0.6886  1.2929  0.6441
 2152TIP3    H228092   4.743   4.857   6.049 -0.9552 -1.0880  1.1697
 2153TIP3   OH228093   6.259   5.964   1.207 -0.3916 -0.5968 -0.3129
 2153TIP3    H128094   6.280   6.003   1.122  1.8580 -0.8631  0.0860
 2153TIP3    H228095   6.329   5.993   1.265 -2.3370  0.2289  1.6876
 2154TIP3   OH228096   4.499   5.421   6.579 -0.0738  0.4193  0.0030
 2154TIP3    H128097   4.576   5.447   6.629 -1.1072  1.6788  0.9859
 2154TIP3    H228098   4.426   5.462   6.625 -1.4541 -1.7463 -0.2029
 2155TIP3   OH228099   2.962   4.988   6.756  0.6367  0.0696 -0.3862
 2155TIP3    H128100   3.016   4.939   6.695 -1.2735 -2.5309 -0.0592
 2155TIP3    H228101   2.950   5.074   6.715  4.4022  0.4693 -0.7463
 2156TIP3   OH228102   6.163   5.309   6.051  0.4581  0.2101  0.1410
 2156TIP3    H128103   6.192   5.275   6.136 -0.7458 -0.8821  0.1279
 2156TIP3    H228104   6.241   5.349   6.013  1.4083 -0.7369  1.0671
 2157TIP3   OH228105   3.009   5.861   6.415 -0.3273  0.1668 -0.2547
 2157TIP3    H128106   3.023   5.870   6.509  1.9612  0.9235 -0.6168
 2157TIP3    H228107   3.083   5.807   6.384 -1.3083 -0.4780 -1.5417
 2158TIP3   OH228108   6.230   0.858   7.182 -0.0849  0.0323  0.2585
 2158TIP3    H128109   6.222   0.950   7.157 -1.1884 -0.4280 -1.1799
 2158TIP3    H228110   6.231   0.811   7.099 -0.1115 -1.2911  0.9988
 2159TIP3   OH228111   3.559   5.801   0.046 -0.1948 -0.9230  0.5737
 2159TIP3    H128112   3.569   5.790   0.140  1.2557 -1.8957  0.3191
 2159TIP3    H228113   3.569   5.895   0.032  2.7443 -1.1227  1.0530
 2160TIP3   OH228114   3.974   5.367   6.741 -0.2769  0.2341  0.3373
 2160TIP3    H128115   3.896   5.347   6.688  1.3378 -1.4871 -1.4614
 2160TIP3    H228116   4.036   5.404   6.679  0.5961  1.0135  1.6515
 2161TIP3   OH228117   3.767   4.449   0.523  0.1090 -0.4973 -0.5166
 2161TIP3    H128118   3.862   4.437   0.523 -0.1379 -2.5907 -0.7755
 2161TIP3    H228119   3.735   4.391   0.592 -1.0374 -0.2169 -0.7908
 2162TIP3   OH228120   4.400   5.054   6.470  0.3010 -0.2720  0.1127
 2162TIP3    H128121   4.331   5.111   6.436  0.4455  0.8871  1.7366
 2162TIP3    H228122   4.429   5.003   6.393 -0.7176  0.9141 -1.0729
 2163TIP3   OH228123   2.730   6.151   6.663 -0.1258 -0.0115  0.1126
 2163TIP3    H128124   2.822   6.133   6.643 -0.4062  0.8795 -2.1559
 2163TIP3    H228125   2.732   6.233   6.713  0.2441  0.6675 -0.9991
 2164TIP3   OH228126   5.122   6.830   1.000  0.7899  0.4165 -1.1017
 2164TIP3    H128127   5.057   6.898   0.981  1.3234  0.8630 -1.3496
 2164TIP3    H228128   5.201   6.859   0.954  1.4809  0.4307  0.0954
 2165TIP3   OH228129   4.220   5.578   8.447  0.6447 -0.4818  0.0003
 2165TIP3    H128130   4.157   5.515   8.411  2.0135 -0.9050 -1.7181
 2165TIP3    H228131   4.171   5.660   8.451 -0.8372 -1.4085  1.2649
 2166TIP3   OH228132   5.454   5.159   6.684 -0.2409 -0.6967 -0.0325
 2166TIP3    H128133   5.405   5.141   6.764  0.5211 -1.2982  0.3136
 2166TIP3    H228134   5.404   5.226   6.639 -1.9864 -2.1142 -0.2410
 2167TIP3   OH228135   6.462   3.301   1.613 -0.4817  0.0787  0.3200
 2167TIP3    H128136   6.512   3.256   1.545  0.0081  0.6078  0.3280
 2167TIP3    H228137   6.373   3.305   1.578 -0.1434  0.7322 -0.4856
 2168TIP3   OH228138   6.883   4.801   6.423 -0.4223 -0.2584  0.0741
 2168TIP3    H128139   6.953   4.797   6.358 -0.7043  3.4414 -0.5809
 2168TIP3    H228140   6.924   4.842   6.499 -1.8072  1.8653 -0.2869
 2169TIP3   OH228141   3.891   5.736   1.628  0.4312  0.0018 -0.3125
 2169TIP3    H128142   3.904   5.666   1.691  1.2153 -0.1656 -0.6511
 2169TIP3    H228143   3.827   5.701   1.566 -0.2160  0.1057  0.2910
 2170TIP3   OH228144   3.803   1.356   7.467  0.5362 -0.7376  0.3041
 2170TIP3    H128145   3.850   1.439   7.460 -0.6323 -0.0591  0.2142
 2170TIP3    H228146   3.813   1.316   7.381 -0.1987  0.0490 -0.1594
 2171TIP3   OH228147   0.061   5.376   6.918  0.3225 -0.3498 -0.3175
 2171TIP3    H128148   0.116   5.442   6.876  0.7992  0.0330  0.9182
 2171TIP3    H228149  -0.027   5.413   6.915  0.7802  0.9075  1.5167
 2172TIP3   OH228150   5.891   5.513   7.666 -0.2988  0.2251 -0.5382
 2172TIP3    H128151   5.844   5.548   7.591  0.2964 -0.6891 -1.3506
 2172TIP3    H228152   5.823   5.473   7.720 -0.4788 -1.1469 -1.7343
 2173TIP3   OH228153   3.726   0.324   6.229  0.4663  0.5103  0.8610
 2173TIP3    H128154   3.716   0.400   6.172 -2.4222 -0.5495 -0.1221
 2173TIP3    H228155   3.710   0.249   6.173 -0.5401 -0.6411  2.6124
 2174TIP3   OH228156   6.253   2.958   7.302  0.1144 -0.4044  0.3566
 2174TIP3    H128157   6.336   2.985   7.261  0.6197 -0.2466  1.4509
 2174TIP3    H228158   6.260   2.991   7.392 -0.6230 -1.4528  0.8045
 2175TIP3   OH228159   4.215   4.036   0.409  0.1684  0.4743  0.3421
 2175TIP3    H128160   4.167   4.051   0.490 -1.4325 -0.0002 -0.4865
 2175TIP3    H228161   4.269   4.114   0.397 -2.9297  2.5964 -0.4272
 2176TIP3   OH228162   2.921   4.112   0.352  0.3726  0.3843  0.4608
 2176TIP3    H128163   2.912   4.023   0.317  2.6866  0.2178  0.1814
 2176TIP3    H228164   2.864   4.113   0.429  0.3326 -1.3550  0.4805
 2177TIP3   OH228165   4.101   5.799   8.022 -0.3607  0.3883  0.1829
 2177TIP3    H128166   4.111   5.764   7.934 -1.0073 -0.1171  0.3044
 2177TIP3    H228167   4.049   5.733   8.068 -1.7020  1.5724  0.3859
 2178TIP3   OH228168   5.790   5.452   6.668 -0.0676  0.0729 -0.3919
 2178TIP3    H128169   5.719   5.482   6.725 -1.0750 -2.0329 -0.4592
 2178TIP3    H228170   5.852   5.409   6.727  0.6298  0.9738 -0.4636
 2179TIP3   OH228171   6.010   5.962   8.052  0.4535 -0.0711 -0.4698
 2179TIP3    H128172   5.994   6.047   8.093  2.0433  0.8292 -1.6510
 2179TIP3    H228173   5.931   5.944   8.003 -0.0651  0.5228  0.1328
 2180TIP3   OH228174   6.143   5.542   7.545 -0.2148  0.7272  0.5609
 2180TIP3    H128175   6.116   5.539   7.637 -0.6998  2.3236  0.4890
 2180TIP3    H228176   6.084   5.480   7.502  1.6060 -1.8626  1.6763
 2181TIP3   OH228177   6.945   6.446   1.916 -0.2121 -0.3726  0.0926
 2181TIP3    H128178   7.001   6.369   1.913 -0.0806 -0.2992  0.5831
 2181TIP3    H228179   6.877   6.424   1.980  1.0524  0.7251  1.8649
 2182TIP3   OH228180   2.445   2.086   6.957 -0.2517 -0.5646 -0.7183
 2182TIP3    H128181   2.503   2.014   6.933 -1.5871 -1.5261 -1.1126
 2182TIP3    H228182   2.360   2.063   6.918 -1.3417  0.0026  1.2260
 2183TIP3   OH228183   4.963   3.175   8.453 -0.7359 -0.4325 -0.1125
 2183TIP3    H128184   5.025   3.152   8.523  0.6870 -0.8874 -1.5125
 2183TIP3    H228185   4.884   3.124   8.474 -1.3810  1.5399  2.7171
 2184TIP3   OH228186   6.000   4.260   6.612  0.1099 -0.1413  0.1578
 2184TIP3    H128187   6.089   4.289   6.631  0.5539  0.4694 -2.6455
 2184TIP3    H228188   5.944   4.333   6.640  0.4131 -0.6826  2.2894
 2185TIP3   OH228189   5.067   5.692   0.166  0.3313  0.4196  0.0753
 2185TIP3    H128190   5.016   5.664   0.242  2.0589 -2.0741  0.3921
 2185TIP3    H228191   5.109   5.612   0.135  0.4321  1.5790 -2.9397
 2186TIP3   OH228192   7.085   4.075   8.224  0.7191  0.3337 -0.2942
 2186TIP3    H128193   7.122   4.091   8.137 -1.4829  2.2393 -0.9451
 2186TIP3    H228194   7.032   3.996   8.214  1.0960  0.1110 -0.4990
 2187TIP3   OH228195   2.744   6.508   7.450  0.4618 -0.0375  0.1087
 2187TIP3    H128196   2.790   6.499   7.366  0.2275 -0.4208  0.0185
 2187TIP3    H228197   2.690   6.586   7.439  0.6756  0.0998  0.0189
 2188TIP3   OH228198   4.491   3.218   1.936  0.3126 -0.1679  0.5799
 2188TIP3    H128199   4.531   3.210   1.850 -1.8407 -0.3728 -0.4455
 2188TIP3    H228200   4.466   3.129   1.960  0.1222 -0.0037  1.0022
 2189TIP3   OH228201   4.772   3.485   7.144 -0.1519 -0.9446 -0.5888
 2189TIP3    H128202   4.783   3.498   7.238 -0.6773  1.5134 -0.8239
 2189TIP3    H228203   4.815   3.402   7.126  3.0009  0.1684  1.2767
 2190TIP3   OH228204   2.402   4.727   6.532 -0.2820  0.2589  0.0697
 2190TIP3    H128205   2.479   4.725   6.475 -0.3443  0.5639 -0.0262
 2190TIP3    H228206   2.437   4.730   6.620 -0.1610 -2.4488  0.1667
 2191TIP3   OH228207   7.223   6.457   2.114 -0.3921  0.1578  0.6729
 2191TIP3    H128208   7.154   6.428   2.173  0.0585  0.5280  1.3895
 2191TIP3    H228209   7.263   6.375   2.082 -2.3365 -0.1268 -1.2121
 2192TIP3   OH228210   3.376   5.210   6.803 -0.5055 -0.3928 -0.3692
 2192TIP3    H128211   3.282   5.220   6.788 -0.3954  0.0566 -0.7545
 2192TIP3    H228212   3.387   5.223   6.897 -1.2017 -3.2128  0.1595
 2193TIP3   OH228213   4.850   1.964   6.394 -0.2145 -0.3782 -0.1945
 2193TIP3    H128214   4.934   2.010   6.399  0.8057 -2.2673  0.1629
 2193TIP3    H228215   4.866   1.890   6.337 -1.9445 -0.1459 -1.0028
 2194TIP3   OH228216   6.157   4.216   7.847 -0.1421 -0.5260  0.1428
 2194TIP3    H128217   6.065   4.243   7.841  0.1996  1.0108  1.4357
 2194TIP3    H228218   6.197   4.251   7.768 -0.2121  0.8224  0.6752
 2195TIP3   OH228219   1.361   5.528   1.616  0.2784  0.0142 -0.2461
 2195TIP3    H128220   1.367   5.432   1.620  0.4803  0.0404  0.0516
 2195TIP3    H228221   1.405   5.551   1.534 -1.2635 -0.2789 -1.2015
 2196TIP3   OH228222   5.987   5.329   7.415 -0.3290  0.2147  0.1181
 2196TIP3    H128223   5.945   5.247   7.442  0.2058  0.5071  1.9462
 2196TIP3    H228224   6.010   5.316   7.323  0.2207 -1.9015  0.5368
 2197TIP3   OH228225   0.112   6.331   7.830 -0.4443 -0.0279 -0.5060
 2197TIP3    H128226   0.069   6.311   7.913  1.7987 -0.3290  0.6327
 2197TIP3    H228227   0.193   6.376   7.855 -0.2590  0.8712 -2.5811
 2198TIP3   OH228228   3.199   4.754   6.687  0.4800  0.1146 -0.0204
 2198TIP3    H128229   3.156   4.731   6.770  0.5708  0.2022  0.0505
 2198TIP3    H228230   3.284   4.788   6.713  1.0133 -1.0347 -0.2066
 2199TIP3   OH228231   4.204   4.566   8.122  0.0930  0.4618 -0.0754
 2199TIP3    H128232   4.218   4.660   8.129 -0.3702  0.4547  1.0837
 2199TIP3    H228233   4.136   4.547   8.187  0.7008 -0.7903  0.2077
 2200TIP3   OH228234   1.552   3.846   1.521  0.2316 -0.2104  0.0480
 2200TIP3    H128235   1.531   3.915   1.458 -0.7910  0.4020  1.0469
 2200TIP3    H228236   1.625   3.881   1.571  0.4253 -0.3107 -0.1611
 2201TIP3   OH228237   3.150   6.074   7.078  0.2537  0.0420 -0.8026
 2201TIP3    H128238   3.240   6.087   7.108 -0.3568  0.4057  0.9061
 2201TIP3    H228239   3.141   6.135   7.005  0.5884  1.9846  0.7196
 2202TIP3   OH228240   6.217   0.185   1.010  0.1256  0.7823  0.5284
 2202TIP3    H128241   6.232   0.218   0.922 -0.6892  0.2722  0.1922
 2202TIP3    H228242   6.271   0.105   1.015 -0.5806  0.2819  0.1592
 2203TIP3   OH228243   4.667   0.547   7.056  0.3413  0.3139 -0.1743
 2203TIP3    H128244   4.702   0.472   7.104  0.1598  0.6728  0.5225
 2203TIP3    H228245   4.745   0.593   7.023  0.5312  0.9299  1.0950
 2204TIP3   OH228246   6.764   0.056   8.355  0.5784 -0.3350 -0.0579
 2204TIP3    H128247   6.787   0.097   8.272  0.6623 -0.5290 -0.1305
 2204TIP3    H228248   6.701  -0.012   8.332 -1.6281  1.5103  0.3642
 2205TIP3   OH228249   5.534   4.566   5.861  0.4691  0.2010 -0.1998
 2205TIP3    H128250   5.550   4.638   5.922 -0.9581  0.1309  0.2582
 2205TIP3    H228251   5.572   4.596   5.778 -0.2479  1.5367 -0.0531
 2206TIP3   OH228252   1.527   6.450   1.245  0.7904 -0.1861 -1.1527
 2206TIP3    H128253   1.435   6.475   1.239  0.8441  0.9304  1.7298
 2206TIP3    H228254   1.531   6.363   1.206 -1.8931 -1.1287  0.5204
 2207TIP3   OH228255   3.230   4.696   0.902 -0.1527 -0.3430 -0.4966
 2207TIP3    H128256   3.216   4.617   0.849 -1.5661 -0.1339 -0.4625
 2207TIP3    H228257   3.284   4.753   0.847  2.1298 -1.9094  0.0589
 2208TIP3   OH228258   5.842   4.940   6.900  0.0846 -0.2156 -0.4007
 2208TIP3    H128259   5.803   4.985   6.975  0.6455  1.0553 -0.8607
 2208TIP3    H228260   5.793   4.973   6.824 -0.0526 -1.0087 -0.6558
 2209TIP3   OH228261   5.700   5.872   0.175  0.0174 -0.3394 -0.2979
 2209TIP3    H128262   5.653   5.914   0.246  2.0408 -2.4543  2.4210
 2209TIP3    H228263   5.633   5.824   0.127 -1.3529  0.9507  0.2839
 2210TIP3   OH228264   3.272   5.776   6.456 -0.1940  0.5834 -0.0583
 2210TIP3    H128265   3.358   5.787   6.498 -0.0079 -0.2999 -0.2121
 2210TIP3    H228266   3.260   5.682   6.450 -1.7172  0.6869  1.0596
 2211TIP3   OH228267   5.281   3.649   6.294  0.4234 -0.0454 -0.4281
 2211TIP3    H128268   5.357   3.591   6.300 -0.1312 -0.8108 -0.7996
 2211TIP3    H228269   5.285   3.685   6.205  0.2745 -0.1889 -0.4927
 2212TIP3   OH228270   6.194   3.409   1.109 -0.2430 -0.5298 -0.2988
 2212TIP3    H128271   6.267   3.399   1.048  0.0116  0.4509 -0.1675
 2212TIP3    H228272   6.231   3.392   1.195 -0.3247 -0.7260 -0.3038
 2213TIP3   OH228273   5.253   3.835   7.513 -0.5074 -0.4170  0.1552
 2213TIP3    H128274   5.229   3.912   7.463 -1.7517 -0.4143  0.7263
 2213TIP3    H228275   5.320   3.865   7.574  1.0243 -0.4233 -1.4824
 2214TIP3   OH228276   4.179   2.399   8.410  0.2421  0.2297 -0.1175
 2214TIP3    H128277   4.218   2.421   8.495  2.3093 -0.0332 -0.9583
 2214TIP3    H228278   4.125   2.322   8.427  1.4475 -0.4313  0.7912
 2215TIP3   OH228279   4.394   6.082   8.039  0.5376 -0.8940  0.3004
 2215TIP3    H128280   4.364   5.992   8.055 -0.3737 -0.7511 -0.5712
 2215TIP3    H228281   4.477   6.088   8.086  0.3080 -2.0062  0.8735
 2216TIP3   OH228282   4.698   6.897   8.216 -0.0018  0.3260 -0.1755
 2216TIP3    H128283   4.628   6.914   8.153  1.6832  1.3072 -1.8252
 2216TIP3    H228284   4.680   6.809   8.248 -1.7459  0.4012 -0.9109
 2217TIP3   OH228285   5.159   5.492   7.558 -0.6382 -0.6799 -0.1861
 2217TIP3    H128286   5.109   5.573   7.550 -0.4532 -0.5030  0.4642
 2217TIP3    H228287   5.097   5.429   7.595 -1.6296 -1.6202 -3.2910
 2218TIP3   OH228288   6.752   3.917   6.158 -0.0054  0.0625  0.0910
 2218TIP3    H128289   6.698   3.920   6.079  1.9235  0.1351 -1.2910
 2218TIP3    H228290   6.829   3.865   6.131  1.3171  1.2498  1.5114
 2219TIP3   OH228291   6.908   5.987   6.537 -0.1073 -0.3279  0.7299
 2219TIP3    H128292   6.954   5.953   6.613  0.4823  0.0579  0.5506
 2219TIP3    H228293   6.881   5.909   6.489 -0.6291 -0.5729  1.4209
 2220TIP3   OH228294   6.290   4.415   1.335 -0.5939  0.6902 -0.0099
 2220TIP3    H128295   6.346   4.344   1.302 -2.2287 -0.6384  0.0254
 2220TIP3    H228296   6.302   4.412   1.430 -2.3744 -1.0317  0.1831
 2221TIP3   OH228297   3.505   4.193   2.055 -0.4691  0.6379  0.0177
 2221TIP3    H128298   3.544   4.160   2.136 -0.3311 -0.4031 -0.4523
 2221TIP3    H228299   3.435   4.131   2.036 -0.7926  1.1380 -0.4195
 2222TIP3   OH228300   6.185   4.969   5.861 -0.1628  0.2805  0.0193
 2222TIP3    H128301   6.220   4.887   5.896  0.2673  0.3725 -0.1875
 2222TIP3    H228302   6.260   5.028   5.858 -0.3051  0.4334 -0.5742
 2223TIP3   OH228303   4.639   5.747   6.263 -0.9594 -0.1745  0.2978
 2223TIP3    H128304   4.684   5.778   6.184 -1.0670  1.5645  0.8988
 2223TIP3    H228305   4.708   5.738   6.328 -1.1882  0.5970  0.6528
 2224TIP3   OH228306   0.786   3.702   1.362  0.3887  0.3062 -0.2962
 2224TIP3    H128307   0.816   3.634   1.423  0.9354  0.1560 -0.7238
 2224TIP3    H228308   0.773   3.779   1.416  2.8870  0.7673 -0.2949
 2225TIP3   OH228309   4.181   4.888   7.643  0.2762  0.2556 -0.6684
 2225TIP3    H128310   4.135   4.962   7.603  0.8124  1.5238  1.0084
 2225TIP3    H228311   4.271   4.918   7.652  1.1480 -1.6623 -2.5605
 2226TIP3   OH228312   4.028   4.576   8.407 -0.0427  0.3858 -0.2604
 2226TIP3    H128313   3.977   4.495   8.416 -1.9027  1.4239 -1.1012
 2226TIP3    H228314   4.037   4.608   8.497 -2.1684  0.9367 -0.2160
 2227TIP3   OH228315   0.593   2.333   6.331 -0.0247  0.2842 -0.3041
 2227TIP3    H128316   0.624   2.297   6.415 -1.1523  2.8826  1.2734
 2227TIP3    H228317   0.654   2.405   6.313 -0.6695  0.6525 -0.9940
 2228TIP3   OH228318   3.482   5.701   7.414  0.5769 -0.6461  0.4668
 2228TIP3    H128319   3.438   5.761   7.474 -0.9586 -0.1528 -1.1145
 2228TIP3    H228320   3.422   5.627   7.405  1.2214 -1.1573  0.2574
 2229TIP3   OH228321   4.489   5.503   8.416 -0.0482  0.3776  0.0576
 2229TIP3    H128322   4.409   5.554   8.406  0.0016  0.7035  1.2873
 2229TIP3    H228323   4.542   5.527   8.340 -0.3221  1.6001  0.2426
 2230TIP3   OH228324   4.055   4.301   6.190  0.0355 -0.4585 -0.3485
 2230TIP3    H128325   4.145   4.334   6.187 -0.1149  0.0481  0.5806
 2230TIP3    H228326   4.007   4.357   6.129  0.5878 -1.5001 -1.7636
 2231TIP3   OH228327   4.326   7.081   1.341  0.1326  0.5196  0.3519
 2231TIP3    H128328   4.352   7.172   1.327 -1.0159  0.7771 -0.1788
 2231TIP3    H228329   4.368   7.056   1.424  0.7616  1.4093  0.3022
 2232TIP3   OH228330   6.275   7.047   7.172  0.0814 -0.6472  0.3374
 2232TIP3    H128331   6.274   7.019   7.263  1.3992 -0.1233  0.5217
 2232TIP3    H228332   6.262   7.141   7.175 -0.4657 -0.7058 -0.0572
 2233TIP3   OH228333   5.249   5.632   2.025 -0.5692  0.2634 -0.1376
 2233TIP3    H128334   5.253   5.669   2.113 -0.3364  1.0317 -0.4683
 2233TIP3    H228335   5.287   5.700   1.968 -0.2739 -0.4196 -0.7658
 2234TIP3   OH228336   0.385   3.576   1.517  0.3804 -0.1718  0.6438
 2234TIP3    H128337   0.380   3.663   1.477  1.5182  0.3425  1.5826
 2234TIP3    H228338   0.328   3.582   1.594  0.1399 -0.3806  0.4811
 2235TIP3   OH228339   4.336   6.133   6.166 -0.5389  0.3034  0.5843
 2235TIP3    H128340   4.344   6.068   6.235  1.1360 -0.2819 -0.1417
 2235TIP3    H228341   4.272   6.196   6.200  0.2438  0.0311  2.6635
 2236TIP3   OH228342   4.813   5.859   6.465  0.4549 -0.4946 -0.1568
 2236TIP3    H128343   4.858   5.802   6.527  2.0251  2.6095  1.7231
 2236TIP3    H228344   4.876   5.872   6.394  0.4152 -0.5160 -0.1953
 2237TIP3   OH228345   4.065   7.147   0.861  0.2530  0.5457  0.1546
 2237TIP3    H128346   4.050   7.100   0.943 -1.8051 -2.7863 -1.9674
 2237TIP3    H228347   3.998   7.215   0.860  0.1188  0.4333  1.1301
 2238TIP3   OH228348   3.376   5.044   8.113  0.3434  0.0535  0.4391
 2238TIP3    H128349   3.438   5.114   8.091  1.2121 -0.6925  0.4885
 2238TIP3    H228350   3.359   5.055   8.206  0.4476  0.2211  0.4386
 2239TIP3   OH228351   5.252   0.243   0.546 -0.2822 -0.4108  0.5439
 2239TIP3    H128352   5.339   0.284   0.548 -0.7843  0.9279 -2.9101
 2239TIP3    H228353   5.219   0.254   0.635  2.6874 -0.0750  1.6662
 2240TIP3   OH228354   2.963   3.038   0.399  0.1069  0.2837  0.0626
 2240TIP3    H128355   2.885   3.006   0.444 -0.0528 -0.7313 -0.9121
 2240TIP3    H228356   3.036   2.991   0.441 -0.1544 -1.6790 -1.5904
 2241TIP3   OH228357   2.031   5.131   7.027 -0.3674 -0.0742 -0.1611
 2241TIP3    H128358   2.056   5.039   7.024  0.4676  0.0958  1.1028
 2241TIP3    H228359   2.077   5.166   7.103 -2.1541  0.9485  0.4806
 2242TIP3   OH228360   3.157   4.688   6.434  0.2195 -0.5938  0.5596
 2242TIP3    H128361   3.070   4.703   6.399  0.8541 -1.1950 -1.3672
 2242TIP3    H228362   3.154   4.722   6.523 -1.8275 -0.1735  0.3470
 2243TIP3   OH228363   3.050   4.266   0.181  0.5229 -0.0901 -0.1997
 2243TIP3    H128364   2.998   4.193   0.214  0.0470  0.2454 -0.2010
 2243TIP3    H228365   3.039   4.334   0.248 -1.0649  0.8767 -1.4118
 2244TIP3   OH228366   4.611   4.988   0.392 -0.1921  0.2975  0.2028
 2244TIP3    H128367   4.615   4.935   0.312 -2.7173 -1.2987  1.0764
 2244TIP3    H228368   4.668   5.063   0.374 -0.2025 -0.3656 -2.8353
 2245TIP3   OH228369   5.236   4.088   7.442  0.2578  0.6601  0.0277
 2245TIP3    H128370   5.156   4.132   7.411 -0.5845  0.1498  1.4128
 2245TIP3    H228371   5.307   4.146   7.415 -0.5674  1.0471 -1.3704
 2246TIP3   OH228372   5.805   5.367   0.901 -0.1754  0.0533 -0.4193
 2246TIP3    H128373   5.784   5.286   0.854  1.9237 -0.9337  0.2624
 2246TIP3    H228374   5.726   5.387   0.951 -0.7606 -1.5391 -0.6751
 2247TIP3   OH228375   7.319   7.084   7.408  0.3892 -0.0492 -0.2619
 2247TIP3    H128376   7.355   7.082   7.320 -0.4186  0.0625 -0.5978
 2247TIP3    H228377   7.254   7.013   7.409 -2.0436  2.1266 -0.8195
 2248TIP3   OH228378   7.063   4.757   0.407 -0.4306  0.3141  0.4867
 2248TIP3    H128379   7.075   4.684   0.346 -1.0618  2.0507 -1.8230
 2248TIP3    H228380   6.984   4.802   0.375 -2.4749 -0.3199  4.3197
 2249TIP3   OH228381   3.626   2.714   7.032 -0.2188 -0.5596  0.2788
 2249TIP3    H128382   3.600   2.623   7.046 -2.0095  0.0100  0.7986
 2249TIP3    H228383   3.621   2.753   7.119  1.7850 -0.2596  0.2718
 2250TIP3   OH228384   5.547   1.294   7.957 -0.1197 -0.3915  0.7053
 2250TIP3    H128385   5.631   1.286   7.912 -0.3757 -1.6775  0.4451
 2250TIP3    H228386   5.560   1.367   8.019  0.3113  1.2265 -1.2294
 2251TIP3   OH228387   4.488   3.379   6.926 -0.0921 -0.0357  0.2051
 2251TIP3    H128388   4.565   3.333   6.893  0.1741  0.4343  0.1705
 2251TIP3    H228389   4.466   3.441   6.857  0.4161  0.8942  0.8791
 2252TIP3   OH228390   3.745   6.528   6.275  0.0553 -0.1644 -0.2513
 2252TIP3    H128391   3.793   6.598   6.232 -0.3931 -0.1954 -0.8005
 2252TIP3    H228392   3.663   6.569   6.304 -0.3278 -0.5252 -0.8158
 2253TIP3   OH228393   4.733   5.424   7.400 -0.2749  0.3415 -0.2831
 2253TIP3    H128394   4.640   5.441   7.409 -0.3690 -0.3379  0.0921
 2253TIP3    H228395   4.740   5.328   7.400  0.2905  0.3638 -1.6098
 2254TIP3   OH228396   3.927   5.623   8.193 -0.0815 -0.0821 -0.4613
 2254TIP3    H128397   3.948   5.559   8.261 -0.1133 -0.4124 -0.7584
 2254TIP3    H228398   3.852   5.671   8.227 -1.2009 -1.4076 -1.0069
 2255TIP3   OH228399   4.962   1.326   0.417  0.2526  0.2642 -0.2137
 2255TIP3    H128400   4.999   1.356   0.500 -0.1732 -1.1958  0.5250
 2255TIP3    H228401   4.924   1.405   0.378  0.2801  0.9331  1.0719
 2256TIP3   OH228402   2.559   7.065   6.599  0.0331  0.5032 -0.7647
 2256TIP3    H128403   2.650   7.095   6.609  0.4749 -0.7543 -0.8919
 2256TIP3    H228404   2.518   7.131   6.543  0.3983  1.9887  0.6855
 2257TIP3   OH228405   5.354   5.912   6.771 -0.1454  0.1468 -0.4696
 2257TIP3    H128406   5.368   5.827   6.812  1.8167 -0.0923 -1.5343
 2257TIP3    H228407   5.415   5.971   6.816  0.0424  0.4937 -1.1674
 2258TIP3   OH228408   6.400   5.081   5.996  0.0913 -0.0820 -0.2780
 2258TIP3    H128409   6.440   5.156   5.952 -0.2485 -0.2820 -0.9245
 2258TIP3    H228410   6.361   5.118   6.075 -2.0367  0.8192 -1.7013
 2259TIP3   OH228411   5.871   3.131   0.583  0.6544  0.2876  0.2664
 2259TIP3    H128412   5.941   3.067   0.566  0.3746  0.0780 -0.1043
 2259TIP3    H228413   5.822   3.093   0.656  0.3696 -0.0160 -0.0834
 2260TIP3   OH228414   6.084   7.053   6.497 -0.4654 -0.1461  0.4666
 2260TIP3    H128415   6.059   7.145   6.489 -1.0462 -0.4973 -2.2751
 2260TIP3    H228416   6.020   7.006   6.443 -0.0412 -2.1360  1.6572
 2261TIP3   OH228417   4.750   6.606   8.001 -0.1521 -0.0479  0.3206
 2261TIP3    H128418   4.687   6.534   7.993 -0.8407  0.4718  0.9996
 2261TIP3    H228419   4.752   6.647   7.915 -1.1995  0.3075  0.4573
 2262TIP3   OH228420   4.471   4.562   8.412 -0.4284 -0.1268  0.5409
 2262TIP3    H128421   4.559   4.596   8.425 -0.4062  0.1209 -0.2324
 2262TIP3    H228422   4.418   4.606   8.479 -0.2315  0.7616  0.1216
 2263TIP3   OH228423   5.244   4.407   5.652  0.1813  0.0637 -0.6936
 2263TIP3    H128424   5.217   4.492   5.616  0.6740  0.8473  0.7115
 2263TIP3    H228425   5.227   4.415   5.746  0.9390 -1.1165 -0.4472
 2264TIP3   OH228426   5.865   5.284   6.165  0.9879 -0.5715 -0.0392
 2264TIP3    H128427   5.852   5.343   6.091 -0.5489  1.1688  1.5593
 2264TIP3    H228428   5.934   5.224   6.137  2.0557  1.5144 -2.0002
 2265TIP3   OH228429   0.947   2.108   6.548  0.5585 -0.0266  0.0765
 2265TIP3    H128430   0.863   2.092   6.505  0.9960  0.0815 -0.8369
 2265TIP3    H228431   0.927   2.175   6.614 -0.2379 -0.6255  0.4615
 2266TIP3   OH228432   2.135   3.697   6.458  0.5258 -0.6108 -0.6990
 2266TIP3    H128433   2.148   3.606   6.484 -0.2787 -0.8050 -0.9624
 2266TIP3    H228434   2.146   3.747   6.539  1.5167 -0.8873 -0.6570
 2267TIP3   OH228435   4.370   6.670   7.487  0.8535 -0.1461 -0.1118
 2267TIP3    H128436   4.386   6.705   7.575  0.9972  1.9673 -0.9433
 2267TIP3    H228437   4.359   6.748   7.432  2.8720 -1.3975 -2.3746
 2268TIP3   OH228438   4.337   3.347   5.945  0.0125 -0.2452  0.0609
 2268TIP3    H128439   4.350   3.401   6.023  0.6050 -0.0788 -0.1517
 2268TIP3    H228440   4.423   3.309   5.927  0.5198  1.6961 -1.9772
 2269TIP3   OH228441   4.226   2.462   0.177  0.5279  0.0612 -0.1586
 2269TIP3    H128442   4.261   2.452   0.265  2.7375  1.3191 -0.8480
 2269TIP3    H228443   4.206   2.556   0.170 -0.7672 -0.2380 -0.6034
 2270TIP3   OH228444   1.060   5.147   7.891 -0.4231 -0.1321 -0.1470
 2270TIP3    H128445   1.041   5.075   7.831  0.6820 -1.0950  0.6317
 2270TIP3    H228446   0.974   5.179   7.918 -0.9280  0.4004 -2.3363
 2271TIP3   OH228447   4.380   4.585   6.815  0.0899 -0.5650 -0.2328
 2271TIP3    H128448   4.319   4.600   6.743  1.3531  0.2702 -1.1336
 2271TIP3    H228449   4.453   4.537   6.776  1.6880  1.5736  0.0472
 2272TIP3   OH228450   5.199   1.794   6.391  0.2402  0.3820 -0.1152
 2272TIP3    H128451   5.263   1.858   6.420 -0.4012  0.9955 -0.0389
 2272TIP3    H228452   5.248   1.712   6.384  1.0725  0.8896 -0.2629
 2273TIP3   OH228453   3.514   4.022   8.313  0.0855  1.0447  0.2494
 2273TIP3    H128454   3.469   4.052   8.234  1.3125  1.5463 -0.2883
 2273TIP3    H228455   3.452   3.964   8.356 -0.5376  0.6252 -1.1847
 2274TIP3   OH228456   2.143   5.060   6.689 -0.0632 -0.5266  0.2677
 2274TIP3    H128457   2.144   5.079   6.595 -1.6351 -0.5632  0.2296
 2274TIP3    H228458   2.099   4.975   6.696 -2.1701  0.6120  1.2158
 2275TIP3   OH228459   4.953   2.702   6.071 -0.1337  0.1062 -0.2417
 2275TIP3    H128460   4.964   2.780   6.017 -3.4868 -0.0163 -1.2168
 2275TIP3    H228461   4.996   2.632   6.021  0.5512  0.8146 -0.6474
 2276TIP3   OH228462   5.374   4.414   7.470 -0.4386  0.0393 -0.5516
 2276TIP3    H128463   5.352   4.507   7.459 -1.4616 -0.0209  0.8361
 2276TIP3    H228464   5.445   4.413   7.534  0.3407 -0.0705 -1.4136
 2277TIP3   OH228465   4.255   4.341   6.626 -0.1983 -0.2778  0.5102
 2277TIP3    H128466   4.317   4.350   6.554 -0.7734  1.4424  0.1839
 2277TIP3    H228467   4.206   4.262   6.605 -0.5250  0.3245 -1.1522
 2278TIP3   OH228468   4.446   5.552   6.257  0.2129  0.6383 -0.3193
 2278TIP3    H128469   4.497   5.627   6.227 -0.4017  1.5665  0.9528
 2278TIP3    H228470   4.386   5.587   6.321  1.1580 -1.2382  1.6594
 2279TIP3   OH228471   2.270   3.471   6.872 -0.0427  0.0218  0.5691
 2279TIP3    H128472   2.324   3.520   6.809 -0.2811  1.1105  1.2043
 2279TIP3    H228473   2.253   3.387   6.828  1.8792 -0.2171  0.2131
 2280TIP3   OH228474   4.359   3.786   6.101 -0.8240  0.3147 -0.2481
 2280TIP3    H128475   4.378   3.872   6.063 -1.2750  0.4069 -0.2730
 2280TIP3    H228476   4.275   3.761   6.062 -0.4967 -0.3218 -0.5541
 2281TIP3   OH228477   4.695   7.233   6.859 -0.1945 -0.4572  0.0404
 2281TIP3    H128478   4.613   7.271   6.828  1.4829  2.1901 -1.3079
 2281TIP3    H228479   4.720   7.170   6.791  0.2586  0.7116 -0.8835
 2282TIP3   OH228480   3.786   3.375   0.519 -0.4187 -0.4821  0.2124
 2282TIP3    H128481   3.758   3.351   0.607 -1.8431 -2.2511 -0.6990
 2282TIP3    H228482   3.822   3.463   0.529 -2.1576  0.0525  2.2668
 2283TIP3   OH228483   1.201   4.299   7.811 -0.3207 -0.4346  0.2762
 2283TIP3    H128484   1.161   4.385   7.799 -1.5782 -0.9882  0.3674
 2283TIP3    H228485   1.128   4.242   7.835  0.3714 -1.6880 -0.5193
 2284TIP3   OH228486   5.636   5.487   6.398  0.7706  0.0138  0.5528
 2284TIP3    H128487   5.651   5.539   6.477  0.6103  0.0447  0.5624
 2284TIP3    H228488   5.686   5.532   6.330  0.8161  0.0517  0.6108
 2285TIP3   OH228489   5.038   6.012   0.355 -0.1018 -0.2022  0.9066
 2285TIP3    H128490   5.119   5.966   0.332  0.5115  1.9243 -1.4393
 2285TIP3    H228491   5.066   6.083   0.413 -0.1059  1.0375 -0.5583
 2286TIP3   OH228492   4.932   5.565   6.516  0.0665  0.4347  0.1325
 2286TIP3    H128493   4.989   5.619   6.570 -0.5011  2.4742 -1.2517
 2286TIP3    H228494   4.988   5.533   6.445  0.0318  0.5243  0.0647
 2287TIP3   OH228495   4.327   5.141   7.737 -0.3289 -0.5495 -0.0466
 2287TIP3    H128496   4.401   5.122   7.679  0.0015  1.5058 -0.3273
 2287TIP3    H228497   4.368   5.170   7.819 -0.7857  2.2358 -0.7610
 2288TIP3   OH228498   3.824   4.829   6.393  0.9332 -0.2230  0.4968
 2288TIP3    H128499   3.868   4.744   6.396  1.4425  0.0152  0.0566
 2288TIP3    H228500   3.732   4.809   6.408  1.0188 -0.8823  0.1953
 2289TIP3   OH228501   6.930   5.298   7.251  0.6981  0.0678 -0.1798
 2289TIP3    H128502   6.976   5.288   7.335  2.7728  1.3446 -1.1263
 2289TIP3    H228503   6.999   5.297   7.186 -0.6752  1.6519 -1.7024
 2290TIP3   OH228504   4.017   3.942   0.090  0.0798 -0.4874 -0.1271
 2290TIP3    H128505   3.945   3.972   0.146  0.1646 -0.3039 -0.1138
 2290TIP3    H228506   4.096   3.976   0.133  0.2045 -1.0713  0.1022
 2291TIP3   OH228507   3.363   7.296   1.219  0.8871 -0.5131  0.1503
 2291TIP3    H128508   3.389   7.353   1.146  0.3138 -0.8635 -0.3307
 2291TIP3    H228509   3.359   7.209   1.181  0.7513 -0.7230  0.6435
 2292TIP3   OH228510   5.008   5.330   6.997 -0.1110  0.4367  0.3843
 2292TIP3    H128511   5.041   5.327   6.907  1.4945 -0.5516  0.9830
 2292TIP3    H228512   5.032   5.245   7.034  1.4236  1.7236  2.4771
 2293TIP3   OH228513   6.013   5.981   7.694 -0.1468  0.4712 -0.8064
 2293TIP3    H128514   5.997   5.910   7.632 -1.9354 -0.2588  0.4389
 2293TIP3    H228515   5.926   6.018   7.711  0.4743  1.4544  0.3307
 2294TIP3   OH228516   4.982   4.786   6.499 -0.1212  0.2678  0.5414
 2294TIP3    H128517   4.992   4.746   6.412 -2.8291 -0.6344  0.5823
 2294TIP3    H228518   4.995   4.879   6.485  1.4169 -0.0881 -0.4733
 2295TIP3   OH228519   4.555   3.931   8.182  0.0357 -0.0257 -0.6087
 2295TIP3    H128520   4.603   4.005   8.218 -0.7977  0.7719 -1.1316
 2295TIP3    H228521   4.520   3.886   8.259 -0.0850  0.5477 -0.3241
 2296TIP3   OH228522   4.557   3.186   5.958 -0.1775 -0.4905  0.2336
 2296TIP3    H128523   4.499   3.111   5.975 -0.3757 -0.0616  1.5073
 2296TIP3    H228524   4.634   3.169   6.012  1.0695 -1.2335 -1.7284
 2297TIP3   OH228525   5.059   5.022   0.191 -0.0986 -0.1677 -0.7081
 2297TIP3    H128526   5.089   5.057   0.107 -0.0925 -1.4654 -1.2496
 2297TIP3    H228527   5.139   5.010   0.242  0.0626 -0.9929 -1.1430
 2298TIP3   OH228528   4.712   3.446   1.294 -0.7724  0.6324 -0.3052
 2298TIP3    H128529   4.755   3.457   1.209  1.2573  1.5358  0.8058
 2298TIP3    H228530   4.674   3.532   1.313 -1.6341  0.3001 -0.5113
 2299TIP3   OH228531   5.767   3.904   6.854  0.1724  0.0076 -0.2153
 2299TIP3    H128532   5.849   3.877   6.894  0.8703  0.6767 -1.1979
 2299TIP3    H228533   5.782   3.895   6.760 -0.1254  2.2741 -0.5010
 2300TIP3   OH228534   3.731   1.691   6.775 -0.4868  0.0919  0.4938
 2300TIP3    H128535   3.682   1.753   6.721 -1.5400 -0.6302  0.6084
 2300TIP3    H228536   3.712   1.605   6.737 -1.0577 -0.4017  1.8618
 2301TIP3   OH228537   3.228   5.282   6.395 -0.4516  0.5626  0.0629
 2301TIP3    H128538   3.224   5.188   6.379  0.6949  0.8557 -2.0460
 2301TIP3    H228539   3.150   5.317   6.353 -0.0306  0.7504 -0.5589
 2302TIP3   OH228540   4.700   3.147   7.845  0.4554  0.4289 -0.6324
 2302TIP3    H128541   4.619   3.097   7.846  0.5502  0.2493 -1.6465
 2302TIP3    H228542   4.726   3.153   7.937 -0.3531 -0.0796 -0.3701
 2303TIP3   OH228543   6.750   3.148   7.169 -0.2221 -1.3891 -0.1178
 2303TIP3    H128544   6.808   3.215   7.203 -1.1101 -1.3618  1.4061
 2303TIP3    H228545   6.793   3.116   7.090  1.0580 -0.2561  0.1088
 2304TIP3   OH228546   4.605   3.038   7.083 -0.3285  0.2043  0.3796
 2304TIP3    H128547   4.636   3.100   7.017  0.7710  0.3262  0.9879
 2304TIP3    H228548   4.685   3.008   7.127 -0.9780 -0.4538  1.1353
 2305TIP3   OH228549   6.776   4.309   0.077  0.2442 -0.2591  0.4756
 2305TIP3    H128550   6.720   4.238   0.046 -0.1470 -0.0479  0.6952
 2305TIP3    H228551   6.723   4.355   0.142 -0.0565  1.1370 -0.7322
 2306TIP3   OH228552   6.674   5.495   0.048 -0.1372  1.2629  0.3449
 2306TIP3    H128553   6.765   5.521   0.058 -0.3860  1.9990  0.6724
 2306TIP3    H228554   6.673   5.441  -0.032  0.8164  0.1382  1.0698
 2307TIP3   OH228555   4.288   3.657   6.731  0.1364 -0.3562 -0.6219
 2307TIP3    H128556   4.245   3.738   6.704  0.4447 -0.0477 -0.2028
 2307TIP3    H228557   4.293   3.664   6.827  1.5062 -0.1857 -0.6952
 2308TIP3   OH228558   4.857   4.360   2.382  0.3575 -0.2112  0.2488
 2308TIP3    H128559   4.817   4.435   2.427  1.6564 -0.2085  1.4306
 2308TIP3    H228560   4.833   4.285   2.437  0.7542 -0.3995  0.1614
 2309TIP3   OH228561   5.777   5.104   0.724 -0.1907 -0.0935 -0.3374
 2309TIP3    H128562   5.779   5.032   0.788 -0.9843  0.5417  0.4038
 2309TIP3    H228563   5.805   5.063   0.642  1.0098 -0.8848  0.4437
 2310TIP3   OH228564   0.446   6.694   1.126 -0.6336  0.6059 -0.3403
 2310TIP3    H128565   0.427   6.772   1.178  2.8397  0.8525  0.7219
 2310TIP3    H228566   0.496   6.638   1.185 -0.5701 -1.1313 -2.0013
 2311TIP3   OH228567   3.541   0.975   7.992  0.2370  0.3824 -0.4133
 2311TIP3    H128568   3.504   0.887   7.992  1.3263 -0.0864 -0.2834
 2311TIP3    H228569   3.594   0.978   7.912 -0.6445  1.2935 -0.9786
 2312TIP3   OH228570   5.428   0.304   6.614  0.0626 -0.1217  0.4715
 2312TIP3    H128571   5.430   0.400   6.618 -0.8012 -0.1396  1.5750
 2312TIP3    H228572   5.518   0.277   6.633  0.4822  0.4825 -0.5913
 2313TIP3   OH228573   7.291   6.463   7.056  0.1372 -0.1510 -0.2034
 2313TIP3    H128574   7.269   6.376   7.023 -1.5197  0.6047 -1.1363
 2313TIP3    H228575   7.316   6.513   6.978  0.9938  0.2590  0.3174
 2314TIP3   OH228576   1.155   0.061   6.358 -0.3206  0.0038  0.3731
 2314TIP3    H128577   1.081   0.120   6.342 -0.1544  0.1011 -0.0423
 2314TIP3    H228578   1.115  -0.019   6.391 -0.5942  0.1372  0.3687
 2315TIP3   OH228579   6.745   5.154   6.988  0.0473 -0.1612  0.3678
 2315TIP3    H128580   6.736   5.140   6.894  0.4719 -0.2994  0.3467
 2315TIP3    H228581   6.668   5.111   7.026  0.0864 -0.4565  0.1156
 2316TIP3   OH228582   2.008   4.640   6.966 -0.0219 -0.2031 -0.0248
 2316TIP3    H128583   2.006   4.675   6.877 -0.9913  0.1613  0.1410
 2316TIP3    H228584   1.953   4.699   7.017 -0.2176 -0.9394  0.6273
 2317TIP3   OH228585   4.321   5.642   7.814 -0.1019  0.8109  0.1711
 2317TIP3    H128586   4.356   5.641   7.725 -1.9332  2.2972 -0.6228
 2317TIP3    H228587   4.367   5.714   7.858  1.7804 -0.7883  0.8818
 2318TIP3   OH228588   6.004   2.549   6.927 -0.3437 -0.2541 -0.1219
 2318TIP3    H128589   6.001   2.623   6.866  0.7225  1.2247  1.5677
 2318TIP3    H228590   6.066   2.488   6.888 -0.0686  0.4381 -0.7838
 2319TIP3   OH228591   3.406   3.452   0.762 -0.1481  0.2447  0.2022
 2319TIP3    H128592   3.373   3.492   0.843 -4.6652 -0.1169 -1.3660
 2319TIP3    H228593   3.442   3.367   0.791 -0.3877  0.7261  1.9943
 2320TIP3   OH228594   0.199   4.301   7.516  0.0704 -0.2256 -0.4140
 2320TIP3    H128595   0.186   4.363   7.445 -0.0730 -0.3571 -0.5019
 2320TIP3    H228596   0.249   4.229   7.477  1.6748  0.5832  0.0771
 2321TIP3   OH228597   6.628   3.067   6.627  0.3651  0.3816  0.0246
 2321TIP3    H128598   6.675   2.985   6.611  1.3788  0.4561  2.3696
 2321TIP3    H228599   6.559   3.043   6.688  1.2802  1.4334  1.4976
 2322TIP3   OH228600   5.106   3.677   0.316  0.1975  0.2539 -0.5236
 2322TIP3    H128601   5.151   3.728   0.249  2.3058 -1.1888 -0.2854
 2322TIP3    H228602   5.177   3.638   0.367 -1.2948  2.9294  3.8772
 2323TIP3   OH228603   4.311   0.297   7.966 -0.1334  0.1874 -0.0979
 2323TIP3    H128604   4.265   0.294   7.882  0.9557  1.9377 -0.7967
 2323TIP3    H228605   4.285   0.217   8.011 -3.9431  1.1543 -0.3925
 2324TIP3   OH228606   5.637   3.557   8.066 -0.3877  0.0015 -0.0159
 2324TIP3    H128607   5.598   3.630   8.113 -0.0959  0.9887 -1.2581
 2324TIP3    H228608   5.718   3.593   8.029  0.1823 -1.1868  0.0560
 2325TIP3   OH228609   7.187   3.304   6.377 -0.4844  1.3586 -0.2579
 2325TIP3    H128610   7.177   3.313   6.471 -0.8328  0.7191 -0.2341
 2325TIP3    H228611   7.264   3.358   6.356  0.4813  0.3481  0.6041
 2326TIP3   OH228612   0.625   4.199   7.837  0.2038 -0.1370  0.4400
 2326TIP3    H128613   0.699   4.238   7.884  0.4120 -0.0081  0.0141
 2326TIP3    H228614   0.564   4.172   7.905  0.4469  0.1583  0.7767
 2327TIP3   OH228615   4.871   6.826   0.615 -0.2731  0.1101 -0.0497
 2327TIP3    H128616   4.860   6.784   0.530 -0.0876 -1.2029  0.5568
 2327TIP3    H228617   4.896   6.755   0.674  0.8129  1.1967  0.8494
 2328TIP3   OH228618   5.653   1.024   8.005 -0.5227  0.0598  0.1924
 2328TIP3    H128619   5.655   1.004   7.911  0.0537 -0.2103  0.2648
 2328TIP3    H228620   5.594   1.100   8.012 -0.5768  0.0711 -0.3832
 2329TIP3   OH228621   3.089   5.465   0.347  0.0222  0.0820  0.4399
 2329TIP3    H128622   3.066   5.548   0.389 -0.7811 -0.2095  0.6036
 2329TIP3    H228623   3.013   5.408   0.365  1.0825 -1.0644  1.3665
 2330TIP3   OH228624   1.854   3.283   7.108 -0.6152 -0.5470 -0.2897
 2330TIP3    H128625   1.827   3.199   7.145  0.6499 -1.1869 -0.7769
 2330TIP3    H228626   1.901   3.260   7.028  1.2692  0.4961  0.4743
 2331TIP3   OH228627   6.402   3.873   7.533 -0.2682  0.6100  0.0672
 2331TIP3    H128628   6.472   3.881   7.469 -1.3402 -1.4796 -1.4330
 2331TIP3    H228629   6.322   3.898   7.486 -1.4412 -3.4752 -0.2994
 2332TIP3   OH228630   6.544   5.531   7.605 -0.2790 -0.2677 -0.0387
 2332TIP3    H128631   6.481   5.602   7.603 -1.2186 -1.0751  0.3783
 2332TIP3    H228632   6.499   5.460   7.650 -0.0371 -1.7578 -2.0544
 2333TIP3   OH228633   4.744   5.382   6.744  0.9998  0.2391  0.1077
 2333TIP3    H128634   4.837   5.389   6.723  1.2740  1.8423  1.7442
 2333TIP3    H228635   4.724   5.289   6.735  2.8541 -0.1654  0.1287
 2334TIP3   OH228636   0.229   6.035   8.295  0.0404  0.4618  0.1178
 2334TIP3    H128637   0.296   5.977   8.260 -0.1129  0.6520 -0.5026
 2334TIP3    H228638   0.233   6.112   8.238 -0.7411  0.4439  0.0375
 2335TIP3   OH228639   5.202   3.879   6.847 -0.2028 -0.2595 -0.1379
 2335TIP3    H128640   5.173   3.969   6.833 -0.4479 -0.3093  0.0379
 2335TIP3    H228641   5.297   3.884   6.848 -0.1788  0.6377  3.7243
 2336TIP3   OH228642   6.592   6.184   1.161  0.5315 -0.1920 -0.3028
 2336TIP3    H128643   6.623   6.275   1.168  0.5941 -0.1531 -1.0733
 2336TIP3    H228644   6.508   6.191   1.117  0.6020 -0.5230 -0.4904
 2337TIP3   OH228645   5.338   6.514   6.516 -0.3447 -0.4700 -0.1124
 2337TIP3    H128646   5.355   6.465   6.435 -0.7659 -1.0620  0.1494
 2337TIP3    H228647   5.251   6.552   6.503  0.5192  1.3228 -0.8495
 2338TIP3   OH228648   5.851   5.097   7.494 -0.0885 -0.0734  0.1784
 2338TIP3    H128649   5.886   5.022   7.541  1.3795 -0.8165 -1.9890
 2338TIP3    H228650   5.769   5.065   7.456 -2.1304  1.0253  3.5018
 2339TIP3   OH228651   0.889   6.641   7.927 -0.1126  0.1005  0.3820
 2339TIP3    H128652   0.898   6.711   7.862  2.5701  1.3163  1.9971
 2339TIP3    H228653   0.813   6.667   7.979  0.0295  1.0994  0.1072
 2340TIP3   OH228654   6.773   6.151   8.164 -0.2387 -0.3565 -0.2276
 2340TIP3    H128655   6.824   6.078   8.200  1.2937  1.3972  1.2282
 2340TIP3    H228656   6.813   6.168   8.079  1.6758  1.0138  0.9069
 2341TIP3   OH228657   6.742   6.676   0.077 -0.3721 -0.5924  0.1905
 2341TIP3    H128658   6.762   6.583   0.069 -1.0215 -0.7109 -0.0665
 2341TIP3    H228659   6.824   6.716   0.107  0.5976 -0.9158 -1.9027
 2342TIP3   OH228660   6.411   4.246   8.303  0.7551  0.2434 -0.0957
 2342TIP3    H128661   6.445   4.282   8.221 -3.3367 -0.2920 -2.1961
 2342TIP3    H228662   6.355   4.315   8.339  0.6317 -0.4085  0.9835
 2343TIP3   OH228663   6.771   4.516   6.785  0.4428 -0.1584 -0.1634
 2343TIP3    H128664   6.822   4.451   6.835  1.6935  1.5825  0.8698
 2343TIP3    H228665   6.830   4.545   6.716 -0.6205 -1.1493 -1.4967
 2344TIP3   OH228666   0.062   4.182   6.222 -0.7182  0.2407  0.2875
 2344TIP3    H128667   0.068   4.224   6.136 -0.7319  1.2113  0.7550
 2344TIP3    H228668   0.107   4.242   6.281  1.2741 -1.5019  0.5869
 2345TIP3   OH228669   4.029   4.731   7.370 -0.5288  0.3138  0.1726
 2345TIP3    H128670   4.033   4.654   7.313 -1.7564  1.0879 -1.0133
 2345TIP3    H228671   4.117   4.741   7.404 -0.4472 -1.8598  0.6724
 2346TIP3   OH228672   3.541   5.257   7.776  0.2801  0.2461  0.6499
 2346TIP3    H128673   3.562   5.306   7.697 -1.7145  1.3584  0.7741
 2346TIP3    H228674   3.617   5.200   7.790  1.8067  1.9121 -0.5835
 2347TIP3   OH228675   4.262   6.620   7.874  0.6553 -0.0457  0.5002
 2347TIP3    H128676   4.245   6.665   7.956  0.6248 -1.1367  1.1065
 2347TIP3    H228677   4.333   6.669   7.833  1.7614 -0.4473  1.9363
 2348TIP3   OH228678   0.553   0.055   7.232 -0.2440  0.4069  0.2400
 2348TIP3    H128679   0.535   0.103   7.313  0.7659 -0.1009  0.7838
 2348TIP3    H228680   0.468   0.045   7.190 -0.7411  0.9114  1.1145
 2349TIP3   OH228681   5.336   6.251   7.856  0.1095 -0.1398  0.3355
 2349TIP3    H128682   5.311   6.291   7.773 -0.0945  1.3639  1.1133
 2349TIP3    H228683   5.320   6.319   7.922  2.0936 -0.6421  1.3756
 2350TIP3   OH228684   6.198   6.768   7.883  0.4302  0.2868 -0.1113
 2350TIP3    H128685   6.284   6.801   7.910  1.2626 -0.8862 -1.2478
 2350TIP3    H228686   6.159   6.840   7.835  0.2320  1.2796  1.4924
 2351TIP3   OH228687   4.518   5.362   7.861 -0.2024 -0.0842 -0.6362
 2351TIP3    H128688   4.574   5.295   7.900  0.0091  0.3735 -0.1413
 2351TIP3    H228689   4.571   5.442   7.863 -0.4309  0.0885 -1.2722
 2352TIP3   OH228690   6.966   4.404   6.610 -0.9050  0.2648 -0.1359
 2352TIP3    H128691   7.047   4.425   6.562 -1.1842 -0.1587 -0.8053
 2352TIP3    H228692   6.901   4.390   6.541 -1.0867 -1.3281  0.3474
 2353TIP3   OH228693   2.860   3.755   7.029 -0.3325  0.0453  0.3099
 2353TIP3    H128694   2.898   3.834   7.067 -0.8225  0.1179  0.6470
 2353TIP3    H228695   2.933   3.714   6.983  0.5711 -0.6790  2.3423
 2354TIP3   OH228696   3.713   5.451   8.082  0.3921  0.2964  0.0242
 2354TIP3    H128697   3.788   5.500   8.117  0.3518 -1.4371  2.6183
 2354TIP3    H228698   3.752   5.391   8.018  1.3564 -1.2283  2.0147
 2355TIP3   OH228699   2.128   6.324   7.366 -0.2562  0.4928 -0.2146
 2355TIP3    H128700   2.136   6.328   7.462  0.0540  1.6271 -0.2835
 2355TIP3    H228701   2.068   6.395   7.344 -0.9884 -0.2890 -0.8042
 2356TIP3   OH228702   4.226   6.684   7.136  0.4835 -0.3124  0.0026
 2356TIP3    H128703   4.264   6.700   7.050  1.0560  1.1981  0.5315
 2356TIP3    H228704   4.139   6.647   7.117  0.2108  0.9184 -1.2302
 2357TIP3   OH228705   0.421   2.407   1.984 -0.0662 -0.1352 -0.1072
 2357TIP3    H128706   0.516   2.402   1.998 -0.0644 -0.8892 -0.3853
 2357TIP3    H228707   0.393   2.483   2.036  0.3889 -1.1284  1.6103
 2358TIP3   OH228708   5.534   4.858   6.854  0.2736 -0.2396  0.2123
 2358TIP3    H128709   5.602   4.826   6.794 -0.2890 -1.1404  0.0453
 2358TIP3    H228710   5.452   4.846   6.806  0.0168  1.0835  0.3168
 2359TIP3   OH228711   5.325   2.997   7.122 -0.2924 -0.3315  0.0101
 2359TIP3    H128712   5.368   2.930   7.174 -0.5811 -0.8877 -0.4654
 2359TIP3    H228713   5.398   3.049   7.085 -0.1067  0.5588  1.5871
 2360TIP3   OH228714   1.964   6.007   7.448 -0.0387  0.0287 -0.0869
 2360TIP3    H128715   1.888   6.052   7.412  0.7386  1.8198  0.4475
 2360TIP3    H228716   1.930   5.962   7.526 -0.6443  0.4454 -0.1053
 2361TIP3   OH228717   4.409   2.915   2.095 -0.1145 -0.1738  0.9425
 2361TIP3    H128718   4.424   2.829   2.136  0.2929 -0.3484  0.4299
 2361TIP3    H228719   4.321   2.940   2.123 -0.6396 -1.2303  0.2716
 2362TIP3   OH228720   4.815   5.149   0.309 -0.4469 -0.1067 -0.2512
 2362TIP3    H128721   4.885   5.095   0.273 -0.2618  0.8749 -1.3609
 2362TIP3    H228722   4.860   5.215   0.361 -0.5981 -0.0001 -0.2563
 2363TIP3   OH228723   0.167   2.788   7.107  0.5677  0.3025  0.4130
 2363TIP3    H128724   0.075   2.798   7.084  0.2645 -1.0392  1.0131
 2363TIP3    H228725   0.189   2.698   7.083  2.8032  1.7194 -3.3216
 2364TIP3   OH228726   7.039   4.715   6.222  0.2844 -0.5125 -0.0215
 2364TIP3    H128727   7.076   4.627   6.231  0.9457 -0.4047 -1.5109
 2364TIP3    H228728   7.092   4.756   6.154 -1.4210  0.2759 -0.9211
 2365TIP3   OH228729   5.600   6.454   0.570 -0.4976  0.0719 -1.0461
 2365TIP3    H128730   5.634   6.526   0.517  1.1435  0.5164  0.5115
 2365TIP3    H228731   5.564   6.497   0.648  0.4524 -0.7376 -0.1259
 2366TIP3   OH228732   0.420   4.886   8.341 -0.0052 -0.0383  0.3528
 2366TIP3    H128733   0.386   4.838   8.265 -0.2613 -1.2558  1.2261
 2366TIP3    H228734   0.364   4.859   8.414  2.2360 -1.4038  1.6471
 2367TIP3   OH228735   5.555   4.743   0.386  0.0708 -0.1679  0.5870
 2367TIP3    H128736   5.486   4.690   0.426  0.2492 -0.5391  0.3990
 2367TIP3    H228737   5.593   4.688   0.319  1.1440 -0.2932  1.2794
 2368TIP3   OH228738   6.480   4.210   7.066  0.1406  0.0509 -0.5841
 2368TIP3    H128739   6.398   4.251   7.094  0.1043 -0.1110 -0.4485
 2368TIP3    H228740   6.526   4.191   7.148  0.5839  0.6936 -0.6816
 2369TIP3   OH228741   0.026   3.599   5.929  0.2620 -0.4631 -1.1307
 2369TIP3    H128742  -0.055   3.626   5.885 -0.7613  0.3011  1.1063
 2369TIP3    H228743   0.021   3.504   5.932 -1.0394 -0.3802 -0.1812
 2370TIP3   OH228744   2.510   5.993   6.763  0.3300  0.5997 -0.0515
 2370TIP3    H128745   2.587   6.043   6.735  0.0671  0.9160 -0.2187
 2370TIP3    H228746   2.444   6.060   6.784  0.2436  0.3443  0.5121
 2371TIP3   OH228747   5.035   5.599   7.058 -0.1778  0.3019  0.1054
 2371TIP3    H128748   4.967   5.621   7.121  0.0951  0.4019  0.3666
 2371TIP3    H228749   5.009   5.513   7.023 -0.5246  0.4181  0.0788
 2372TIP3   OH228750   0.365   4.846   7.430 -0.2087  0.2954  0.3223
 2372TIP3    H128751   0.355   4.767   7.483  0.9360  0.7393  1.2235
 2372TIP3    H228752   0.280   4.890   7.437 -1.4665 -1.6598 -1.5860
 2373TIP3   OH228753   5.926   4.773   6.128 -0.2585 -0.0764  0.3585
 2373TIP3    H128754   5.967   4.859   6.135  1.6873 -1.1522  3.2657
 2373TIP3    H228755   5.962   4.736   6.048 -1.3319  1.8917 -1.0728
 2374TIP3   OH228756   5.688   3.712   8.324 -0.1831 -0.1935  0.4677
 2374TIP3    H128757   5.614   3.652   8.329  0.3622 -0.8842  0.4382
 2374TIP3    H228758   5.705   3.737   8.415 -1.8547  1.7325  0.2766
 2375TIP3   OH228759   0.604   5.504   7.975 -0.8189 -0.2545 -0.2229
 2375TIP3    H128760   0.550   5.561   7.920 -0.1606  0.8106  0.2274
 2375TIP3    H228761   0.693   5.520   7.945 -0.6990 -1.6723 -0.6486
 2376TIP3   OH228762   5.232   5.644   6.865  0.0141  0.1091 -0.0044
 2376TIP3    H128763   5.214   5.574   6.802  0.7770 -2.6517  2.7284
 2376TIP3    H228764   5.146   5.666   6.901 -0.5004  2.0428 -2.2005
 2377TIP3   OH228765   7.338   4.023   6.932  0.6855  0.3559 -0.1240
 2377TIP3    H128766   7.251   3.985   6.921  1.5611 -1.7423 -0.0389
 2377TIP3    H228767   7.384   4.003   6.851  1.0156  1.7518 -0.3025
 2378TIP3   OH228768   6.380   1.031   7.448  0.6737 -0.0441 -0.0857
 2378TIP3    H128769   6.439   1.024   7.373  0.6857  0.5834 -0.1343
 2378TIP3    H228770   6.405   0.958   7.505  1.4842  0.2040 -0.1126
 2379TIP3   OH228771   4.922   0.136   1.191 -0.1273  0.6898  0.3025
 2379TIP3    H128772   4.938   0.165   1.280  0.9384 -0.2199  0.4224
 2379TIP3    H228773   4.828   0.118   1.187 -0.0828  0.1979  1.3979
 2380TIP3   OH228774   5.876   0.462   1.173  0.0114  0.0023 -0.0465
 2380TIP3    H128775   5.939   0.518   1.219  0.8261 -0.6609 -0.3444
 2380TIP3    H228776   5.815   0.524   1.132  1.8732  0.7731 -1.7664
 2381TIP3   OH228777   2.758   5.065   0.047 -0.1071  0.5195  0.2961
 2381TIP3    H128778   2.761   5.026  -0.041  0.7325  0.3624  0.3928
 2381TIP3    H228779   2.669   5.046   0.078 -0.6367  1.1842 -0.7888
 2382TIP3   OH228780   0.357   4.881   0.695  0.6640  0.1903 -0.2906
 2382TIP3    H128781   0.346   4.958   0.639  1.3844 -0.2178 -1.0058
 2382TIP3    H228782   0.423   4.828   0.650  1.5309  0.0354  1.1425
 2383TIP3   OH228783   6.170   3.905   7.016 -0.2990 -0.1987  0.5283
 2383TIP3    H128784   6.085   3.861   7.007 -1.1558  1.7157 -1.0344
 2383TIP3    H228785   6.160   3.987   6.968  2.0436  0.6381  1.4030
 2384TIP3   OH228786   1.583   6.136   7.700  0.0072 -0.0708 -0.9161
 2384TIP3    H128787   1.565   6.199   7.631 -0.7499  0.9295  0.1629
 2384TIP3    H228788   1.575   6.186   7.781  2.4411 -0.8473 -0.1373
 2385TIP3   OH228789   4.885   3.204   7.088  0.4014 -0.7265  0.0737
 2385TIP3    H128790   4.955   3.141   7.074 -0.9305 -2.4368  0.8522
 2385TIP3    H228791   4.838   3.206   7.005  2.3119  1.6803 -1.0028
 2386TIP3   OH228792   4.752   4.328   6.835  0.3802 -0.0430  0.5664
 2386TIP3    H128793   4.770   4.279   6.755 -0.6787 -0.0706  0.3278
 2386TIP3    H228794   4.711   4.409   6.804 -2.4242 -1.1595  1.1550
 2387TIP3   OH228795   1.978   6.767   0.884  0.2032  0.8001  0.1142
 2387TIP3    H128796   2.047   6.707   0.854  0.5408  0.6420  1.1846
 2387TIP3    H228797   1.966   6.745   0.976  0.7992  2.8220  0.6936
 2388TIP3   OH228798   6.049   5.023   6.103 -0.1225  0.0684 -0.7546
 2388TIP3    H128799   6.059   5.035   6.008  1.2976  0.7963 -0.5281
 2388TIP3    H228800   6.123   5.070   6.141 -0.2436 -0.8845  0.6898
 2389TIP3   OH228801   2.783   3.160   0.087  0.5093 -0.0407 -0.2702
 2389TIP3    H128802   2.815   3.119   0.007  0.0499 -1.3276  0.1992
 2389TIP3    H228803   2.783   3.089   0.152 -0.2614  0.7036  0.5556
 2390TIP3   OH228804   5.712   5.780   7.636  0.2392  0.3908 -0.3269
 2390TIP3    H128805   5.669   5.695   7.647 -0.2379  0.7277  0.4644
 2390TIP3    H228806   5.640   5.841   7.622  0.5382  0.7837 -0.1375
 2391TIP3   OH228807   6.096   2.813   7.087 -0.2810 -0.0515 -0.1058
 2391TIP3    H128808   6.135   2.876   7.147 -1.5109  0.8633 -0.2668
 2391TIP3    H228809   6.126   2.727   7.119  0.6745  0.5494  0.6267
 2392TIP3   OH228810   5.991   0.327   6.625  0.3913  0.0459 -0.0545
 2392TIP3    H128811   5.970   0.274   6.549 -0.6956 -0.9803  0.9466
 2392TIP3    H228812   5.915   0.383   6.639  1.5065  1.8995 -1.0768
 2393TIP3   OH228813   5.874   4.516   7.817 -0.4011 -0.0570 -0.0747
 2393TIP3    H128814   5.873   4.456   7.743 -1.3372  0.8122 -0.7779
 2393TIP3    H228815   5.811   4.479   7.879  0.0145 -0.5145  0.0788
 2394TIP3   OH228816   0.761   5.276   7.815  0.4338  0.4414  0.0529
 2394TIP3    H128817   0.691   5.301   7.754 -1.5354  1.3931  2.6247
 2394TIP3    H228818   0.828   5.343   7.804  0.9728 -0.4377 -2.3872
 2395TIP3   OH228819   0.338   3.371   7.210  0.6768  0.5798  0.1519
 2395TIP3    H128820   0.315   3.381   7.118 -0.8744 -0.6445  0.3978
 2395TIP3    H228821   0.430   3.399   7.214  1.6988 -2.1497 -2.3094
 2396TIP3   OH228822   5.394   3.385   8.222  0.0141 -0.3135 -0.5720
 2396TIP3    H128823   5.329   3.349   8.161 -1.0121 -0.0805  0.3647
 2396TIP3    H228824   5.380   3.480   8.218  0.6242 -0.2317 -0.7300
 2397TIP3   OH228825   3.072   2.880   8.223  0.1403  0.1043  0.4556
 2397TIP3    H128826   3.091   2.847   8.311 -0.6988 -0.1232  0.5584
 2397TIP3    H228827   3.005   2.821   8.190 -0.1968  0.7337  0.0111
 2398TIP3   OH228828   3.568   5.040   8.408  0.6215 -0.0326 -0.2113
 2398TIP3    H128829   3.485   5.027   8.362  1.0099 -3.0104 -0.1646
 2398TIP3    H228830   3.625   5.083   8.344 -0.7353  1.4482 -0.4456
 2399TIP3   OH228831   4.174   1.731   7.824 -0.6400 -0.0663  0.4204
 2399TIP3    H128832   4.143   1.732   7.915  0.6653 -2.5662  0.9457
 2399TIP3    H228833   4.214   1.817   7.811 -0.1964  0.0568  2.4439
 2400TIP3   OH228834   4.577   3.070   1.177 -0.3714 -0.5195  0.2947
 2400TIP3    H128835   4.567   3.152   1.129  0.1103  0.2624  1.4994
 2400TIP3    H228836   4.594   3.097   1.267  0.7932 -1.9292  0.5248
 2401TIP3   OH228837   2.053   4.461   1.709 -0.0905 -0.2230  0.7226
 2401TIP3    H128838   2.008   4.433   1.629 -0.9386  0.4802  0.9466
 2401TIP3    H228839   2.127   4.514   1.678 -1.1414  1.0915  0.4372
 2402TIP3   OH228840   6.298   3.410   8.205 -0.2858 -0.3223  0.6266
 2402TIP3    H128841   6.324   3.318   8.202  2.3982  0.2832  3.0944
 2402TIP3    H228842   6.205   3.408   8.228 -1.1708 -2.4365 -2.8204
 2403TIP3   OH228843   5.564   4.805   6.323  0.3899  0.6003  0.1845
 2403TIP3    H128844   5.559   4.736   6.257 -0.6999  0.8598 -0.0068
 2403TIP3    H228845   5.652   4.796   6.359  0.3708 -0.7101 -0.0442
 2404TIP3   OH228846   6.784   6.229   7.565 -0.0080  0.4236 -0.0617
 2404TIP3    H128847   6.796   6.300   7.628  0.5754  2.0331 -1.9327
 2404TIP3    H228848   6.695   6.197   7.580  0.5822 -0.1658  2.4844
 2405TIP3   OH228849   2.846   3.944   8.154 -1.0132  0.0059  0.0851
 2405TIP3    H128850   2.783   4.015   8.164  0.4010  1.5967 -1.9137
 2405TIP3    H228851   2.907   3.975   8.087  1.5353 -1.7448  1.4927
 2406TIP3   OH228852   0.491   4.463   8.339  0.1276  0.2574 -0.0209
 2406TIP3    H128853   0.408   4.501   8.310 -0.4179 -1.4175 -0.6954
 2406TIP3    H228854   0.544   4.459   8.259  1.0160  1.6343  0.4680
 2407TIP3   OH228855   1.138   7.184   8.403  0.7946 -0.1831  0.1874
 2407TIP3    H128856   1.204   7.129   8.362 -0.6382 -2.5091  0.9103
 2407TIP3    H228857   1.125   7.146   8.490  0.4198  1.8604  1.0631
 2408TIP3   OH228858   4.728   1.590   8.174  0.1662  0.0828 -0.3602
 2408TIP3    H128859   4.694   1.510   8.134 -1.0450  0.6291 -0.4562
 2408TIP3    H228860   4.661   1.656   8.156  0.2354  0.6658  1.3942
 2409TIP3   OH228861   3.661   5.117   6.716 -0.0926 -0.0503  0.6844
 2409TIP3    H128862   3.711   5.039   6.740 -0.4259 -0.3396  0.4311
 2409TIP3    H228863   3.594   5.125   6.783 -0.4281 -0.3146  0.3764
 2410TIP3   OH228864   1.353   6.789   1.210  0.1698 -0.1103 -0.0520
 2410TIP3    H128865   1.437   6.794   1.256  0.1857 -1.5871  0.1259
 2410TIP3    H228866   1.372   6.734   1.133 -0.0196  1.7464 -1.4473
 2411TIP3   OH228867   0.077   1.658   6.223 -0.0046 -0.0151  0.3822
 2411TIP3    H128868   0.133   1.614   6.286 -0.3287 -0.4834  0.3495
 2411TIP3    H228869  -0.003   1.677   6.272  0.5692  1.6016  0.7294
 2412TIP3   OH228870   7.067   4.797   0.683  0.0047  0.9980 -0.1417
 2412TIP3    H128871   6.983   4.768   0.719  1.1429 -1.9270  0.2697
 2412TIP3    H228872   7.069   4.761   0.594  1.5963 -0.5473  0.4946
 2413TIP3   OH228873   0.512   0.793   1.000 -0.1705 -0.1206  0.5271
 2413TIP3    H128874   0.458   0.862   1.037  0.5240  0.4081  0.5462
 2413TIP3    H228875   0.449   0.730   0.965 -0.8124 -0.0249  1.4950
 2414TIP3   OH228876   2.983   4.182   6.709  0.5261 -0.1001  0.2284
 2414TIP3    H128877   2.963   4.214   6.621 -0.5429 -3.0916 -0.6747
 2414TIP3    H228878   2.950   4.250   6.768 -1.8303  0.4029 -1.6103
 2415TIP3   OH228879   2.637   4.542   1.716 -0.1776 -0.3748  0.1338
 2415TIP3    H128880   2.662   4.483   1.645  3.1743  0.3928  0.5737
 2415TIP3    H228881   2.616   4.625   1.672  1.5185 -0.0101 -0.0163
 2416TIP3   OH228882   5.528   5.764   8.264 -0.3564 -0.3222 -0.6267
 2416TIP3    H128883   5.549   5.748   8.355  1.4617 -1.5438 -1.2403
 2416TIP3    H228884   5.487   5.683   8.233  1.3425 -0.8653 -1.5411
 2417TIP3   OH228885   4.439   5.991   0.701  0.2360  0.5118 -0.3101
 2417TIP3    H128886   4.487   6.009   0.620  0.7616 -0.0375 -0.1258
 2417TIP3    H228887   4.459   6.064   0.759  0.9777  0.2092 -0.1795
 2418TIP3   OH228888   7.011   5.252   1.020  0.2852 -0.2496 -0.0387
 2418TIP3    H128889   6.929   5.285   1.055 -0.6033 -0.5135 -1.7952
 2418TIP3    H228890   7.004   5.157   1.030  1.3790 -0.1539  1.8934
 2419TIP3   OH228891   6.090   4.610   1.817  0.0874 -0.8148  0.1518
 2419TIP3    H128892   6.065   4.524   1.782 -0.5963 -0.1135 -1.1331
 2419TIP3    H228893   6.185   4.616   1.800  0.0441 -1.1196 -0.2137
 2420TIP3   OH228894   5.515   5.084   0.495 -0.0669  0.4782 -0.2311
 2420TIP3    H128895   5.574   5.009   0.493 -0.8057 -0.3511  3.7334
 2420TIP3    H228896   5.504   5.103   0.589 -3.3485  2.7950 -0.9860
 2421TIP3   OH228897   6.346   3.408   0.892 -0.4061 -0.9370  0.1331
 2421TIP3    H128898   6.290   3.349   0.842  2.0775 -3.1275 -0.1284
 2421TIP3    H228899   6.433   3.370   0.886  0.5798  0.6563  3.2062
 2422TIP3   OH228900   6.697   4.574   6.462 -0.3448  0.5119 -0.1063
 2422TIP3    H128901   6.745   4.656   6.466 -0.1654  0.4902 -1.4981
 2422TIP3    H228902   6.748   4.518   6.403  0.3506 -1.1649  2.0197
 2423TIP3   OH228903   3.121   2.916   0.594 -0.4478 -0.3677 -0.0920
 2423TIP3    H128904   3.103   2.921   0.687 -0.0197 -1.3267  0.0468
 2423TIP3    H228905   3.150   2.826   0.579  1.7314  0.4051 -0.7550
 2424TIP3   OH228906   6.533   5.928   7.478 -0.1988  0.1047  0.5642
 2424TIP3    H128907   6.505   5.943   7.568  0.2062  0.6325  0.6075
 2424TIP3    H228908   6.470   5.978   7.425 -2.0027 -2.2702  0.3762
 2425TIP3   OH228909   1.179   4.797   1.062  0.5133  0.1336  0.3295
 2425TIP3    H128910   1.131   4.846   0.995  0.4904  0.3897  0.5345
 2425TIP3    H228911   1.112   4.763   1.120  0.5454  0.0528  0.3193
 2426TIP3   OH228912   6.039   0.794   0.088  0.2593  0.0167 -0.3400
 2426TIP3    H128913   6.070   0.770   0.000 -0.4225 -2.0275 -0.0429
 2426TIP3    H228914   5.946   0.812   0.076  0.0458 -0.8245  0.0763
 2427TIP3   OH228915   4.278   6.439   6.966  0.5332  0.1859  0.3493
 2427TIP3    H128916   4.185   6.449   6.944  0.3350  0.2802  1.2091
 2427TIP3    H228917   4.315   6.526   6.951  0.3380  0.3242  0.6558
 2428TIP3   OH228918   6.262   5.285   7.541 -0.0629  0.4899  0.3384
 2428TIP3    H128919   6.238   5.376   7.524 -0.4630  0.2325 -0.4850
 2428TIP3    H228920   6.180   5.236   7.532  0.3207 -0.0749 -0.1204
 2429TIP3   OH228921   0.142   5.641   8.473  0.0041 -0.4256 -0.6747
 2429TIP3    H128922   0.214   5.609   8.419 -0.5075  0.1642 -1.7324
 2429TIP3    H228923   0.184   5.690   8.543  0.6279  0.9924 -1.9927
 2430TIP3   OH228924   7.129   5.626   7.398 -0.5032 -0.1539  0.1453
 2430TIP3    H128925   7.174   5.614   7.314 -1.3729 -0.6823 -0.2641
 2430TIP3    H228926   7.188   5.679   7.450  0.6071 -0.8653 -0.3657
 2431TIP3   OH228927   0.306   4.470   6.029 -0.8181 -0.2631 -0.4964
 2431TIP3    H128928   0.357   4.545   6.000 -0.9754 -0.0245 -0.1675
 2431TIP3    H228929   0.253   4.504   6.102  1.5796 -1.5003  1.9020
 2432TIP3   OH228930   6.582   3.903   5.964 -0.5935 -0.5340  0.3886
 2432TIP3    H128931   6.530   3.831   5.928  0.1441 -0.8858  0.0063
 2432TIP3    H228932   6.564   3.977   5.905 -0.4829 -0.7161  0.1251
 2433TIP3   OH228933   6.668   3.864   8.023  0.1402  0.4182  0.2663
 2433TIP3    H128934   6.673   3.769   8.014  1.3061  0.5174 -0.1761
 2433TIP3    H228935   6.692   3.898   7.936 -1.6821  1.0919 -0.0045
 2434TIP3   OH228936   5.903   2.668   6.641 -0.0433 -0.2470 -0.6736
 2434TIP3    H128937   5.912   2.699   6.551  0.3276 -0.3493 -0.6734
 2434TIP3    H228938   5.918   2.573   6.635  1.7284 -0.0185 -0.2584
 2435TIP3   OH228939   2.143   3.604   7.497  0.3101  0.6471  0.0407
 2435TIP3    H128940   2.141   3.509   7.504  1.7384  0.4877 -1.3870
 2435TIP3    H228941   2.082   3.635   7.564  0.1924 -1.2535  0.8302
 2436TIP3   OH228942   6.206   3.317   6.425  0.0399  0.0325  0.2123
 2436TIP3    H128943   6.184   3.278   6.509  1.3272  0.0758  0.5816
 2436TIP3    H228944   6.124   3.320   6.377 -0.7442  0.2251  1.5564
 2437TIP3   OH228945   7.145   5.120   7.624  0.2215  0.7398 -0.6115
 2437TIP3    H128946   7.168   5.050   7.563 -0.0083  0.3632 -0.2695
 2437TIP3    H228947   7.133   5.197   7.569 -3.0459 -0.2823 -1.4111
 2438TIP3   OH228948   4.240   6.151   8.339 -0.2179  0.4094  0.5280
 2438TIP3    H128949   4.333   6.154   8.359 -0.0280 -0.8272 -0.0912
 2438TIP3    H228950   4.222   6.058   8.323 -1.6553  0.5769  1.1118
 2439TIP3   OH228951   0.313   4.143   6.534  0.1010  0.5581  0.4512
 2439TIP3    H128952   0.351   4.064   6.497 -2.6668 -0.1770 -0.9202
 2439TIP3    H228953   0.331   4.211   6.469 -0.5016  0.3093  0.0194
 2440TIP3   OH228954   5.965   4.675   6.860 -0.4858 -0.1238 -0.1842
 2440TIP3    H128955   5.930   4.763   6.873  1.9416  0.8298  0.0045
 2440TIP3    H228956   5.951   4.632   6.945 -0.4528  0.5044  0.1458
 2441TIP3   OH228957   5.646   4.066   6.189  0.4715  0.1940  0.3273
 2441TIP3    H128958   5.602   4.113   6.260 -0.6207  1.4724 -1.1676
 2441TIP3    H228959   5.593   4.084   6.111  1.0727 -2.0252 -0.6378
 2442TIP3   OH228960   3.516   3.567   7.194 -0.2105 -0.5942  0.4380
 2442TIP3    H128961   3.585   3.554   7.129 -0.6513 -2.4810  0.3231
 2442TIP3    H228962   3.525   3.658   7.220  0.8080 -0.1727 -1.3150
 2443TIP3   OH228963   1.641   4.520   7.915  0.4813 -0.0668 -0.0058
 2443TIP3    H128964   1.684   4.444   7.875 -0.6021 -1.3420  1.2235
 2443TIP3    H228965   1.555   4.523   7.873 -0.2320 -0.7389  1.3887
 2444TIP3   OH228966   5.095   3.754   8.304 -0.0579  0.0160  0.4438
 2444TIP3    H128967   5.022   3.785   8.357  0.0913  1.1890 -0.0127
 2444TIP3    H228968   5.055   3.701   8.235 -0.5708  1.3255 -0.2874
 2445TIP3   OH228969   5.544   4.560   6.744 -0.6292  0.1232  0.5883
 2445TIP3    H128970   5.493   4.603   6.675  0.3213  1.8797  0.9584
 2445TIP3    H228971   5.635   4.580   6.722 -0.1851 -1.4703  0.9471
 2446TIP3   OH228972   6.631   3.540   8.447  0.0148  0.1184  0.5690
 2446TIP3    H128973   6.566   3.551   8.516  0.2678  1.7652  0.5864
 2446TIP3    H228974   6.715   3.559   8.489  0.4233 -1.2251  0.3672
 2447TIP3   OH228975   6.868   5.730   0.369 -0.5001 -0.0342  0.2217
 2447TIP3    H128976   6.776   5.703   0.374 -0.3883 -0.5823 -0.6970
 2447TIP3    H228977   6.917   5.657   0.407 -0.4488  0.3536  0.9226
 2448TIP3   OH228978   5.125   3.783   7.992 -0.0030 -0.3484  0.5382
 2448TIP3    H128979   5.058   3.720   8.020 -0.3963 -0.9451 -1.6477
 2448TIP3    H228980   5.196   3.729   7.957  0.9034  0.3392  1.3045
 2449TIP3   OH228981   4.903   2.290   7.602 -0.0585  0.2772 -0.4698
 2449TIP3    H128982   4.980   2.237   7.621  0.0068  0.4215 -0.3297
 2449TIP3    H228983   4.926   2.377   7.634 -1.1574 -0.1853  1.6531
 2450TIP3   OH228984   5.303   4.182   6.593  0.0211  0.4306  0.1638
 2450TIP3    H128985   5.309   4.087   6.584 -0.2062  0.3089  1.2201
 2450TIP3    H228986   5.313   4.198   6.687  0.2358  1.4670 -0.0261
 2451TIP3   OH228987   5.893   5.464   8.011  0.2474 -0.2509  0.1141
 2451TIP3    H128988   5.937   5.410   7.945  0.4186 -0.7074  0.5955
 2451TIP3    H228989   5.806   5.481   7.973 -0.1440 -1.6451  0.3497
 2452TIP3   OH228990   7.079   5.584   0.487  0.4844  0.4642  0.2158
 2452TIP3    H128991   7.168   5.613   0.466 -0.0264  2.8917  1.2349
 2452TIP3    H228992   7.090   5.496   0.522  2.6192  1.1298  1.2936
 2453TIP3   OH228993   6.160   5.192   8.203  0.4213 -0.1854 -0.6371
 2453TIP3    H128994   6.145   5.215   8.295  2.1501  0.5956 -0.5374
 2453TIP3    H228995   6.127   5.102   8.196 -0.0131 -0.1464  0.6563
 2454TIP3   OH228996   3.359   6.102   8.424 -0.5875  0.6639 -0.7886
 2454TIP3    H128997   3.348   6.018   8.379  1.0358  0.1164 -0.1919
 2454TIP3    H228998   3.272   6.122   8.459 -1.3838  0.0874 -2.4055
 2455TIP3   OH228999   4.249   6.681   0.134 -0.4119  0.0401  0.1268
 2455TIP3    H129000   4.282   6.665   0.223  0.9504  1.1953 -0.1641
 2455TIP3    H229001   4.230   6.774   0.132 -0.2303  0.0599 -0.8826
 2456TIP3   OH229002   0.172   0.318   6.497  0.1669 -0.3287 -0.0074
 2456TIP3    H129003   0.251   0.285   6.454  0.6893  0.0461  0.6704
 2456TIP3    H229004   0.106   0.317   6.427  0.5327 -1.4555 -0.3590
 2457TIP3   OH229005   7.030   2.176   6.819  0.2053 -0.2075 -0.3670
 2457TIP3    H129006   6.982   2.175   6.902  0.1985 -2.0683 -0.3500
 2457TIP3    H229007   7.087   2.099   6.824 -0.9628 -1.3010 -2.7001
 2458TIP3   OH229008   6.270   0.798   6.666  0.0451  0.1556 -0.9086
 2458TIP3    H129009   6.258   0.753   6.583  1.9501  0.4152 -1.3529
 2458TIP3    H229010   6.181   0.818   6.696 -0.7323 -1.9102 -1.7750
 2459TIP3   OH229011   6.566   5.330   1.464 -0.1600  0.4089  0.5435
 2459TIP3    H129012   6.476   5.361   1.474 -1.0580 -1.9989  0.1592
 2459TIP3    H229013   6.616   5.408   1.440 -2.2761  1.6296  0.0055
 2460TIP3   OH229014   6.479   3.880   6.900  0.6854  0.2009  0.4672
 2460TIP3    H129015   6.437   3.806   6.858  1.4845  0.1886 -0.3347
 2460TIP3    H229016   6.414   3.950   6.899  0.0072 -0.4151  1.0322
 2461TIP3   OH229017   5.954   3.759   8.310 -0.3843 -0.2327  0.0385
 2461TIP3    H129018   5.988   3.700   8.243 -0.9267  0.6044 -0.9859
 2461TIP3    H229019   5.861   3.738   8.315 -0.0650 -1.4407  1.7356
 2462TIP3   OH229020   7.226   4.738   7.047 -0.6623  0.1673  0.1512
 2462TIP3    H129021   7.246   4.652   7.008  1.0158  0.8086 -0.4254
 2462TIP3    H229022   7.301   4.793   7.025 -1.0905  1.4160  1.7056
 2463TIP3   OH229023   5.985   4.872   6.550 -0.2768  0.4182 -0.1239
 2463TIP3    H129024   5.973   4.966   6.545 -0.6096  0.5785  2.7860
 2463TIP3    H229025   6.067   4.860   6.598 -0.3423 -0.7607 -0.2849
 2464TIP3   OH229026   7.253   0.537   6.951 -0.1990 -0.3095 -0.5300
 2464TIP3    H129027   7.326   0.579   6.997  0.7508 -2.6257  0.1700
 2464TIP3    H229028   7.256   0.576   6.863 -0.0086  1.7913  0.3658
 2465TIP3   OH229029   0.349   5.762   0.113  0.1248 -0.2056  0.2937
 2465TIP3    H129030   0.396   5.817   0.176 -0.4884  0.0939  0.4884
 2465TIP3    H229031   0.418   5.722   0.061  0.6517 -0.6329  1.3042
 2466TIP3   OH229032   5.226   3.416   0.095 -0.2125  0.1672  0.4156
 2466TIP3    H129033   5.143   3.450   0.062 -0.5519  0.8121  1.9168
 2466TIP3    H229034   5.274   3.494   0.123  0.1444 -0.3636  1.2798
 2467TIP3   OH229035   0.835   6.824   7.387 -0.2708 -0.1274 -0.0906
 2467TIP3    H129036   0.775   6.804   7.316 -0.5635  0.7209 -0.0844
 2467TIP3    H229037   0.891   6.894   7.353 -0.2005  0.0573  0.3932
 2468TIP3   OH229038   0.164   5.456   0.569  0.5002  0.0534  0.0626
 2468TIP3    H129039   0.198   5.491   0.651  1.7950 -1.5463  0.2335
 2468TIP3    H229040   0.079   5.417   0.592  1.4422 -1.5372  0.9220
 2469TIP3   OH229041   2.295   5.718   7.895 -0.7748  0.7816  0.3515
 2469TIP3    H129042   2.373   5.774   7.887 -0.1175 -0.2238 -0.4307
 2469TIP3    H229043   2.221   5.780   7.894 -0.0646  1.6422 -0.5978
 2470TIP3   OH229044   0.376   6.919   7.493 -0.0521  0.1738 -0.0346
 2470TIP3    H129045   0.311   6.953   7.555 -0.2550  0.1834 -0.2528
 2470TIP3    H229046   0.457   6.964   7.516 -0.5326  1.4946 -0.9360
 2471TIP3   OH229047   0.096   0.478   7.260  0.0654 -0.5647  0.3626
 2471TIP3    H129048   0.041   0.437   7.326  0.7936 -0.6653  0.9097
 2471TIP3    H229049   0.129   0.404   7.208 -3.2076 -0.3140 -2.3027
 2472TIP3   OH229050   2.096   7.106   7.754 -0.0296 -0.4041 -0.1070
 2472TIP3    H129051   2.117   7.197   7.771  0.1888 -0.5509  0.4301
 2472TIP3    H229052   2.105   7.096   7.659 -0.5714  0.2588 -0.2278
 2473TIP3   OH229053   5.064   6.917   0.429 -0.1541 -0.1602 -0.0976
 2473TIP3    H129054   4.977   6.903   0.392  0.0022 -0.5187 -0.3412
 2473TIP3    H229055   5.051   6.919   0.523 -0.4823  0.1759 -0.1533
 2474TIP3   OH229056   1.700   6.361   6.606 -0.2839 -0.2318  0.2961
 2474TIP3    H129057   1.753   6.308   6.664 -0.3718 -1.0586 -0.3650
 2474TIP3    H229058   1.657   6.297   6.548 -0.8518  0.5171 -0.1149
 2475TIP3   OH229059   0.032   6.855   6.595  0.7451 -0.5377 -0.2315
 2475TIP3    H129060  -0.060   6.875   6.607  1.0074 -0.6237  2.3267
 2475TIP3    H229061   0.036   6.759   6.592  0.6879 -0.5181 -1.0358
 2476TIP3   OH229062   1.766   0.450   6.742  0.7723  0.4660 -0.3591
 2476TIP3    H129063   1.705   0.379   6.726  0.3940  1.1061 -1.8535
 2476TIP3    H229064   1.711   0.524   6.769  1.3061 -0.3027  3.1525
 2477TIP3   OH229065   1.741   5.640   5.935  0.5216 -0.4361 -0.2882
 2477TIP3    H129066   1.814   5.586   5.904 -0.1216 -1.2278 -0.4371
 2477TIP3    H229067   1.668   5.579   5.943 -0.0006  0.2614  0.3263
 2478TIP3   OH229068   0.637   7.003   7.562  0.8476 -0.1610 -0.5580
 2478TIP3    H129069   0.732   6.987   7.561  0.9699  0.5612 -2.6114
 2478TIP3    H229070   0.621   7.056   7.483 -1.0891  0.7435  0.4113
 2479TIP3   OH229071   7.195   5.678   0.045 -0.2595 -0.0632  0.2259
 2479TIP3    H129072   7.222   5.748   0.105 -0.2191  0.4608 -0.4011
 2479TIP3    H229073   7.100   5.684   0.043 -0.1527  1.3668 -1.4804
 2480TIP3   OH229074   0.366   6.700   6.174  0.0861  0.0040 -0.4163
 2480TIP3    H129075   0.367   6.636   6.102 -1.2362 -1.3244  0.7284
 2480TIP3    H229076   0.280   6.741   6.168  0.7630  1.4105 -0.8692
 2481TIP3   OH229077   6.760   5.967   5.822 -0.2672  0.0627 -0.1293
 2481TIP3    H129078   6.695   6.034   5.800 -1.0292 -0.2224  1.1699
 2481TIP3    H229079   6.732   5.889   5.773 -1.2595 -0.2256  0.8676
 2482TIP3   OH229080   2.141   5.939   6.610 -0.5176  0.2546 -0.2891
 2482TIP3    H129081   2.189   5.976   6.536 -0.9564  0.8466 -0.2769
 2482TIP3    H229082   2.209   5.922   6.676 -0.0849 -0.5560 -0.9309
 2483TIP3   OH229083   3.977   2.472   7.071  0.0404  0.0259 -0.3838
 2483TIP3    H129084   4.016   2.538   7.129 -0.5703 -0.2782  0.3778
 2483TIP3    H229085   4.016   2.390   7.100 -0.5067 -0.1674 -0.2093
 2484TIP3   OH229086   4.209   0.152   0.316  0.2001 -0.4473  0.5653
 2484TIP3    H129087   4.136   0.148   0.254  0.4353 -0.4302  0.2878
 2484TIP3    H229088   4.176   0.109   0.395 -0.1544 -0.3199  0.4841
 2485TIP3   OH229089   0.472   5.618   7.352 -0.2000  0.4622 -0.0538
 2485TIP3    H129090   0.552   5.575   7.382  0.3452  0.8077 -1.0165
 2485TIP3    H229091   0.457   5.582   7.265 -1.2420  0.2091  0.2244
 2486TIP3   OH229092   2.322   1.407   7.161  0.0323 -0.7602 -0.0278
 2486TIP3    H129093   2.331   1.328   7.214  1.2295 -1.7310 -1.6304
 2486TIP3    H229094   2.370   1.387   7.080 -0.9452  1.0369 -1.0739
 2487TIP3   OH229095   3.038   6.473   6.485  0.0696 -0.1719 -0.6062
 2487TIP3    H129096   3.097   6.542   6.454  0.5408  1.0239  2.7555
 2487TIP3    H229097   3.010   6.429   6.405  1.1608  2.7620 -2.7312
 2488TIP3   OH229098   6.454   1.431   6.673 -0.5577  0.4718  0.8881
 2488TIP3    H129099   6.492   1.387   6.749 -3.2473 -0.7527  1.6235
 2488TIP3    H229100   6.490   1.385   6.597 -0.2790 -0.4121  1.5462
 2489TIP3   OH229101   5.849   3.912   1.282  0.1511  0.2386 -0.0833
 2489TIP3    H129102   5.867   3.957   1.365  1.7778 -1.0266  0.2584
 2489TIP3    H229103   5.859   3.980   1.215  0.2924  0.9187  0.6246
 2490TIP3   OH229104   2.599   1.430   7.814 -0.0865  0.1908 -0.4118
 2490TIP3    H129105   2.595   1.526   7.815 -1.0828  0.1725 -1.8849
 2490TIP3    H229106   2.553   1.405   7.735  0.1528 -1.5254 -0.0208
 2491TIP3   OH229107   2.199   4.415   6.901  0.0965 -0.4904 -0.4375
 2491TIP3    H129108   2.138   4.487   6.917  0.3033 -0.2778 -0.5986
 2491TIP3    H229109   2.186   4.356   6.975  0.0267 -0.2145 -0.2261
 2492TIP3   OH229110   0.789   4.989   7.829  0.3168 -0.7983  0.2544
 2492TIP3    H129111   0.697   4.966   7.828  0.2756 -0.6417  0.4221
 2492TIP3    H229112   0.790   5.084   7.839  0.5056 -0.8751  1.0177
 2493TIP3   OH229113   2.566   5.862   7.859  0.3671 -0.3549 -0.6082
 2493TIP3    H129114   2.585   5.900   7.773 -4.0759  1.4246 -0.9552
 2493TIP3    H229115   2.570   5.936   7.919 -4.0878  0.0566 -0.6114
 2494TIP3   OH229116   2.759   6.417   0.084  0.3695  0.3213  0.7833
 2494TIP3    H129117   2.762   6.343   0.023 -1.6270  2.1662 -1.7064
 2494TIP3    H229118   2.677   6.405   0.133  0.7001  0.1862  1.3028
 2495TIP3   OH229119   0.842   5.593   6.167 -0.4854  0.0251  0.5558
 2495TIP3    H129120   0.931   5.626   6.182  0.1923 -1.6308  0.2814
 2495TIP3    H229121   0.798   5.665   6.123  0.8918  0.6739  0.1896
 2496TIP3   OH229122   3.391   6.868   7.326  1.0171  0.2508  0.2250
 2496TIP3    H129123   3.449   6.932   7.366  0.9739  0.2582  0.2748
 2496TIP3    H229124   3.388   6.893   7.234 -0.4091  1.3856  0.5633
 2497TIP3   OH229125   0.883   5.032   6.749  0.0516  0.0590  1.0776
 2497TIP3    H129126   0.959   5.090   6.742  0.3082 -0.6645 -3.1421
 2497TIP3    H229127   0.810   5.091   6.771  0.3604  2.0303 -2.8132
 2498TIP3   OH229128   2.747   1.874   7.356 -0.1140 -0.0267  0.0914
 2498TIP3    H129129   2.699   1.923   7.289  0.6975  0.9632  0.2162
 2498TIP3    H229130   2.778   1.941   7.416  0.5892 -0.7520  0.5438
 2499TIP3   OH229131   1.315   5.965   6.132  0.4113 -0.6529 -0.2562
 2499TIP3    H129132   1.355   5.881   6.108  0.0510 -0.8746 -0.0926
 2499TIP3    H229133   1.389   6.022   6.152  0.6659 -0.8465 -0.6543
 2500TIP3   OH229134   1.994   5.923   8.245  0.5195 -0.0235 -0.1069
 2500TIP3    H129135   1.976   5.879   8.328  0.1106  0.0775 -0.1391
 2500TIP3    H229136   2.090   5.926   8.239  0.5690 -2.3508 -0.8885
 2501TIP3   OH229137   2.320   1.154   8.203  0.6964 -0.0049 -0.1073
 2501TIP3    H129138   2.306   1.210   8.280  0.8491 -0.3711  0.1897
 2501TIP3    H229139   2.379   1.205   8.147  1.6654 -0.2870  0.6313
 2502TIP3   OH229140   1.205   5.950   6.399  0.4112 -0.7384 -0.3645
 2502TIP3    H129141   1.153   6.023   6.365  2.5987  0.3453 -1.4955
 2502TIP3    H229142   1.264   5.926   6.326 -0.3726 -3.7603 -0.0956
 2503TIP3   OH229143   1.505   4.663   7.474  0.2503 -0.3054 -0.4040
 2503TIP3    H129144   1.461   4.675   7.558  0.8255 -1.4448  0.0713
 2503TIP3    H229145   1.527   4.752   7.446  2.8387 -0.0617  2.1570
 2504TIP3   OH229146   1.430   0.412   1.183  0.2900 -0.0293  0.3727
 2504TIP3    H129147   1.510   0.397   1.134 -0.5672 -1.5061 -0.6254
 2504TIP3    H229148   1.455   0.405   1.275  1.3641 -0.1015  0.0742
 2505TIP3   OH229149   3.079   0.590   8.445  0.1034  0.2049 -0.4469
 2505TIP3    H129150   3.028   0.671   8.447  0.1533  0.2308 -0.1324
 2505TIP3    H229151   3.014   0.520   8.449  0.1591  0.2489  1.9252
 2506TIP3   OH229152   1.795   5.286   0.327  0.3486 -0.1378  0.4624
 2506TIP3    H129153   1.778   5.319   0.239  1.4746 -3.2292 -0.9753
 2506TIP3    H229154   1.743   5.206   0.333 -0.2199  0.3601  2.8775
 2507TIP3   OH229155   3.023   0.663   6.762 -0.5303  0.2442  0.3228
 2507TIP3    H129156   3.026   0.677   6.667 -0.8223  1.1909  0.4451
 2507TIP3    H229157   2.940   0.619   6.777 -0.6312  0.3843  0.1753
 2508TIP3   OH229158   2.270   6.956   7.001 -0.1512 -0.2609  0.1811
 2508TIP3    H129159   2.298   6.997   7.084 -2.0943  1.3086  0.0999
 2508TIP3    H229160   2.351   6.943   6.953  0.7729  1.2280  1.2685
 2509TIP3   OH229161   7.275   2.859   6.991 -0.4028  0.3853  0.1286
 2509TIP3    H129162   7.193   2.908   6.982  0.5162  2.3148  1.9888
 2509TIP3    H229163   7.249   2.768   6.977 -2.4252  1.1850 -1.7708
 2510TIP3   OH229164   0.264   5.223   6.231 -0.1836  0.4939  0.5735
 2510TIP3    H129165   0.261   5.317   6.249 -0.2908  0.7034 -0.5101
 2510TIP3    H229166   0.354   5.197   6.251  0.7977  1.4910 -2.3631
 2511TIP3   OH229167   0.537   6.123   2.058  0.2335  0.2485 -0.6853
 2511TIP3    H129168   0.612   6.071   2.087 -0.2369  0.0766  0.2632
 2511TIP3    H229169   0.555   6.211   2.092 -0.3447  0.0360  0.1727
 2512TIP3   OH229170   7.182   5.569   6.593  0.1397  0.7598 -0.8947
 2512TIP3    H129171   7.128   5.638   6.555  0.6130  0.5663 -1.9294
 2512TIP3    H229172   7.240   5.542   6.522  1.2209  0.5842  0.0360
 2513TIP3   OH229173   3.485   2.103   7.078 -0.2040  0.0940  0.1484
 2513TIP3    H129174   3.414   2.104   7.015  0.3545 -1.4367 -0.5279
 2513TIP3    H229175   3.557   2.147   7.034 -0.5978  1.3055  0.6918
 2514TIP3   OH229176   3.201   5.902   7.990  0.8235  0.2541  0.3236
 2514TIP3    H129177   3.267   5.864   7.932 -0.1417 -1.0657  0.0594
 2514TIP3    H229178   3.198   5.994   7.967  2.4376  0.2917  0.2069
 2515TIP3   OH229179   0.243   5.796   6.667 -0.3066 -0.2638 -0.1601
 2515TIP3    H129180   0.266   5.888   6.651 -2.7934  0.3939 -0.1021
 2515TIP3    H229181   0.229   5.759   6.580  1.5730 -0.8560 -0.2343
 2516TIP3   OH229182   6.285   6.887   6.542  0.1081  0.3254  0.1674
 2516TIP3    H129183   6.211   6.947   6.533 -0.9669 -0.4205  3.2798
 2516TIP3    H229184   6.315   6.899   6.632  0.7167 -2.8204  0.4630
 2517TIP3   OH229185   4.821   4.962   8.002  0.2440  0.1637  0.8965
 2517TIP3    H129186   4.888   4.894   8.008  3.0396  2.3932 -2.7043
 2517TIP3    H229187   4.788   4.955   7.913 -1.9248  1.3322  1.5753
 2518TIP3   OH229188   2.817   4.493   0.741  0.4237 -0.3902 -0.9408
 2518TIP3    H129189   2.742   4.526   0.692 -0.2840 -0.0503  0.3550
 2518TIP3    H229190   2.883   4.563   0.733 -1.1794  1.5715  2.0477
 2519TIP3   OH229191   2.349   6.602   8.002 -0.1641  0.3117 -0.3360
 2519TIP3    H129192   2.355   6.655   8.081 -0.2928  1.1387 -0.8718
 2519TIP3    H229193   2.256   6.584   7.991 -0.0866 -0.3484  0.0487
 2520TIP3   OH229194   3.185   6.027   1.969 -0.2374  0.7425 -0.5282
 2520TIP3    H129195   3.130   6.100   1.941 -1.7678  0.4353  1.5696
 2520TIP3    H229196   3.231   6.060   2.047 -0.1623 -0.1976 -0.1702
 2521TIP3   OH229197   3.125   1.686   0.648  0.1204  0.3673 -0.5577
 2521TIP3    H129198   3.196   1.622   0.658 -0.9927 -0.9486 -0.9565
 2521TIP3    H229199   3.136   1.745   0.723  0.4711 -0.9915  0.4935
 2522TIP3   OH229200   0.548   7.219   5.492 -0.4842  0.8861 -0.0358
 2522TIP3    H129201   0.630   7.184   5.458 -0.6805  0.0501  0.3209
 2522TIP3    H229202   0.506   7.144   5.534 -1.0097  1.5186  0.5861
 2523TIP3   OH229203   2.607   4.750   6.715 -0.1761  0.0559  0.4671
 2523TIP3    H129204   2.616   4.682   6.649  0.3843  1.5475 -1.0419
 2523TIP3    H229205   2.683   4.739   6.772 -0.6461 -1.2207  0.8703
 2524TIP3   OH229206   1.778   5.273   7.444  0.8103  0.3448 -0.3219
 2524TIP3    H129207   1.785   5.211   7.516 -1.1970 -0.5509 -0.8616
 2524TIP3    H229208   1.856   5.258   7.391  1.2243 -0.4648  0.5043
 2525TIP3   OH229209   3.058   1.698   8.048  0.6381  0.2115 -0.0076
 2525TIP3    H129210   3.079   1.612   8.085  0.2568  0.1173 -0.0161
 2525TIP3    H229211   2.966   1.693   8.024  0.1945  1.1740  1.4704
 2526TIP3   OH229212   2.447   0.029   6.577 -0.1562  0.1840  0.5089
 2526TIP3    H129213   2.405   0.114   6.596  0.0905  0.2087  0.9439
 2526TIP3    H229214   2.496   0.044   6.497 -0.9338  0.1737  0.0202
 2527TIP3   OH229215   5.693   5.916   8.100 -0.3122 -0.1789 -0.6232
 2527TIP3    H129216   5.708   6.007   8.127 -1.7583  0.2397 -1.1825
 2527TIP3    H229217   5.646   5.877   8.173 -1.9710  0.2484 -1.4450
 2528TIP3   OH229218   3.069   7.329   0.111 -0.7856  0.4608  0.4030
 2528TIP3    H129219   2.997   7.307   0.053  0.7249 -1.6341 -0.7431
 2528TIP3    H229220   3.038   7.304   0.198 -1.5941 -0.0020 -0.0119
 2529TIP3   OH229221   1.899   6.154   6.447  0.6003 -0.4599 -0.2311
 2529TIP3    H129222   1.858   6.142   6.361 -1.1658  1.5621  0.2765
 2529TIP3    H229223   1.951   6.234   6.438 -0.1243  0.1285  0.7507
 2530TIP3   OH229224   6.650   6.037   1.842  0.5344  0.6373  0.0617
 2530TIP3    H129225   6.679   6.033   1.933 -0.6546  0.2331  0.4295
 2530TIP3    H229226   6.645   5.945   1.814 -2.4862  0.5719  0.6906
 2531TIP3   OH229227   6.722   2.037   6.691 -0.7576  0.0677 -0.0757
 2531TIP3    H129228   6.660   2.067   6.625  1.3511  1.2349 -1.5831
 2531TIP3    H229229   6.739   1.945   6.668 -0.8978  0.1361 -0.4538
 2532TIP3   OH229230   7.210   5.567   6.859  0.0871  0.0405 -0.2024
 2532TIP3    H129231   7.227   5.579   6.765  0.1785 -0.9801 -0.3196
 2532TIP3    H229232   7.115   5.569   6.867  0.0936  0.6085 -0.2492
 2533TIP3   OH229233   2.869   6.045   7.075  0.1416 -0.4834  0.0985
 2533TIP3    H129234   2.960   6.060   7.050  0.0337 -0.7700 -0.4801
 2533TIP3    H229235   2.821   6.118   7.036 -0.1950 -1.5656 -1.5892
 2534TIP3   OH229236   4.955   0.643   7.038 -0.8741 -0.2678  0.0927
 2534TIP3    H129237   5.029   0.582   7.046  0.1644  0.7514 -1.5580
 2534TIP3    H229238   4.967   0.704   7.110 -0.0660 -0.0769 -0.1954
 2535TIP3   OH229239   2.270   0.214   0.484 -0.2709  0.2416  0.3300
 2535TIP3    H129240   2.181   0.177   0.489 -0.6966  1.2235  0.1739
 2535TIP3    H229241   2.257   0.308   0.491  0.7994  0.3742  0.6370
 2536TIP3   OH229242   2.957   0.348   7.469 -1.2959  0.2780  0.2623
 2536TIP3    H129243   2.961   0.397   7.387  1.9544 -0.3497 -0.0306
 2536TIP3    H229244   3.042   0.364   7.510 -0.7152 -3.8508  0.8642
 2537TIP3   OH229245   2.966   3.763   6.547  0.0074 -0.0396 -0.0677
 2537TIP3    H129246   3.047   3.810   6.561  0.0783  0.3136 -1.5930
 2537TIP3    H229247   2.901   3.810   6.600  0.1885  1.4436 -1.1513
 2538TIP3   OH229248   2.091   6.311   6.733  0.5101 -0.0990 -0.1650
 2538TIP3    H129249   2.052   6.396   6.753  0.4834 -0.7012  2.6202
 2538TIP3    H229250   2.016   6.251   6.729  0.7089 -0.3774  0.2071
 2539TIP3   OH229251   2.447   3.766   7.495  0.0597  0.1069 -0.6849
 2539TIP3    H129252   2.392   3.838   7.525 -1.2385 -1.6091  1.2383
 2539TIP3    H229253   2.396   3.725   7.425 -0.3047 -0.3807 -0.1401
 2540TIP3   OH229254   0.962   0.164   7.687 -0.1271  0.0250 -0.5328
 2540TIP3    H129255   1.050   0.181   7.654 -0.3659  1.5398 -0.4191
 2540TIP3    H229256   0.953   0.223   7.762 -0.7509 -1.1006  0.2857
 2541TIP3   OH229257   2.362   1.034   2.379 -0.0249 -0.1344  0.0516
 2541TIP3    H129258   2.375   1.037   2.474  1.0346 -0.8851 -0.0664
 2541TIP3    H229259   2.446   1.005   2.344 -0.6288 -0.5535 -1.0705
 2542TIP3   OH229260   6.786   1.732   6.568  0.2026  0.1483  0.2047
 2542TIP3    H129261   6.777   1.637   6.561  1.4354 -0.0315  0.8399
 2542TIP3    H229262   6.800   1.761   6.478 -1.8951 -0.0546 -0.2160
 2543TIP3   OH229263   3.709   0.320   8.396  0.0140  0.3559  0.1918
 2543TIP3    H129264   3.671   0.254   8.454 -0.0254 -0.2569 -0.5201
 2543TIP3    H229265   3.743   0.270   8.322  1.5189  0.9799  0.4544
 2544TIP3   OH229266   0.281   7.100   6.136  0.5497 -0.3356 -0.1940
 2544TIP3    H129267   0.352   7.113   6.198 -0.0717 -0.4521  0.5500
 2544TIP3    H229268   0.205   7.079   6.190 -0.0646 -0.1654 -0.9761
 2545TIP3   OH229269   1.082   5.906   0.721  0.3242  0.3201 -0.2426
 2545TIP3    H129270   1.175   5.921   0.736  0.7072 -0.6226 -1.4784
 2545TIP3    H229271   1.048   5.872   0.804  1.0339  0.8840  0.2738
 2546TIP3   OH229272   1.428   3.861   7.798  0.2360  0.0281 -0.5525
 2546TIP3    H129273   1.372   3.890   7.870 -0.5136  0.7109 -1.4012
 2546TIP3    H229274   1.404   3.770   7.784 -0.3752  0.1985 -0.6379
 2547TIP3   OH229275   6.770   5.259   0.473  0.0579  0.1717 -0.9201
 2547TIP3    H129276   6.699   5.230   0.416  1.9769 -0.9711 -2.7817
 2547TIP3    H229277   6.750   5.219   0.558 -1.5399 -0.0963 -1.4098
 2548TIP3   OH229278   3.224   1.461   7.010  0.2874  0.1247 -0.2540
 2548TIP3    H129279   3.197   1.454   6.919 -0.8139  1.6912 -0.0712
 2548TIP3    H229280   3.164   1.403   7.057  1.0214 -0.8843 -0.5324
 2549TIP3   OH229281   4.339   4.811   0.984 -0.2645  0.3152 -0.3775
 2549TIP3    H129282   4.330   4.804   0.889  0.9483  1.2183 -0.5684
 2549TIP3    H229283   4.256   4.777   1.018 -0.3696 -0.8410 -1.7187
 2550TIP3   OH229284   2.776   2.116   1.318  0.2395  0.1729  0.1045
 2550TIP3    H129285   2.752   2.148   1.405 -0.6627  1.0679 -0.4741
 2550TIP3    H229286   2.872   2.125   1.316  0.2107  0.7031  0.7854
 2551TIP3   OH229287   1.176   2.128   6.404  0.1850  0.1672  0.0732
 2551TIP3    H129288   1.186   2.216   6.439  0.0257  0.8668 -1.5793
 2551TIP3    H229289   1.098   2.093   6.447  0.2163  0.8552  0.6919
 2552TIP3   OH229290   0.362   5.526   8.330 -0.6672  0.0204  0.2143
 2552TIP3    H129291   0.367   5.453   8.392 -0.8622 -0.8086 -0.7484
 2552TIP3    H229292   0.452   5.539   8.301 -0.5280  0.6079  0.8905
 2553TIP3   OH229293   0.816   6.171   7.264 -0.1362  0.4042  0.3265
 2553TIP3    H129294   0.778   6.220   7.337 -1.0746  1.3396 -0.7843
 2553TIP3    H229295   0.754   6.100   7.249  0.8734 -0.7590  1.4772
 2554TIP3   OH229296   2.691   3.731   8.212  0.5481  0.2915  0.1425
 2554TIP3    H129297   2.752   3.799   8.185  1.9414 -0.0848  2.1990
 2554TIP3    H229298   2.605   3.762   8.183  1.1256  3.0559  1.2489
 2555TIP3   OH229299   0.039   7.249   7.716  0.3994  0.4283  0.4339
 2555TIP3    H129300  -0.043   7.226   7.760 -0.0797  1.2263 -0.0296
 2555TIP3    H229301   0.094   7.171   7.725 -0.0555  0.2287  1.5855
 2556TIP3   OH229302   4.031   0.653   7.383 -0.7862 -0.4869 -0.0307
 2556TIP3    H129303   3.976   0.703   7.444  0.8628  0.2940  0.8550
 2556TIP3    H229304   4.021   0.562   7.410 -0.7887 -0.2390  0.8078
 2557TIP3   OH229305   2.769   0.040   6.767  0.0547  0.3944 -0.5927
 2557TIP3    H129306   2.796  -0.051   6.775  0.1143  0.4777  0.2220
 2557TIP3    H229307   2.783   0.062   6.675  0.6956 -0.2120 -0.6384
 2558TIP3   OH229308   2.273   7.162   1.230  0.1607 -0.3099 -0.2931
 2558TIP3    H129309   2.230   7.131   1.150 -2.3201  1.2268  0.4034
 2558TIP3    H229310   2.288   7.083   1.281 -0.0375 -1.0865 -1.4084
 2559TIP3   OH229311   0.119   4.119   7.861  0.0786  0.2209  0.0461
 2559TIP3    H129312   0.166   4.048   7.818 -0.0748 -0.0517  0.3282
 2559TIP3    H229313   0.074   4.165   7.789  0.2511  0.0903 -0.1451
 2560TIP3   OH229314   2.536   7.257   7.396  0.4638  0.2791  0.0095
 2560TIP3    H129315   2.592   7.298   7.329 -0.2912  0.6856 -0.3906
 2560TIP3    H229316   2.557   7.304   7.476 -0.2287  1.3250 -0.4016
 2561TIP3   OH229317   6.576   6.612   7.479 -0.1725 -0.0417 -0.2534
 2561TIP3    H129318   6.487   6.641   7.457 -0.3762 -1.4286 -1.3512
 2561TIP3    H229319   6.632   6.687   7.459 -1.1192  0.9283  0.6852
 2562TIP3   OH229320   0.525   0.185   5.592 -0.4115  0.7244 -0.3790
 2562TIP3    H129321   0.441   0.211   5.556  0.2752  0.7312 -2.0168
 2562TIP3    H229322   0.515   0.092   5.612 -1.1067  0.9491  0.3623
 2563TIP3   OH229323   7.099   6.150   6.345 -0.3578  0.1168  0.4309
 2563TIP3    H129324   7.036   6.086   6.378  1.2388 -1.3016  0.8217
 2563TIP3    H229325   7.086   6.228   6.400 -1.0971 -0.5076  1.1406
 2564TIP3   OH229326   1.964   6.965   0.557  0.0151 -0.2858  0.2514
 2564TIP3    H129327   1.997   7.039   0.506 -0.0749 -0.4612 -0.0623
 2564TIP3    H229328   1.967   6.995   0.648 -1.2437  0.5827  0.0225
 2565TIP3   OH229329   0.379   1.020   6.398  0.3141 -0.2550 -0.3065
 2565TIP3    H129330   0.350   0.946   6.452  2.2636  0.4747  1.7859
 2565TIP3    H229331   0.473   1.008   6.389  0.5306  1.5882 -0.5765
 2566TIP3   OH229332   2.193   6.430   6.119  0.3927 -0.0250  0.5719
 2566TIP3    H129333   2.248   6.490   6.170  3.5489 -1.5736 -0.8511
 2566TIP3    H229334   2.195   6.465   6.030 -1.5189  0.2655  0.6309
 2567TIP3   OH229335   0.072   5.089   0.630 -0.6956 -0.8850  0.3076
 2567TIP3    H129336   0.161   5.078   0.595 -0.4745 -2.7018  1.3621
 2567TIP3    H229337   0.080   5.160   0.693 -0.0158 -0.9207  0.2718
 2568TIP3   OH229338   7.181   6.638   8.461 -0.1605 -0.2271 -0.6040
 2568TIP3    H129339   7.132   6.659   8.381 -1.3673 -0.0943  0.1499
 2568TIP3    H229340   7.196   6.723   8.503 -0.9245 -0.4223  0.0898
 2569TIP3   OH229341   7.301   4.832   0.801 -0.0248  0.3793 -0.0086
 2569TIP3    H129342   7.339   4.909   0.760 -0.0488  0.6802  0.5365
 2569TIP3    H229343   7.208   4.835   0.776  0.6072 -1.3046 -2.8167
 2570TIP3   OH229344   0.707   0.762   6.973  0.4572  0.0899 -0.0544
 2570TIP3    H129345   0.631   0.784   7.027  0.9216  1.6003  0.0079
 2570TIP3    H229346   0.676   0.774   6.883  0.6318  0.7274 -0.0282
 2571TIP3   OH229347   7.333   5.096   6.829  0.2841  0.2566  0.2821
 2571TIP3    H129348   7.238   5.091   6.823  0.3109  0.4490 -0.3995
 2571TIP3    H229349   7.354   5.189   6.818  0.6815 -0.0573 -2.0700
 2572TIP3   OH229350   2.876   1.527   0.642  0.2525 -0.3418  0.2468
 2572TIP3    H129351   2.884   1.514   0.737 -1.0384 -3.2411  0.0169
 2572TIP3    H229352   2.964   1.551   0.614  0.1409  2.9419  2.4832
 2573TIP3   OH229353   4.867   0.340   7.971 -0.2536 -0.9606  0.0225
 2573TIP3    H129354   4.772   0.347   7.968 -0.1971 -0.5655 -1.1441
 2573TIP3    H229355   4.884   0.246   7.963 -0.5432 -1.0211  0.1187
 2574TIP3   OH229356   7.326   6.191   5.931  0.0770  0.2504 -0.0934
 2574TIP3    H129357   7.375   6.249   5.873 -0.2487  0.4238 -0.1949
 2574TIP3    H229358   7.267   6.249   5.978 -2.2605 -0.3243 -2.2228
 2575TIP3   OH229359   0.361   5.830   6.397 -0.8944  0.5585 -0.0392
 2575TIP3    H129360   0.400   5.803   6.315  2.0052  1.1464  1.0880
 2575TIP3    H229361   0.303   5.758   6.421  2.7831 -2.4025  0.3678
 2576TIP3   OH229362   4.745   0.286   6.408 -0.0030 -0.0954  0.5771
 2576TIP3    H129363   4.763   0.215   6.346 -2.0672 -1.9376  2.0184
 2576TIP3    H229364   4.825   0.296   6.458  0.9624 -0.0440 -0.9436
 2577TIP3   OH229365   1.604   0.234   7.628  0.1685 -0.5025 -0.4788
 2577TIP3    H129366   1.651   0.317   7.629  0.6331 -0.7195 -2.0611
 2577TIP3    H229367   1.651   0.179   7.691  1.1990 -0.2638 -1.0190
 2578TIP3   OH229368   0.062   6.424   5.770  0.5675  0.2454 -0.7171
 2578TIP3    H129369   0.011   6.477   5.709 -1.0298  0.4735  0.7661
 2578TIP3    H229370   0.132   6.482   5.800 -0.0780  0.9127 -0.4972
 2579TIP3   OH229371   6.803   7.040   0.970  0.3071  0.0080  0.1670
 2579TIP3    H129372   6.826   7.055   1.062  1.0857 -1.8484  0.3082
 2579TIP3    H229373   6.881   7.066   0.921  0.9877 -1.7221  0.2798
 2580TIP3   OH229374   1.003   6.137   6.480  0.5908 -0.5494 -0.0314
 2580TIP3    H129375   0.964   6.157   6.566  1.1556 -1.4767  0.4399
 2580TIP3    H229376   0.949   6.066   6.446  0.7210 -0.5696 -0.1928
 2581TIP3   OH229377   6.696   6.041   7.068  0.0299 -0.1591 -0.1015
 2581TIP3    H129378   6.647   6.122   7.084 -0.4587 -0.5846  0.5176
 2581TIP3    H229379   6.694   5.994   7.151  1.5351 -0.1568 -0.0362
 2582TIP3   OH229380   6.511   6.224   8.020 -0.2851  0.2087 -0.0796
 2582TIP3    H129381   6.500   6.318   8.033  1.7505  0.5272 -0.4348
 2582TIP3    H229382   6.567   6.196   8.092 -0.5572 -0.6574 -0.1984
 2583TIP3   OH229383   2.284   0.200   7.403 -0.3333  0.0104  0.2730
 2583TIP3    H129384   2.236   0.281   7.418  2.2608  1.4385  1.1037
 2583TIP3    H229385   2.300   0.198   7.309  0.3364  0.8912  0.3672
 2584TIP3   OH229386   3.555   0.148   0.402 -0.0245  0.6711 -0.0249
 2584TIP3    H129387   3.557   0.056   0.378 -0.6282  0.4673  0.6878
 2584TIP3    H229388   3.477   0.157   0.457  0.5436  1.4007  0.6820
 2585TIP3   OH229389   0.922   7.259   7.196 -0.5762 -0.3440  0.0280
 2585TIP3    H129390   0.924   7.293   7.286  0.8158  0.2392 -0.2034
 2585TIP3    H229391   0.850   7.305   7.154 -0.2869  0.4775  0.4317
 2586TIP3   OH229392   7.199   6.182   0.585  0.5903 -0.8100  0.1478
 2586TIP3    H129393   7.156   6.267   0.583  0.6213 -0.7334  1.7217
 2586TIP3    H229394   7.291   6.201   0.567  0.3890 -0.6634 -0.7265
 2587TIP3   OH229395   2.998   5.429   7.384 -0.4662 -0.1522  0.4111
 2587TIP3    H129396   2.930   5.385   7.332  0.4411 -1.7513  0.5425
 2587TIP3    H229397   3.024   5.503   7.331 -0.7657 -0.7922 -0.6528
 2588TIP3   OH229398   0.987   7.007   7.207  0.0830  0.4902  0.1672
 2588TIP3    H129399   0.949   7.093   7.224  1.4257  1.2361 -0.4738
 2588TIP3    H229400   1.057   7.024   7.144  1.2545 -0.8740  1.0605
 2589TIP3   OH229401   0.418   6.242   1.515  1.0892  0.2744  0.1264
 2589TIP3    H129402   0.397   6.335   1.519  1.0906  0.2901 -0.2725
 2589TIP3    H229403   0.333   6.198   1.515  1.0644  0.3135 -0.7460
 2590TIP3   OH229404   6.812   6.594   0.883  0.2954 -0.0126  0.8942
 2590TIP3    H129405   6.878   6.662   0.897  0.1892 -0.1456  2.1734
 2590TIP3    H229406   6.858   6.525   0.836  0.4969  0.8006 -0.1078
 2591TIP3   OH229407   6.943   5.015   7.159 -0.2376  0.0356 -0.5968
 2591TIP3    H129408   6.935   5.045   7.068 -0.2107  1.2222 -0.2124
 2591TIP3    H229409   6.877   5.065   7.207  1.0176  0.7766  0.3757
 2592TIP3   OH229410   1.307   4.846   8.268 -0.2113  0.0465 -0.0918
 2592TIP3    H129411   1.321   4.856   8.362  2.9237 -0.5740 -0.4380
 2592TIP3    H229412   1.340   4.758   8.248 -1.8797 -0.2554 -1.5938
 2593TIP3   OH229413   7.063   5.715   6.385  0.4080 -0.8234  0.1279
 2593TIP3    H129414   7.014   5.785   6.342  0.7961 -1.0162 -0.6375
 2593TIP3    H229415   7.046   5.638   6.331 -1.4232 -1.7204  1.9411
 2594TIP3   OH229416   6.859   5.568   7.492  0.8444  0.3747  0.3474
 2594TIP3    H129417   6.837   5.629   7.562 -2.1798  1.0591 -1.1086
 2594TIP3    H229418   6.937   5.604   7.451  1.5716  0.9350  2.1799
 2595TIP3   OH229419   1.868   4.622   1.318  0.3415  0.2820  0.4228
 2595TIP3    H129420   1.789   4.671   1.342  1.2022  2.5411 -1.1256
 2595TIP3    H229421   1.868   4.623   1.222  1.6794 -0.6259  0.4093
 2596TIP3   OH229422   3.150   3.979   6.527  0.4381 -0.1271 -0.1457
 2596TIP3    H129423   3.124   4.041   6.595  0.1067 -1.5611  1.0782
 2596TIP3    H229424   3.217   3.925   6.568 -1.0540 -2.1858 -0.3307
 2597TIP3   OH229425   3.037   6.062   1.663 -0.5377 -0.8818  0.2789
 2597TIP3    H129426   3.051   6.156   1.671  0.5088 -1.0093 -0.0745
 2597TIP3    H229427   3.124   6.024   1.661 -0.9546 -2.0830  2.9204
 2598TIP3   OH229428   2.620   5.473   6.673 -0.0674  0.3407 -0.6051
 2598TIP3    H129429   2.568   5.412   6.725 -2.8146  1.6936 -1.6781
 2598TIP3    H229430   2.637   5.426   6.591  0.4204 -0.1024 -0.2538
 2599TIP3   OH229431   6.397   6.365   0.455  0.4931  0.5875 -0.4539
 2599TIP3    H129432   6.452   6.324   0.388  1.4165  0.5860  0.2946
 2599TIP3    H229433   6.443   6.446   0.477  0.9575 -0.1154  1.2124
 2600TIP3   OH229434   6.073   5.062   2.397  0.2108 -0.8817  0.0542
 2600TIP3    H129435   6.151   5.032   2.443 -0.5778  1.3079  2.9651
 2600TIP3    H229436   6.018   4.984   2.390  1.6103 -1.8949  0.1214
 2601TIP3   OH229437   0.559   6.607   6.434 -0.0366  0.6063 -0.2690
 2601TIP3    H129438   0.512   6.548   6.375  0.6668 -0.8508  0.5973
 2601TIP3    H229439   0.497   6.628   6.503 -0.0278  0.1643 -0.1202
 2602TIP3   OH229440   0.523   3.687   7.176  0.1177  0.0821 -0.6344
 2602TIP3    H129441   0.519   3.783   7.179 -0.1215  0.0702 -0.5759
 2602TIP3    H229442   0.452   3.658   7.233 -0.3842 -0.1332 -1.3643
 2603TIP3   OH229443   2.193   0.040   7.783 -0.1505  0.3591 -0.3964
 2603TIP3    H129444   2.276   0.025   7.739 -0.4688  0.4591 -1.0325
 2603TIP3    H229445   2.213   0.103   7.852  0.6801 -1.0021  0.6435
 2604TIP3   OH229446   2.273   5.237   0.052 -0.1625 -0.2703  0.0861
 2604TIP3    H129447   2.271   5.216   0.145  1.8036  1.4476  0.5404
 2604TIP3    H229448   2.337   5.177   0.014 -0.3274 -0.3825 -0.0190
 2605TIP3   OH229449   1.139   6.535   0.487 -0.8431 -0.1042  0.3028
 2605TIP3    H129450   1.113   6.617   0.530 -1.4611 -0.2570  0.2300
 2605TIP3    H229451   1.204   6.497   0.545  0.8945  1.3973 -0.6242
 2606TIP3   OH229452   2.882   4.986   1.897  0.6323 -0.4763  0.2734
 2606TIP3    H129453   2.826   5.063   1.906 -0.8544 -1.7338  2.1840
 2606TIP3    H229454   2.970   5.018   1.916 -0.4391  0.0707  4.9141
 2607TIP3   OH229455   2.324   6.194   6.773 -0.0107  0.0591 -0.4336
 2607TIP3    H129456   2.391   6.259   6.752  0.6539 -0.3697  0.3368
 2607TIP3    H229457   2.243   6.232   6.740  0.6926  0.3269 -1.9023
 2608TIP3   OH229458   2.232   6.598   6.896 -0.0634 -0.1638 -0.0992
 2608TIP3    H129459   2.232   6.538   6.970 -0.0557  0.4493  0.4032
 2608TIP3    H229460   2.198   6.680   6.931  0.7709  0.3869 -0.5639
 2609TIP3   OH229461   0.320   3.036   6.420  0.5517 -0.2945 -0.1106
 2609TIP3    H129462   0.291   2.954   6.381 -0.9915 -0.1386  0.6485
 2609TIP3    H229463   0.243   3.092   6.418  0.7785  0.1382  1.9906
 2610TIP3   OH229464   1.718   7.064   7.299  0.2146 -0.3169  0.6567
 2610TIP3    H129465   1.694   7.136   7.240  0.1832 -0.0040  1.0507
 2610TIP3    H229466   1.800   7.030   7.264  0.7829  0.6003  1.0855
 2611TIP3   OH229467   2.676   0.574   7.276 -0.6480 -0.2580 -0.1528
 2611TIP3    H129468   2.640   0.602   7.360 -0.8454  1.2923 -0.7410
 2611TIP3    H229469   2.613   0.605   7.211 -0.3751 -1.2284 -0.8926
 2612TIP3   OH229470   0.571   5.412   6.854  0.5905 -0.4803 -0.5718
 2612TIP3    H129471   0.556   5.462   6.774  3.8666  0.3991 -0.6901
 2612TIP3    H229472   0.524   5.462   6.922  0.6107  0.6242 -1.3561
 2613TIP3   OH229473   7.211   4.444   0.396 -0.0906 -0.4112  0.2915
 2613TIP3    H129474   7.171   4.426   0.311 -0.2888 -0.5317  0.4091
 2613TIP3    H229475   7.271   4.516   0.380  2.8325 -2.9955 -0.8009
 2614TIP3   OH229476   1.231   7.101   7.090 -0.1588  0.0936  0.5712
 2614TIP3    H129477   1.176   7.136   7.020  1.2091 -1.3954 -1.2944
 2614TIP3    H229478   1.293   7.171   7.110  0.2084  0.0941 -0.5531
 2615TIP3   OH229479   2.875   7.118   7.481  0.1071 -0.4140 -0.0616
 2615TIP3    H129480   2.832   7.136   7.564  0.5166  1.6046 -0.2631
 2615TIP3    H229481   2.934   7.045   7.500  2.1216  1.6766  2.1118
 2616TIP3   OH229482   3.255   6.295   1.041 -0.6404  0.1512 -0.0299
 2616TIP3    H129483   3.273   6.379   1.085 -0.9291  0.3780 -0.3487
 2616TIP3    H229484   3.161   6.282   1.051 -0.5569 -0.2659  0.2449
 2617TIP3   OH229485   6.093   5.690   6.943  0.1484  0.1049 -0.4844
 2617TIP3    H129486   6.053   5.635   6.876  1.6879 -1.4337 -0.1691
 2617TIP3    H229487   6.156   5.745   6.896  0.0338  0.2012 -0.5258
 2618TIP3   OH229488   2.346   2.708   1.899  0.1607  0.0984 -0.0936
 2618TIP3    H129489   2.332   2.614   1.885  0.0142  0.0264  0.5514
 2618TIP3    H229490   2.306   2.750   1.823 -0.5204 -0.3078  0.0398
 2619TIP3   OH229491   1.293   5.226   7.483  0.1384 -0.3401  0.1343
 2619TIP3    H129492   1.229   5.287   7.519  0.2454 -0.8277  1.1498
 2619TIP3    H229493   1.253   5.195   7.401  0.7437  2.2435 -1.2164
 2620TIP3   OH229494   7.313   6.030   6.168  0.0440 -0.2802 -0.7318
 2620TIP3    H129495   7.329   6.089   6.094 -1.1983 -0.1034 -0.8657
 2620TIP3    H229496   7.304   5.943   6.128  1.8791 -0.5901 -0.5342
 2621TIP3   OH229497   5.382   0.253   7.691 -0.0897 -0.0342  0.2931
 2621TIP3    H129498   5.476   0.264   7.673  0.3065 -1.7503  1.2368
 2621TIP3    H229499   5.350   0.341   7.706  0.9272  0.8089 -2.2181
 2622TIP3   OH229500   0.157   6.992   7.638 -0.0805 -0.2402 -0.2519
 2622TIP3    H129501   0.091   7.007   7.570  0.7516  2.0435 -0.5993
 2622TIP3    H229502   0.155   6.898   7.653 -2.3338 -0.4082 -1.3643
 2623TIP3   OH229503   1.550   5.698   7.886 -0.1371  0.3700 -0.1606
 2623TIP3    H129504   1.522   5.775   7.837  1.8181  1.1410 -0.0813
 2623TIP3    H229505   1.605   5.649   7.825 -1.1222 -0.8269 -0.1122
 2624TIP3   OH229506   6.159   6.965   5.745 -0.5877  0.1443 -0.3908
 2624TIP3    H129507   6.137   6.907   5.672  1.9482 -1.2532 -0.0966
 2624TIP3    H229508   6.190   6.907   5.814 -1.0577  1.6214  1.1054
 2625TIP3   OH229509   1.456   5.705   6.360  0.1238  0.5607 -0.2855
 2625TIP3    H129510   1.492   5.662   6.438 -0.2546 -1.7714 -1.3708
 2625TIP3    H229511   1.507   5.786   6.352  2.6830 -0.9234  0.2887
 2626TIP3   OH229512   4.700   6.127   7.551 -0.7096  0.4099  0.1937
 2626TIP3    H129513   4.647   6.169   7.483  1.0095  1.1238 -0.7219
 2626TIP3    H229514   4.771   6.188   7.568  1.9733 -2.1579 -1.3250
 2627TIP3   OH229515   1.632   0.015   8.221 -0.0617  0.0201  0.1124
 2627TIP3    H129516   1.586  -0.016   8.144  0.7185  0.1889 -0.4262
 2627TIP3    H229517   1.623   0.111   8.218  0.3361  0.0560 -0.0088
 2628TIP3   OH229518   0.501   5.533   6.316  0.3125  0.1370 -1.1002
 2628TIP3    H129519   0.508   5.612   6.262 -0.4963  3.1058  2.9511
 2628TIP3    H229520   0.409   5.507   6.308  0.6879 -0.7201 -2.8200
 2629TIP3   OH229521   6.541   6.283   8.481 -0.3177 -0.0220  0.2081
 2629TIP3    H129522   6.457   6.330   8.486  0.3860  1.4085 -0.8533
 2629TIP3    H229523   6.585   6.323   8.406  1.1701 -1.0089  0.5542
 2630TIP3   OH229524   0.809   7.089   1.206  0.1240  0.5107  0.2085
 2630TIP3    H129525   0.862   7.012   1.224  0.4866  0.6440 -0.2689
 2630TIP3    H229526   0.730   7.077   1.259 -0.8320 -1.3005 -1.5755
 2631TIP3   OH229527   2.704   0.346   5.872  0.2320  0.3110  0.0067
 2631TIP3    H129528   2.713   0.426   5.821 -0.2349 -1.1513 -2.4798
 2631TIP3    H229529   2.785   0.298   5.856  0.2830  0.0446  1.0384
 2632TIP3   OH229530   1.539   6.056   2.081 -0.4060  0.5366 -0.3519
 2632TIP3    H129531   1.540   6.151   2.084 -0.6053  0.5963 -2.0547
 2632TIP3    H229532   1.592   6.034   2.005 -0.7932 -0.7058 -0.2710
 2633TIP3   OH229533   1.363   6.905   6.314  0.1773  0.0230  0.7371
 2633TIP3    H129534   1.443   6.878   6.358  0.8023 -0.0546 -0.4379
 2633TIP3    H229535   1.393   6.953   6.237 -0.9106  0.6308  0.6822
 2634TIP3   OH229536   2.798   5.736   6.657 -0.5116 -0.7844 -0.1719
 2634TIP3    H129537   2.831   5.647   6.643  0.2835 -0.4333 -0.5319
 2634TIP3    H229538   2.737   5.727   6.730 -0.5709 -1.6577 -0.3206
 2635TIP3   OH229539   6.776   6.826   6.489  0.1761  0.0750 -0.1157
 2635TIP3    H129540   6.799   6.880   6.565  0.2044  1.2108 -0.9317
 2635TIP3    H229541   6.708   6.875   6.444  2.0932  0.7704 -2.3603
 2636TIP3   OH229542   3.321   2.693   6.639 -0.1465  0.5005  0.2460
 2636TIP3    H129543   3.408   2.653   6.639 -0.7829 -0.9662 -1.2989
 2636TIP3    H229544   3.308   2.721   6.548 -1.6058 -0.0793  0.2655
 2637TIP3   OH229545   1.929   1.175   6.462 -0.1084  0.5001  0.0338
 2637TIP3    H129546   1.844   1.141   6.434  0.0157  0.2411 -0.0365
 2637TIP3    H229547   1.917   1.269   6.471  0.0725  0.6946 -1.6819
 2638TIP3   OH229548   1.232   6.129   8.458 -0.0543 -0.2817 -0.4391
 2638TIP3    H129549   1.259   6.045   8.421  0.8449 -0.3346  0.3110
 2638TIP3    H229550   1.231   6.114   8.552  1.6588  0.9693 -0.1907
 2639TIP3   OH229551   0.013   7.203   6.759 -0.4232  0.0934  0.7184
 2639TIP3    H129552   0.034   7.264   6.688 -0.2194 -0.2713  0.4616
 2639TIP3    H229553   0.084   7.138   6.757 -1.7557 -1.3713 -0.3987
 2640TIP3   OH229554   1.121   0.344   6.989 -0.0866  0.3064  0.8586
 2640TIP3    H129555   1.062   0.406   6.946 -0.4214 -0.8029 -0.3394
 2640TIP3    H229556   1.196   0.337   6.929  0.1468 -0.1069  1.1920
 2641TIP3   OH229557   6.499   4.283   1.227  0.2348  0.3337  0.1170
 2641TIP3    H129558   6.528   4.265   1.137  0.1993  0.1710  0.1381
 2641TIP3    H229559   6.524   4.205   1.276 -1.1420 -0.2445 -0.0713
 2642TIP3   OH229560   5.049   6.855   1.880  0.1810 -0.9159 -0.6287
 2642TIP3    H129561   5.008   6.936   1.850 -0.8874 -0.9187  0.7423
 2642TIP3    H229562   5.088   6.817   1.802  0.1586  0.6151 -1.3977
 2643TIP3   OH229563   2.708   5.680   1.925 -0.2416 -0.5472 -0.2670
 2643TIP3    H129564   2.658   5.753   1.960 -0.3575 -1.3492  1.2612
 2643TIP3    H229565   2.779   5.721   1.876 -0.5010  0.5872  0.3001
 2644TIP3   OH229566   2.674   4.230   1.223 -0.5734 -0.0302 -0.3609
 2644TIP3    H129567   2.635   4.249   1.138  0.5511 -0.6261 -1.0258
 2644TIP3    H229568   2.760   4.272   1.219 -0.1783 -0.7790  0.1527
 2645TIP3   OH229569   2.386   0.777   7.902 -0.2045  0.4695  0.3330
 2645TIP3    H129570   2.399   0.772   7.997  1.6475  2.1303  0.1911
 2645TIP3    H229571   2.408   0.689   7.871  1.8571  0.6648  1.1547
 2646TIP3   OH229572   1.489   6.200   7.183 -0.4101 -0.6415  0.2352
 2646TIP3    H129573   1.469   6.125   7.238 -0.4514 -1.5983 -1.0483
 2646TIP3    H229574   1.450   6.178   7.098 -0.5283  0.8832 -0.1215
 2647TIP3   OH229575   3.454   6.714   7.019  0.3425  0.0201 -0.1249
 2647TIP3    H129576   3.480   6.701   6.927 -3.1484 -1.9121 -0.9348
 2647TIP3    H229577   3.450   6.809   7.029 -1.6836  0.2937 -2.7851
 2648TIP3   OH229578   4.518   6.453   7.912 -0.0255 -0.1306  0.3834
 2648TIP3    H129579   4.525   6.386   7.981  1.5698 -0.4808 -0.0851
 2648TIP3    H229580   4.428   6.485   7.918 -0.3457 -1.2214  1.6423
 2649TIP3   OH229581   1.113   6.553   6.305  0.4421  0.2008 -0.2683
 2649TIP3    H129582   1.115   6.632   6.360 -1.9569  1.0660 -1.3522
 2649TIP3    H229583   1.165   6.576   6.228  1.1119  0.1307  0.1588
 2650TIP3   OH229584   1.335   3.731   6.505  0.4786  0.3638 -0.1992
 2650TIP3    H129585   1.357   3.720   6.598 -2.1896  1.1430  0.5818
 2650TIP3    H229586   1.300   3.646   6.478  1.4821  0.0626 -0.5858
 2651TIP3   OH229587   1.766   5.831   0.442 -0.4979 -0.2189  0.3267
 2651TIP3    H129588   1.729   5.752   0.403  2.0373 -0.9321 -0.7073
 2651TIP3    H229589   1.834   5.859   0.380 -1.4944  2.9138  0.5364
 2652TIP3   OH229590   5.512   5.946   7.837  0.7252  0.0883  0.8358
 2652TIP3    H129591   5.549   6.031   7.862  0.4009  0.0656  1.4098
 2652TIP3    H229592   5.505   5.899   7.920  1.7203 -0.8242  0.4103
 2653TIP3   OH229593   2.502   5.087   1.268  0.0451  0.3016  0.4807
 2653TIP3    H129594   2.457   5.163   1.307 -1.1396  0.8179 -1.8107
 2653TIP3    H229595   2.590   5.119   1.249  0.0508  0.6053  1.0027
 2654TIP3   OH229596   3.586   0.752   6.743  0.2923  0.3274  0.7449
 2654TIP3    H129597   3.631   0.736   6.660 -0.0953  0.8602  0.4340
 2654TIP3    H229598   3.537   0.671   6.759 -0.7212  0.7481 -0.2343
 2655TIP3   OH229599   3.204   6.123   7.408 -0.3442  0.1061  0.0861
 2655TIP3    H129600   3.150   6.044   7.404 -1.6652  0.9579  0.7461
 2655TIP3    H229601   3.180   6.164   7.491  0.5706  1.0451 -0.0982
 2656TIP3   OH229602   3.326   4.456   1.055 -0.1501  0.1517 -0.3658
 2656TIP3    H129603   3.305   4.521   0.988  1.4107 -0.3786 -1.4208
 2656TIP3    H229604   3.396   4.497   1.107  1.5394 -1.0160 -1.6490
 2657TIP3   OH229605   2.836   2.187   0.583  0.0716  0.2697 -0.1943
 2657TIP3    H129606   2.756   2.158   0.539 -1.1091  1.2534  1.2198
 2657TIP3    H229607   2.896   2.210   0.513 -1.7362  1.7611 -1.2859
 2658TIP3   OH229608   2.909   6.027   7.412  0.1074 -0.4111  0.6820
 2658TIP3    H129609   2.836   6.046   7.353  1.2338 -0.1427 -0.6287
 2658TIP3    H229610   2.912   6.101   7.472  1.4869  1.2979 -1.4375
 2659TIP3   OH229611   2.825   6.574   6.587  0.4321 -0.2145 -0.0015
 2659TIP3    H129612   2.782   6.613   6.510  0.0257 -0.0782  0.2914
 2659TIP3    H229613   2.907   6.538   6.553  0.2953 -0.0775 -0.4846
 2660TIP3   OH229614   0.903   5.866   5.888 -0.0223 -0.5559  0.3717
 2660TIP3    H129615   0.836   5.815   5.933 -0.6179 -1.3765 -1.3824
 2660TIP3    H229616   0.971   5.802   5.867  0.5241 -0.0674  0.6381
 2661TIP3   OH229617   4.211   0.481   6.140  0.2625  0.6662 -0.3551
 2661TIP3    H129618   4.152   0.411   6.113 -1.0434  1.1313  1.1805
 2661TIP3    H229619   4.154   0.558   6.149  1.3294  1.4418 -0.0872
 2662TIP3   OH229620   1.476   5.568   7.157 -0.1447 -0.6492  0.0306
 2662TIP3    H129621   1.513   5.503   7.216  1.1304  0.4364  0.4263
 2662TIP3    H229622   1.547   5.629   7.139 -0.8144 -0.3458 -1.7622
 2663TIP3   OH229623   4.377   0.160   7.208 -0.0255 -0.2325  0.0498
 2663TIP3    H129624   4.400   0.083   7.155 -0.9504 -0.9529  0.6703
 2663TIP3    H229625   4.417   0.143   7.293 -0.9236 -0.4173  0.4387
 2664TIP3   OH229626   3.774   5.153   6.222  0.1178  0.0734  0.5899
 2664TIP3    H129627   3.792   5.077   6.167  0.4690  1.8258 -1.7537
 2664TIP3    H229628   3.809   5.129   6.308  1.9652 -1.6598 -0.6036
 2665TIP3   OH229629   2.342   5.065   6.884  0.3020  0.2974  0.0798
 2665TIP3    H129630   2.277   5.040   6.950  0.9248  0.5276  0.7770
 2665TIP3    H229631   2.295   5.056   6.800 -0.5325  0.1643  0.5555
 2666TIP3   OH229632   3.875   6.545   7.417 -0.6765  0.0385  0.2252
 2666TIP3    H129633   3.808   6.565   7.351  0.3847  0.6694 -0.6808
 2666TIP3    H229634   3.944   6.500   7.368  0.9197  2.0840  0.5267
 2667TIP3   OH229635   2.555   6.128   1.245 -0.6743  0.6667 -0.0015
 2667TIP3    H129636   2.633   6.091   1.204  0.0086  2.6582 -0.5646
 2667TIP3    H229637   2.524   6.060   1.305 -0.4640 -1.4762 -2.2353
 2668TIP3   OH229638   3.157   6.381   7.221  0.5826  0.1047 -0.1372
 2668TIP3    H129639   3.152   6.304   7.278 -0.0303  0.6420  0.5331
 2668TIP3    H229640   3.198   6.449   7.274 -0.3140  0.7151 -0.2120
 2669TIP3   OH229641   3.424   0.525   6.839 -0.0721  0.2946 -0.1797
 2669TIP3    H129642   3.344   0.473   6.840  1.2171 -1.7459  2.4225
 2669TIP3    H229643   3.495   0.460   6.840  1.5805  2.0733  0.8110
 2670TIP3   OH229644   3.154   1.240   8.143  0.6645 -0.1193 -0.0594
 2670TIP3    H129645   3.148   1.318   8.198  3.5200  1.1875 -1.4540
 2670TIP3    H229646   3.071   1.237   8.096  0.7143  2.4279 -0.3961
 2671TIP3   OH229647   2.460   1.078   1.294 -0.1609  0.0371  0.6081
 2671TIP3    H129648   2.485   1.005   1.350  3.1369  0.4842 -0.1390
 2671TIP3    H229649   2.379   1.112   1.332  0.4838 -1.4106  3.3927
 2672TIP3   OH229650   1.056   4.572   7.213  0.1764  1.0378 -0.0846
 2672TIP3    H129651   1.090   4.558   7.124 -1.0253 -0.4581 -0.3403
 2672TIP3    H229652   0.991   4.642   7.203  0.2440  1.0672 -0.3382
 2673TIP3   OH229653   2.085   5.517   7.058  0.3829 -0.0768  0.0585
 2673TIP3    H129654   1.994   5.503   7.031 -0.7363  0.7965  3.1574
 2673TIP3    H229655   2.112   5.597   7.013  0.1782 -1.1813 -2.1023
 2674TIP3   OH229656   5.335   6.443   7.491  0.5528 -0.4006  0.8348
 2674TIP3    H129657   5.384   6.489   7.559 -1.7204  4.0014 -0.3051
 2674TIP3    H229658   5.359   6.487   7.410 -3.0736  0.0188 -0.0818
 2675TIP3   OH229659   1.729   7.316   7.455 -0.2741  0.5882 -0.1810
 2675TIP3    H129660   1.688   7.265   7.385  0.1531  0.8491 -0.6287
 2675TIP3    H229661   1.700   7.275   7.536 -1.5692  0.8820 -0.4912
 2676TIP3   OH229662   4.330   3.184   0.690 -0.2538  0.0040  0.3457
 2676TIP3    H129663   4.353   3.101   0.730 -0.6665 -0.3028 -0.0401
 2676TIP3    H229664   4.235   3.192   0.705 -0.1460  0.5925  0.7297
 2677TIP3   OH229665   3.845   4.994   7.386  0.1246 -0.2783  0.2149
 2677TIP3    H129666   3.928   5.000   7.339  0.2065 -0.2713  0.3589
 2677TIP3    H229667   3.840   5.077   7.435 -0.2869  0.0109 -0.3201
 2678TIP3   OH229668   1.977   0.169   7.336  0.4971 -0.1800 -0.3733
 2678TIP3    H129669   2.038   0.243   7.328  0.0496  0.2846  0.4750
 2678TIP3    H229670   1.993   0.134   7.423  0.2127 -0.6506 -0.5106
 2679TIP3   OH229671   1.808   7.321   6.228 -0.4337 -0.3917 -0.0910
 2679TIP3    H129672   1.861   7.243   6.214  1.4276  0.8205 -0.0507
 2679TIP3    H229673   1.763   7.305   6.311  0.0247 -1.3796 -0.0308
 2680TIP3   OH229674   4.622   1.836   7.742  0.3558 -0.2018 -0.1727
 2680TIP3    H129675   4.717   1.845   7.743  0.3086  0.1985  1.6472
 2680TIP3    H229676   4.593   1.903   7.680  1.2507 -0.3301 -0.7449
 2681TIP3   OH229677   1.325   4.373   0.523 -0.3142  0.1783  0.3203
 2681TIP3    H129678   1.356   4.339   0.607  0.6251  0.2111 -0.0051
 2681TIP3    H229679   1.230   4.368   0.529 -0.2624  0.5729  1.5441
 2682TIP3   OH229680   0.768   3.114   6.620 -0.7471 -0.2272 -1.0106
 2682TIP3    H129681   0.750   3.208   6.627 -0.7556 -0.3358  0.6206
 2682TIP3    H229682   0.713   3.084   6.548 -1.4181  0.8519 -0.9473
 2683TIP3   OH229683   2.724   1.432   0.431  0.0004  0.0603  0.0659
 2683TIP3    H129684   2.642   1.481   0.434 -1.1666 -1.9260  1.4516
 2683TIP3    H229685   2.777   1.470   0.501  0.6268  1.8914 -1.3476
 2684TIP3   OH229686   1.935   1.380   1.512 -0.1698 -0.3502  0.2833
 2684TIP3    H129687   1.917   1.473   1.500  1.2219 -0.2550 -1.2207
 2684TIP3    H229688   1.958   1.372   1.605  1.3110  1.1170  0.0817
 2685TIP3   OH229689   0.077   6.533   0.073  0.1047 -0.0919 -0.0474
 2685TIP3    H129690   0.073   6.547  -0.021 -1.0155  0.0006  0.0128
 2685TIP3    H229691  -0.001   6.575   0.108  0.8890  0.5298  1.0125
 2686TIP3   OH229692   0.336   0.008   7.571  0.1417 -0.6390 -0.0416
 2686TIP3    H129693   0.274  -0.021   7.637 -1.2261  0.3055 -0.8733
 2686TIP3    H229694   0.284   0.017   7.491  1.2700  0.5160 -0.6740
 2687TIP3   OH229695   4.621   1.007   0.822  0.4328  0.3899 -0.2741
 2687TIP3    H129696   4.709   1.005   0.860 -0.2926 -2.0592  1.3940
 2687TIP3    H229697   4.598   0.915   0.811 -2.6096  0.9684  0.9093
 2688TIP3   OH229698   5.638   5.250   8.227 -0.0104 -0.9992 -0.7347
 2688TIP3    H129699   5.716   5.304   8.220 -0.4659 -0.0536  1.1436
 2688TIP3    H229700   5.643   5.190   8.153  1.1419  0.7852 -2.1385
 2689TIP3   OH229701   3.289   4.739   0.234 -0.1263  0.0424 -0.3476
 2689TIP3    H129702   3.214   4.681   0.250 -1.0500  0.5368 -2.6894
 2689TIP3    H229703   3.254   4.808   0.177  1.8895  0.7950 -0.6993
 2690TIP3   OH229704   4.417   0.977   1.735 -0.0932 -0.9205 -0.5091
 2690TIP3    H129705   4.348   0.954   1.798 -0.3588  0.4584 -0.2832
 2690TIP3    H229706   4.372   0.978   1.651 -0.2682 -0.4251 -0.4134
 2691TIP3   OH229707   2.896   1.327   8.027  0.0392  0.5616 -0.0915
 2691TIP3    H129708   2.867   1.416   8.044 -2.4855 -0.3509  0.5709
 2691TIP3    H229709   2.921   1.328   7.934 -0.8171  1.7404 -0.3228
 2692TIP3   OH229710   7.210   4.366   6.769  0.8237 -0.4582  0.1492
 2692TIP3    H129711   7.117   4.385   6.768  1.0350  0.8475  1.7610
 2692TIP3    H229712   7.233   4.349   6.678 -0.8716 -0.1769 -0.3370
 2693TIP3   OH229713   1.735   6.897   6.918 -0.1835  0.2266 -0.1647
 2693TIP3    H129714   1.826   6.869   6.912  0.1831  1.3034  0.2721
 2693TIP3    H229715   1.732   6.980   6.869 -0.2702  1.7361  2.3198
 2694TIP3   OH229716   4.921   7.186   7.021 -0.1838  0.5919  0.0109
 2694TIP3    H129717   4.911   7.169   6.927 -0.1649  1.2939 -0.1229
 2694TIP3    H229718   4.852   7.250   7.041  0.5748  1.3446  0.2245
 2695TIP3   OH229719   1.514   5.971   6.957 -0.0237  0.1049 -0.1650
 2695TIP3    H129720   1.610   5.973   6.953 -0.0974  1.6421 -1.6975
 2695TIP3    H229721   1.494   5.969   7.050  1.5153 -2.4212  0.1604
 2696TIP3   OH229722   1.987   0.578   6.888  0.4394 -0.2064  0.1875
 2696TIP3    H129723   2.060   0.543   6.837 -0.9237  0.6643 -2.4608
 2696TIP3    H229724   1.910   0.555   6.837 -0.8222  2.4009  0.8554
 2697TIP3   OH229725   2.198   1.180   6.328  0.5882  0.2552  0.3205
 2697TIP3    H129726   2.114   1.147   6.361  0.0349 -0.0480 -1.3329
 2697TIP3    H229727   2.174   1.257   6.277  1.2956  0.0277 -0.3565
 2698TIP3   OH229728   1.349   5.756   8.078  0.1150 -0.6002  0.3723
 2698TIP3    H129729   1.315   5.787   7.994 -1.2486  1.9250  1.7775
 2698TIP3    H229730   1.439   5.788   8.081  0.6266 -1.9167 -0.7153
 2699TIP3   OH229731   3.423   5.386   6.555 -0.1356  0.1250 -0.3061
 2699TIP3    H129732   3.353   5.357   6.496 -0.1779  1.3962 -0.8955
 2699TIP3    H229733   3.420   5.324   6.628 -0.3156 -1.2601 -1.4648
 2700TIP3   OH229734   3.524   1.328   7.516  0.4717 -0.0223  0.2185
 2700TIP3    H129735   3.492   1.333   7.426  0.9083  1.9479  0.1618
 2700TIP3    H229736   3.619   1.324   7.507  0.5611  1.1088  0.6143
 2701TIP3   OH229737   1.513   0.872   7.230  0.3670 -0.3834  0.1895
 2701TIP3    H129738   1.565   0.907   7.302  2.2949  1.0957 -1.8453
 2701TIP3    H229739   1.440   0.827   7.272  1.5216  0.3227  3.0426
 2702TIP3   OH229740   6.408   0.861   1.821  0.0569 -0.2422  0.5523
 2702TIP3    H129741   6.460   0.897   1.749 -1.6208 -0.0411 -0.5928
 2702TIP3    H229742   6.453   0.889   1.900  2.8711 -1.8332 -0.4112
 2703TIP3   OH229743   4.229   6.036   0.515  0.2355 -0.0448 -0.7985
 2703TIP3    H129744   4.263   6.118   0.479  3.0832 -1.4358 -1.4293
 2703TIP3    H229745   4.280   6.022   0.595  2.3145 -2.8803 -2.4964
 2704TIP3   OH229746   1.692   6.531   6.188 -0.1786 -0.2139 -0.0018
 2704TIP3    H129747   1.703   6.609   6.135  2.2665  0.4687  1.4505
 2704TIP3    H229748   1.757   6.469   6.154 -1.1936 -1.1562 -0.2748
 2705TIP3   OH229749   2.438   5.811   7.372  0.4161 -0.0982 -0.3432
 2705TIP3    H129750   2.469   5.895   7.408  2.0188 -0.4203 -0.9427
 2705TIP3    H229751   2.518   5.766   7.344 -0.4655 -1.7139 -0.2855
 2706TIP3   OH229752   3.063   1.471   8.315 -0.3694 -0.4430  0.1380
 2706TIP3    H129753   3.139   1.522   8.344 -0.5559 -1.1765  1.9265
 2706TIP3    H229754   2.998   1.482   8.385 -0.6633 -2.5758  0.2161
 2707TIP3   OH229755   2.221   1.343   1.161 -0.5300 -0.0478  0.1188
 2707TIP3    H129756   2.229   1.430   1.121  0.6322 -0.8874 -1.5063
 2707TIP3    H229757   2.201   1.361   1.253  0.6780  1.9534  0.0206
 2708TIP3   OH229758   3.466   0.078   8.248 -0.9399  0.0324  0.6449
 2708TIP3    H129759   3.383   0.062   8.293 -1.3347 -1.1389 -0.4721
 2708TIP3    H229760   3.461   0.171   8.223 -2.4392 -0.3144 -0.4342
 2709TIP3   OH229761   2.250   4.835   7.617 -0.2292  0.5539  0.2559
 2709TIP3    H129762   2.314   4.892   7.659 -1.1813  1.5841  0.3047
 2709TIP3    H229763   2.195   4.803   7.688 -0.8481  1.0343 -0.0141
 2710TIP3   OH229764   2.346   7.214   6.788  0.6043  0.1682 -0.4018
 2710TIP3    H129765   2.433   7.222   6.748  1.3404 -1.1365  0.8754
 2710TIP3    H229766   2.358   7.150   6.859 -1.1077  0.9616  0.6376
 2711TIP3   OH229767   6.269   4.474   0.388 -0.8274  0.1734  0.1619
 2711TIP3    H129768   6.300   4.385   0.373 -2.4847 -0.3769 -0.1032
 2711TIP3    H229769   6.262   4.512   0.301  1.9366  1.3128  0.3866
 2712TIP3   OH229770   1.854   6.316   6.161 -0.4581  0.2766  0.3269
 2712TIP3    H129771   1.800   6.254   6.210  1.6233 -2.0635 -0.1953
 2712TIP3    H229772   1.941   6.308   6.200  0.4187  0.9699 -1.4162
 2713TIP3   OH229773   6.630   6.444   1.111  0.5798  0.0300  0.1235
 2713TIP3    H129774   6.689   6.444   1.036 -1.0897  0.4209 -1.2007
 2713TIP3    H229775   6.592   6.532   1.112 -0.8464 -0.5800  0.2603
 2714TIP3   OH229776   2.332   5.830   7.661 -0.4145 -0.3690  0.5825
 2714TIP3    H129777   2.373   5.818   7.576 -0.1559  1.1668  0.4847
 2714TIP3    H229778   2.272   5.755   7.670 -1.9078  0.5023 -1.7767
 2715TIP3   OH229779   0.830   6.111   7.866  0.2726 -0.1926  0.1041
 2715TIP3    H129780   0.925   6.095   7.868  0.3826  0.4708  0.2172
 2715TIP3    H229781   0.811   6.154   7.949  0.0594  0.7142 -0.4071
 2716TIP3   OH229782   4.020   5.790   8.456  0.3111  0.0223  0.0374
 2716TIP3    H129783   4.040   5.852   8.527 -1.7784 -0.8330  1.4215
 2716TIP3    H229784   3.948   5.831   8.408  0.5341 -0.2389 -0.5234
 2717TIP3   OH229785   2.470   5.294   6.840  0.3357  0.5814 -0.0293
 2717TIP3    H129786   2.426   5.212   6.862  0.1410  0.6771 -0.0633
 2717TIP3    H229787   2.434   5.358   6.901 -0.0965  0.8122 -0.5248
 2718TIP3   OH229788   3.468   0.577   0.895  0.4711  0.2084  0.1094
 2718TIP3    H129789   3.490   0.663   0.933 -0.1628  0.2289  0.4425
 2718TIP3    H229790   3.548   0.525   0.905  0.8411  0.7435 -0.0436
 2719TIP3   OH229791   3.374   5.868   8.288 -0.3457  0.1404  0.1658
 2719TIP3    H129792   3.297   5.892   8.236 -0.5032 -0.3555  0.1630
 2719TIP3    H229793   3.402   5.784   8.251 -0.2552 -0.0482  0.6577
 2720TIP3   OH229794   3.771   2.743   6.766 -0.0364 -0.0237  0.6909
 2720TIP3    H129795   3.743   2.728   6.856 -2.3179 -0.2257 -0.0364
 2720TIP3    H229796   3.723   2.821   6.738  0.1721 -0.3363 -0.5600
 2721TIP3   OH229797   5.244   6.334   1.203 -0.3991  0.0209  0.2081
 2721TIP3    H129798   5.205   6.309   1.287  1.3840 -1.8241  0.5320
 2721TIP3    H229799   5.190   6.291   1.137  0.0815 -1.1656  0.5760
 2722TIP3   OH229800   5.432   0.990   1.296 -1.2187  0.6678  0.1739
 2722TIP3    H129801   5.524   0.974   1.317 -1.7365 -1.8657  0.6045
 2722TIP3    H229802   5.428   1.084   1.279  1.0998  1.1225  1.9010
 2723TIP3   OH229803   2.790   0.988   6.051  0.2472  0.1173  0.0932
 2723TIP3    H129804   2.848   0.916   6.027  1.0961  1.6045 -2.5177
 2723TIP3    H229805   2.849   1.058   6.079 -0.5735 -0.1829  2.7025
 2724TIP3   OH229806   2.052   0.046   0.205 -0.1034 -0.4327 -0.2401
 2724TIP3    H129807   1.983   0.044   0.138  0.6943  0.1950 -1.0827
 2724TIP3    H229808   2.092   0.132   0.196 -0.5256 -0.0067  1.6154
 2725TIP3   OH229809   1.960   0.071   7.083  0.0397  0.1946  0.0536
 2725TIP3    H129810   2.006   0.153   7.063  2.6191 -0.7052  2.0768
 2725TIP3    H229811   1.946   0.073   7.177  0.5249 -1.8772  0.2031
 2726TIP3   OH229812   1.783   5.459   6.643  0.6296 -0.1757 -0.2883
 2726TIP3    H129813   1.807   5.369   6.665  0.2372 -0.0746  0.5881
 2726TIP3    H229814   1.856   5.492   6.592  1.6939 -0.3290  1.1310
 2727TIP3   OH229815   0.245   6.279   2.243  0.2804 -0.6604  0.0852
 2727TIP3    H129816   0.311   6.255   2.308 -0.1296 -0.4371  0.5831
 2727TIP3    H229817   0.161   6.264   2.286  0.0131  0.2887 -0.0856
 2728TIP3   OH229818   0.591   6.163   8.122  0.4122 -0.2477  0.2252
 2728TIP3    H129819   0.682   6.185   8.142  0.6403 -0.3630 -0.6400
 2728TIP3    H229820   0.591   6.068   8.113  0.6701 -0.0892 -1.8872
 2729TIP3   OH229821   0.870   0.486   6.158  0.1875 -0.2366 -0.3816
 2729TIP3    H129822   0.920   0.550   6.107 -1.2521  1.4514  0.2314
 2729TIP3    H229823   0.861   0.410   6.100  1.9018  0.1351 -1.1477
 2730TIP3   OH229824   4.121   5.155   7.565 -0.1500  0.0934  0.2501
 2730TIP3    H129825   4.180   5.169   7.492  1.7604  1.3776  1.9715
 2730TIP3    H229826   4.171   5.183   7.642 -2.0382 -1.3672  2.0622
 2731TIP3   OH229827   2.962   1.026   7.502  0.4886 -0.5912  0.4483
 2731TIP3    H129828   2.875   1.063   7.516  0.7528  0.1764  0.0499
 2731TIP3    H229829   2.946   0.941   7.462 -0.1271 -1.0560  1.6453
 2732TIP3   OH229830   2.945   0.479   7.206  0.0610  0.1545 -0.2777
 2732TIP3    H129831   2.989   0.537   7.143 -0.3014 -0.6588 -1.2941
 2732TIP3    H229832   2.855   0.511   7.209  0.1532  0.3881  0.0755
 2733TIP3   OH229833   1.719   6.719   1.909 -0.4862  0.2697  0.3395
 2733TIP3    H129834   1.651   6.653   1.895 -0.9532  0.6855  0.6206
 2733TIP3    H229835   1.674   6.791   1.954  0.4769 -0.1113  1.9747
 2734TIP3   OH229836   2.512   1.203   6.374  0.1227 -0.4549  0.5424
 2734TIP3    H129837   2.464   1.125   6.403 -0.3139 -0.7028 -0.8097
 2734TIP3    H229838   2.447   1.273   6.375 -0.3898 -0.8619 -1.6137
 2735TIP3   OH229839   1.613   6.199   0.104  0.0615  0.1893  0.7474
 2735TIP3    H129840   1.559   6.229   0.177 -0.3697  0.0405  0.4900
 2735TIP3    H229841   1.697   6.245   0.116 -0.0619  0.2893  1.2385
 2736TIP3   OH229842   1.541   3.435   6.512 -0.3536 -0.1488  0.3686
 2736TIP3    H129843   1.520   3.380   6.588  2.1281 -2.3312 -0.4496
 2736TIP3    H229844   1.636   3.427   6.503 -0.7170 -0.7664 -3.6002
 2737TIP3   OH229845   1.958   6.524   8.471 -0.0956  0.8417 -0.2440
 2737TIP3    H129846   1.982   6.518   8.379 -0.3037  2.0390 -0.3825
 2737TIP3    H229847   1.872   6.566   8.472 -0.8444 -0.6679  0.4185
 2738TIP3   OH229848   2.704   0.309   6.358  0.2822  0.2418 -0.3618
 2738TIP3    H129849   2.681   0.281   6.270  1.8045 -0.4273 -0.5639
 2738TIP3    H229850   2.701   0.405   6.355 -0.9789  0.1902 -0.7697
 2739TIP3   OH229851   5.075   0.082   6.927 -0.2481  0.2511 -0.3703
 2739TIP3    H129852   5.081   0.026   6.850 -1.1154  1.4386 -1.3155
 2739TIP3    H229853   4.988   0.122   6.921  0.4097  1.7874  0.2290
 2740TIP3   OH229854   2.092   0.337   8.183  0.0585 -0.0364  0.3140
 2740TIP3    H129855   2.006   0.373   8.202 -0.1926  0.3919 -1.4860
 2740TIP3    H229856   2.088   0.246   8.213 -1.0357 -0.0202  0.2190
 2741TIP3   OH229857   3.087   6.735   6.823 -0.3026 -0.1111 -0.1094
 2741TIP3    H129858   3.057   6.783   6.746 -0.0723 -1.5826 -1.1229
 2741TIP3    H229859   3.052   6.785   6.897 -2.0987  0.2793 -1.1958
 2742TIP3   OH229860   0.080   4.528   0.239 -0.9583 -0.1092  0.5800
 2742TIP3    H129861   0.071   4.590   0.166 -0.3322  0.3834  0.9162
 2742TIP3    H229862   0.063   4.442   0.200 -0.4833  0.1389 -0.1793
 2743TIP3   OH229863   0.502   6.816   0.360  0.0363  0.2514 -0.6683
 2743TIP3    H129864   0.451   6.892   0.389 -0.7650  0.2764 -2.1133
 2743TIP3    H229865   0.592   6.848   0.352 -0.1326  0.8017 -0.3505
 2744TIP3   OH229866   5.316   6.325   6.306 -0.8259  0.4569  0.6819
 2744TIP3    H129867   5.278   6.374   6.232 -0.0751  1.3360  0.8740
 2744TIP3    H229868   5.242   6.274   6.340 -0.9253 -0.8677 -1.3934
 2745TIP3   OH229869   5.009   5.872   7.050 -0.1880 -0.3118  0.1776
 2745TIP3    H129870   4.918   5.899   7.063 -0.2364 -0.2872 -0.1974
 2745TIP3    H229871   5.007   5.777   7.053 -0.4531 -0.3628 -1.2439
 2746TIP3   OH229872   1.377   5.240   8.155 -0.3244  0.3728 -0.1959
 2746TIP3    H129873   1.418   5.327   8.156  0.6476  0.0034 -3.3319
 2746TIP3    H229874   1.361   5.222   8.063 -0.7152 -2.7067  0.4182
 2747TIP3   OH229875   1.011   5.054   1.931  0.3261 -0.4401 -0.1964
 2747TIP3    H129876   1.011   5.145   1.901  2.1131 -0.9068 -1.6914
 2747TIP3    H229877   0.958   5.056   2.011 -1.5336  1.4813 -1.4043
 2748TIP3   OH229878   4.784   5.663   1.093 -0.0844 -0.1959 -0.2138
 2748TIP3    H129879   4.760   5.750   1.125 -1.0016 -1.0313  1.4125
 2748TIP3    H229880   4.703   5.613   1.096  0.7237 -1.5035  0.2421
 2749TIP3   OH229881   3.060   6.952   6.026  0.0840 -0.0016  0.1810
 2749TIP3    H129882   3.091   6.863   6.010 -1.5350 -0.5994  0.2489
 2749TIP3    H229883   3.137   7.008   6.013  0.6434 -1.2089 -1.8851
 2750TIP3   OH229884   7.039   4.346   0.165 -0.0958  0.9565 -0.2801
 2750TIP3    H129885   7.058   4.426   0.117  0.7636  0.7559 -0.2889
 2750TIP3    H229886   6.954   4.317   0.131 -0.2348  1.6680 -0.5366
 2751TIP3   OH229887   1.902   6.508   6.889  0.2769 -0.5639  0.0557
 2751TIP3    H129888   1.812   6.484   6.912  0.1661 -1.3483 -1.1709
 2751TIP3    H229889   1.931   6.563   6.962 -1.2936 -0.0653  0.3202
 2752TIP3   OH229890   0.947   7.036   7.527  0.0441 -0.5912 -0.4179
 2752TIP3    H129891   0.916   7.113   7.574 -0.2478 -0.7771 -0.3073
 2752TIP3    H229892   1.010   6.996   7.587 -0.6216 -1.0465 -0.0219
 2753TIP3   OH229893   2.655   1.218   6.696  0.1324  0.1137 -0.3023
 2753TIP3    H129894   2.685   1.309   6.699  1.3619 -0.2959  0.4916
 2753TIP3    H229895   2.560   1.224   6.701  0.1718  1.3799 -0.7862
 2754TIP3   OH229896   2.360   6.621   6.236  0.7038  0.6896 -0.3624
 2754TIP3    H129897   2.451   6.636   6.211  0.6447 -0.5875 -1.3981
 2754TIP3    H229898   2.330   6.706   6.269  1.9657  1.3795 -0.9476
 2755TIP3   OH229899   4.113   7.011   8.019  0.0747  0.0725  0.1072
 2755TIP3    H129900   4.102   6.916   8.017  2.0175 -0.1664 -0.2034
 2755TIP3    H229901   4.179   7.029   7.952  1.1620  1.4263  1.5069
 2756TIP3   OH229902   1.432   5.341   0.963 -0.3885  0.2161 -0.4408
 2756TIP3    H129903   1.422   5.342   1.058 -1.1743  0.2638 -0.5202
 2756TIP3    H229904   1.525   5.358   0.948 -0.3156  0.4817  0.3084
 2757TIP3   OH229905   1.066   5.743   6.260 -0.1829 -0.8130  0.2152
 2757TIP3    H129906   1.011   5.794   6.320  0.9955 -0.1536  0.7389
 2757TIP3    H229907   1.149   5.790   6.257  0.7049 -2.3662  0.2062
 2758TIP3   OH229908   5.791   5.262   6.429  0.2951  0.4527  0.4505
 2758TIP3    H129909   5.833   5.271   6.343  0.4850 -1.6566  0.2990
 2758TIP3    H229910   5.731   5.335   6.434 -1.2232 -0.5365 -2.3672
 2759TIP3   OH229911   1.739   6.753   6.019  0.2949 -0.1580 -0.1304
 2759TIP3    H129912   1.784   6.800   6.089 -0.6815 -0.3993  0.6709
 2759TIP3    H229913   1.795   6.765   5.942  2.5860 -1.8061  1.2107
 2760TIP3   OH229914   0.524   5.142   6.279 -0.3059  0.4286 -0.2989
 2760TIP3    H129915   0.606   5.190   6.295 -0.9055  2.1213 -2.0966
 2760TIP3    H229916   0.540   5.093   6.199 -0.4657 -0.6090  0.3030
 2761TIP3   OH229917   2.038   4.741   6.673  0.3383  0.0004 -0.3815
 2761TIP3    H129918   2.096   4.709   6.603 -0.5328  0.0500 -1.1379
 2761TIP3    H229919   1.975   4.798   6.628 -0.3757 -0.1537  0.4106
 2762TIP3   OH229920   3.184   5.671   0.649 -0.3948  0.1649 -0.3806
 2762TIP3    H129921   3.141   5.727   0.714 -0.7600 -0.8664  0.2772
 2762TIP3    H229922   3.157   5.707   0.565 -2.1526 -0.1638  0.0283
 2763TIP3   OH229923   4.652   4.252   7.784  0.3567  0.0886 -0.6432
 2763TIP3    H129924   4.727   4.205   7.821  0.0093  0.2143  0.2354
 2763TIP3    H229925   4.688   4.334   7.751  0.6688 -0.0140 -0.5523
 2764TIP3   OH229926   3.336   5.825   7.161 -0.6344  0.2788  0.4178
 2764TIP3    H129927   3.387   5.752   7.196 -0.9501 -0.7466 -1.1888
 2764TIP3    H229928   3.399   5.897   7.152  0.0000 -0.2386  0.6774
 2765TIP3   OH229929   0.992   4.007   1.611 -0.4762 -0.1458 -0.6800
 2765TIP3    H129930   1.050   4.072   1.570 -1.5987  0.7430 -0.9007
 2765TIP3    H229931   1.001   4.023   1.705 -0.9484  0.5244 -0.7422
 2766TIP3   OH229932   5.449   6.543   7.738 -0.3078  0.2192  0.3767
 2766TIP3    H129933   5.409   6.541   7.825  0.5222  0.0377  0.7634
 2766TIP3    H229934   5.540   6.518   7.753 -0.4739 -1.1264 -0.7226
 2767TIP3   OH229935   4.753   2.314   0.274 -0.2417 -0.4640 -0.0487
 2767TIP3    H129936   4.673   2.303   0.326  0.1934 -0.6131  0.5955
 2767TIP3    H229937   4.766   2.228   0.232  0.2387 -0.8115  0.7983
 2768TIP3   OH229938   1.525   6.055   8.374  0.0726  0.1359 -0.0161
 2768TIP3    H129939   1.528   5.963   8.398 -1.8368  0.0799  0.0856
 2768TIP3    H229940   1.552   6.101   8.453  1.2204 -0.3466 -0.1255
 2769TIP3   OH229941   4.334   1.020   0.124 -0.1051  0.4327  0.4105
 2769TIP3    H129942   4.373   1.101   0.155 -0.7365  0.3115  1.5907
 2769TIP3    H229943   4.244   1.044   0.100 -0.9190 -0.2618  2.6173
 2770TIP3   OH229944   3.601   7.339   8.030  0.2330  0.1637 -0.0042
 2770TIP3    H129945   3.540   7.354   8.102  0.0132  1.5583 -0.4496
 2770TIP3    H229946   3.593   7.418   7.976  1.5138 -0.1896 -0.7316
 2771TIP3   OH229947   2.991   6.525   7.672 -0.0744 -0.1405 -0.3531
 2771TIP3    H129948   3.018   6.613   7.699 -0.6590  0.2802 -1.1199
 2771TIP3    H229949   2.917   6.540   7.613 -0.7635 -1.1918  0.2250
 2772TIP3   OH229950   2.238   5.176   7.198 -0.0494  0.2048 -0.1922
 2772TIP3    H129951   2.269   5.247   7.141  1.3540 -1.7430 -1.9357
 2772TIP3    H229952   2.317   5.124   7.216 -1.2171 -1.4206  0.3226
 2773TIP3   OH229953   6.358   5.528   0.688 -0.1249 -0.1631  0.5774
 2773TIP3    H129954   6.443   5.570   0.703 -0.4832  1.0455 -0.6591
 2773TIP3    H229955   6.302   5.561   0.758  0.6697 -1.7314  1.9836
 2774TIP3   OH229956   4.911   5.066   6.822  0.1960  0.4762 -0.5885
 2774TIP3    H129957   4.997   5.036   6.853  1.2859  1.8023 -2.2024
 2774TIP3    H229958   4.929   5.101   6.735 -2.3040 -0.8435 -1.6960
 2775TIP3   OH229959   5.605   0.782   7.109 -0.1149  0.2070 -0.4052
 2775TIP3    H129960   5.527   0.729   7.124  0.8786 -1.6098 -1.5042
 2775TIP3    H229961   5.646   0.743   7.031  3.2254 -0.4898  1.6029
 2776TIP3   OH229962   3.688   6.825   5.952 -0.4954 -0.2668 -0.0955
 2776TIP3    H129963   3.668   6.879   5.875  0.4212  0.5651  0.2401
 2776TIP3    H229964   3.675   6.735   5.922 -3.5544  0.1628 -0.2332
 2777TIP3   OH229965   2.106   6.377   6.442  0.1031 -0.5912  0.1172
 2777TIP3    H129966   2.191   6.356   6.402  0.1563 -1.3184  0.5978
 2777TIP3    H229967   2.119   6.362   6.535 -0.3542 -0.0085  0.2786
 2778TIP3   OH229968   3.771   0.742   1.299 -0.5735 -0.5975 -0.3249
 2778TIP3    H129969   3.822   0.695   1.232  0.3528  1.6655 -1.2530
 2778TIP3    H229970   3.720   0.806   1.249 -0.8117  0.2860  1.0393
 2779TIP3   OH229971   2.463   3.963   7.977  0.3444  0.0416  0.2011
 2779TIP3    H129972   2.435   3.877   8.008 -0.0468  0.1174  0.0559
 2779TIP3    H229973   2.500   3.946   7.890 -1.6834  0.3213 -0.7466
 2780TIP3   OH229974   3.101   5.755   6.913 -0.1981 -0.8293 -0.0710
 2780TIP3    H129975   3.191   5.724   6.922 -0.2679 -0.8105  0.7512
 2780TIP3    H229976   3.083   5.801   6.995 -0.1756  1.1679 -1.1600
 2781TIP3   OH229977   2.150   0.706   8.174  0.0019  0.3747 -0.5928
 2781TIP3    H129978   2.199   0.625   8.185 -0.0327  0.3555 -0.5797
 2781TIP3    H229979   2.211   0.775   8.201 -0.1572  0.3125 -0.0799
 2782TIP3   OH229980   5.354   0.964   8.490 -0.5235  0.2841 -0.5505
 2782TIP3    H129981   5.417   0.928   8.428  0.0770 -0.2544  0.3540
 2782TIP3    H229982   5.272   0.918   8.471 -0.3216  0.0658 -0.8888
 2783TIP3   OH229983   4.149   3.999   2.761 -0.2370  0.1472  0.6517
 2783TIP3    H129984   4.212   3.944   2.716 -0.5136 -0.3075  0.8176
 2783TIP3    H229985   4.067   3.950   2.757 -0.3232  0.2214  1.4248
 2784TIP3   OH229986   7.149   4.038   1.710  0.4087  0.0389 -0.7127
 2784TIP3    H129987   7.188   4.086   1.783  1.4029 -0.0206 -1.2044
 2784TIP3    H229988   7.200   4.065   1.634  1.0829 -1.9338 -0.9655
 2785TIP3   OH229989   7.105   5.632   8.208  0.7280  0.4101  0.1697
 2785TIP3    H129990   7.011   5.646   8.193  0.7265 -0.9540 -1.2825
 2785TIP3    H229991   7.130   5.566   8.143  2.3075 -0.5723  1.7217
 2786TIP3   OH229992   4.262   4.158   8.172  0.1406 -0.0687 -0.4829
 2786TIP3    H129993   4.312   4.077   8.169  1.1928  0.4444  2.0518
 2786TIP3    H229994   4.327   4.226   8.192 -1.1206  1.0156  0.0395
 2787TIP3   OH229995   2.868   5.087   6.469 -0.2322  0.7799  0.1281
 2787TIP3    H129996   2.814   5.024   6.422  1.8193 -1.4239  0.6148
 2787TIP3    H229997   2.934   5.115   6.405  0.3430  0.5459  0.6054
 2788TIP3   OH229998   2.762   4.621   1.253 -0.5312 -0.1661  0.0107
 2788TIP3    H129999   2.745   4.629   1.159  0.8175 -1.3825 -0.3589
 2788TIP3    H230000   2.796   4.533   1.264 -0.8828 -0.1141  1.6918
 2789TIP3   OH230001   3.795   5.437   7.096  0.6156 -0.1650 -0.2950
 2789TIP3    H130002   3.726   5.452   7.031  1.1660  0.3367 -0.7749
 2789TIP3    H230003   3.870   5.407   7.046  1.2814  0.9419  0.0028
 2790TIP3   OH230004   2.271   7.136   7.245  0.4479  0.8484  0.2614
 2790TIP3    H130005   2.356   7.177   7.230  0.8802  0.3077  1.2150
 2790TIP3    H230006   2.238   7.177   7.325 -0.1900  1.0565 -0.1063
 2791TIP3   OH230007   3.344   6.184   2.146 -0.5638 -0.0224  0.0207
 2791TIP3    H130008   3.361   6.122   2.218  1.3936  1.0100  0.4681
 2791TIP3    H230009   3.426   6.188   2.097 -1.9167 -0.7906 -2.3734
 2792TIP3   OH230010   2.911   6.582   8.225 -0.2561  0.3788 -0.7319
 2792TIP3    H130011   2.847   6.618   8.286 -0.5412  0.4660 -1.0857
 2792TIP3    H230012   2.904   6.637   8.147  0.2892  0.4250 -0.7495
 2793TIP3   OH230013   4.180   0.385   2.559  0.0438 -0.0602 -0.3497
 2793TIP3    H130014   4.180   0.440   2.637 -1.0064  0.7731 -0.9202
 2793TIP3    H230015   4.273   0.371   2.539  0.3077 -0.3528  1.0893
 2794TIP3   OH230016   4.269   4.096   6.840 -0.1813 -0.1341  0.0695
 2794TIP3    H130017   4.349   4.142   6.866 -0.9739  1.0112  0.5518
 2794TIP3    H230018   4.299   4.023   6.787  1.2345 -0.1316  0.8468
 2795TIP3   OH230019   2.410   6.333   6.547 -0.1396  0.3414  0.3845
 2795TIP3    H130020   2.369   6.274   6.483 -0.1583  0.3535  0.3853
 2795TIP3    H230021   2.498   6.347   6.513 -0.0864  0.1953  0.4629
 2796TIP3   OH230022   5.747   4.716   7.665  0.2732 -0.1241 -0.1744
 2796TIP3    H130023   5.813   4.785   7.657 -0.7053  0.9622  1.0964
 2796TIP3    H230024   5.796   4.641   7.698  1.1936  0.1632 -0.8560
 2797TIP3   OH230025   2.687   5.632   6.890  0.5418  0.3150 -0.6203
 2797TIP3    H130026   2.651   5.575   6.822 -0.1643  1.3262 -1.1026
 2797TIP3    H230027   2.762   5.584   6.924 -0.3998 -1.1895 -0.6044
 2798TIP3   OH230028   2.865   0.753   6.500 -0.6646  0.4056  0.1824
 2798TIP3    H130029   2.794   0.691   6.520 -0.8161  0.3382 -0.5452
 2798TIP3    H230030   2.897   0.725   6.415  2.0835 -1.2526  1.6949
 2799TIP3   OH230031   4.162   1.351   8.473 -0.2167 -0.0239  0.5073
 2799TIP3    H130032   4.155   1.298   8.393 -0.5422  1.5391 -0.5392
 2799TIP3    H230033   4.115   1.300   8.539 -1.1614 -0.7114 -0.6467
 2800TIP3   OH230034   3.125   6.218   6.377 -0.2591 -0.4495  0.1550
 2800TIP3    H130035   3.176   6.299   6.384 -0.2677 -0.4161 -0.1525
 2800TIP3    H230036   3.191   6.150   6.361 -0.4088 -0.2321 -1.4781
 2801TIP3   OH230037   0.813   5.668   7.668  0.1666 -0.3796  0.0927
 2801TIP3    H130038   0.787   5.755   7.639 -0.3421 -0.4563  0.3084
 2801TIP3    H230039   0.775   5.608   7.605  1.2490 -0.4027 -0.5509
 2802TIP3   OH230040   2.971   6.679   0.162 -0.1751 -0.4614  0.0308
 2802TIP3    H130041   3.014   6.733   0.228 -0.7422 -0.4911  0.4300
 2802TIP3    H230042   2.980   6.590   0.195 -2.4275 -0.2775  1.2105
 2803TIP3   OH230043   3.326   7.069   6.376 -0.1297  0.6333  0.2025
 2803TIP3    H130044   3.334   7.147   6.320 -0.4868 -0.6108 -1.6278
 2803TIP3    H230045   3.377   7.002   6.331 -1.4733 -0.7544  0.7035
 2804TIP3   OH230046   0.084   7.072   7.126  0.0911  0.0729 -0.0330
 2804TIP3    H130047   0.034   7.002   7.084 -0.1517 -0.1356  0.6037
 2804TIP3    H230048   0.068   7.149   7.072 -1.9393  0.3238  0.8811
 2805TIP3   OH230049   2.482   5.726   8.216  0.3287  0.4504 -0.6127
 2805TIP3    H130050   2.402   5.737   8.266  1.1032  0.0870  0.7181
 2805TIP3    H230051   2.476   5.637   8.181 -1.2080  1.4324 -2.9874
 2806TIP3   OH230052   2.572   4.274   7.624 -0.2485 -0.1352 -0.1843
 2806TIP3    H130053   2.597   4.366   7.617 -2.2657  0.3697 -1.1331
 2806TIP3    H230054   2.502   4.274   7.690 -0.1008 -1.0295 -0.0218
 2807TIP3   OH230055   2.507   2.587   6.607  0.3735 -0.5733 -0.4955
 2807TIP3    H130056   2.426   2.571   6.657  0.6124 -0.7068 -0.1496
 2807TIP3    H230057   2.477   2.610   6.520 -0.0490 -0.4633 -0.3232
 2808TIP3   OH230058   4.241   4.390   0.819 -0.1763 -0.2361 -0.5407
 2808TIP3    H130059   4.246   4.469   0.766  0.8611 -1.1915 -1.8804
 2808TIP3    H230060   4.152   4.359   0.808  0.0485 -0.4503 -1.7521
 2809TIP3   OH230061   3.485   2.971   7.085  0.0337  0.8911 -0.0784
 2809TIP3    H130062   3.510   2.909   7.016  2.4173  0.5405  1.0326
 2809TIP3    H230063   3.539   3.048   7.068  0.9016  0.6745  1.5485
 2810TIP3   OH230064   3.298   6.021   6.355  0.0235 -0.3054 -0.3629
 2810TIP3    H130065   3.372   6.006   6.415 -1.1479  0.2277  1.2292
 2810TIP3    H230066   3.239   5.947   6.370 -0.8129  0.4247 -0.0443
 2811TIP3   OH230067   5.084   6.615   6.434  0.1132 -0.1803  0.0938
 2811TIP3    H130068   5.037   6.534   6.411  2.2087 -1.6576  0.7803
 2811TIP3    H230069   5.103   6.656   6.350 -1.2421 -0.2257 -0.2531
 2812TIP3   OH230070   2.117   1.174   6.694  0.3956  0.1630 -0.7063
 2812TIP3    H130071   2.058   1.236   6.737 -0.1110 -0.1675 -0.9272
 2812TIP3    H230072   2.062   1.126   6.633  0.7216 -0.7161 -0.3231
 2813TIP3   OH230073   5.920   1.121   7.005 -0.2875  0.4759 -0.0847
 2813TIP3    H130074   5.907   1.041   6.955 -1.2968  0.3839  0.3177
 2813TIP3    H230075   6.001   1.107   7.054 -0.5155 -0.3212  0.0555
 2814TIP3   OH230076   3.532   7.011   7.024  0.2608 -0.0501  0.2090
 2814TIP3    H130077   3.618   6.969   7.016  0.4175  0.5306 -1.3676
 2814TIP3    H230078   3.549   7.103   7.004 -0.5235  0.3187  1.1664
 2815TIP3   OH230079   4.893   5.345   2.094  0.6392  0.0673 -0.9100
 2815TIP3    H130080   4.944   5.423   2.071  2.1293 -0.5911  0.0624
 2815TIP3    H230081   4.948   5.298   2.157 -1.6106 -0.2097  0.8804
 2816TIP3   OH230082   2.967   3.147   6.509  0.4406 -0.3590 -0.1292
 2816TIP3    H130083   3.029   3.220   6.516  0.3473 -0.3262  0.3840
 2816TIP3    H230084   2.963   3.111   6.597 -0.8346  0.1016  0.0074
 2817TIP3   OH230085   6.586   0.291   6.705 -0.0895 -0.3021 -0.0115
 2817TIP3    H130086   6.556   0.273   6.616  2.0273 -1.5305 -0.5148
 2817TIP3    H230087   6.523   0.354   6.740 -1.5982 -0.7001 -1.9734
 2818TIP3   OH230088   5.614   6.016   6.463  0.3492 -0.0525  0.1433
 2818TIP3    H130089   5.653   6.091   6.508 -1.2610 -0.5088  2.3637
 2818TIP3    H230090   5.689   5.968   6.427  1.5293  1.4398  0.5595
 2819TIP3   OH230091   6.967   5.371   7.875 -0.6780  0.2676  0.1496
 2819TIP3    H130092   7.020   5.426   7.818 -1.1342 -0.2485 -0.7890
 2819TIP3    H230093   7.014   5.370   7.958  1.6443 -1.4675 -1.1305
 2820TIP3   OH230094   5.361   5.138   7.293  0.1563 -0.1285 -0.0611
 2820TIP3    H130095   5.389   5.130   7.202  0.2979 -1.1286  0.0612
 2820TIP3    H230096   5.356   5.232   7.309 -0.6779  0.0546 -1.3502
 2821TIP3   OH230097   2.021   4.073   0.660  0.2828  0.0571 -0.0998
 2821TIP3    H130098   2.008   4.002   0.722 -1.8468 -0.6333 -1.3017
 2821TIP3    H230099   1.972   4.147   0.697  1.3605  0.5003  0.4574
 2822TIP3   OH230100   0.124   0.697   7.079  0.1637  0.6476 -0.0718
 2822TIP3    H130101   0.070   0.775   7.086 -0.8871  0.1050 -1.7955
 2822TIP3    H230102   0.104   0.647   7.158 -2.3430  0.1888 -0.9435
 2823TIP3   OH230103   3.510   6.917   6.217 -0.4053  0.2024  0.5273
 2823TIP3    H130104   3.503   6.825   6.243 -1.5301 -0.7871 -3.0480
 2823TIP3    H230105   3.603   6.930   6.199 -0.1943 -0.1245  1.3569
 2824TIP3   OH230106   7.156   6.882   0.702  0.5272  0.6549  0.3493
 2824TIP3    H130107   7.145   6.851   0.792 -0.2100  1.8680  0.6798
 2824TIP3    H230108   7.215   6.818   0.663 -0.5959 -0.9244  1.1545
 2825TIP3   OH230109   3.507   6.569   7.527  0.0963 -0.1865 -0.2434
 2825TIP3    H130110   3.486   6.590   7.618  0.5471 -2.7884  0.5043
 2825TIP3    H230111   3.585   6.622   7.507  0.0977  0.2600  0.9349
 2826TIP3   OH230112   3.318   5.531   7.529 -0.1619 -0.8065  0.1568
 2826TIP3    H130113   3.279   5.480   7.600  0.6577  0.1805  1.3546
 2826TIP3    H230114   3.247   5.546   7.468 -0.7885 -2.0273  0.5645
 2827TIP3   OH230115   0.924   0.539   6.915  0.6694 -0.3443 -0.0512
 2827TIP3    H130116   0.855   0.484   6.951  0.5027 -0.1817 -0.1216
 2827TIP3    H230117   0.894   0.560   6.826  0.7022 -0.0869 -0.0012
 2828TIP3   OH230118   0.453   6.841   8.482  0.5043  0.4329  0.1495
 2828TIP3    H130119   0.364   6.818   8.510  0.6910 -0.8216 -0.2187
 2828TIP3    H230120   0.509   6.781   8.530  1.0699  0.5252 -0.3925
 2829TIP3   OH230121   3.121   0.992   8.247  0.6594 -0.0644  0.9749
 2829TIP3    H130122   3.134   0.949   8.163 -1.7001  1.3676 -0.1702
 2829TIP3    H230123   3.147   1.083   8.233  1.4555 -0.0918  2.1620
 2830TIP3   OH230124   4.622   4.651   7.404  0.3351  0.3861  0.0118
 2830TIP3    H130125   4.546   4.641   7.461  0.2068  0.8581 -0.0730
 2830TIP3    H230126   4.594   4.616   7.319 -0.3599  2.1087 -0.4881
 2831TIP3   OH230127   4.407   6.323   6.631  0.0963 -0.0871 -0.6393
 2831TIP3    H130128   4.460   6.326   6.552 -0.8151  0.0172 -1.2626
 2831TIP3    H230129   4.374   6.413   6.641  0.5780  0.0102  0.1212
 2832TIP3   OH230130   7.145   6.839   7.348 -0.0238  0.9858 -0.5379
 2832TIP3    H130131   7.142   6.744   7.338  1.3698  0.8198  0.4199
 2832TIP3    H230132   7.070   6.861   7.403  0.3143  0.2971  0.2032
 2833TIP3   OH230133   4.336   6.063   1.724  0.4094  0.2366 -0.5440
 2833TIP3    H130134   4.322   6.080   1.817 -0.6522  1.5295 -0.9358
 2833TIP3    H230135   4.431   6.070   1.713  0.4558  0.9836  0.2681
 2834TIP3   OH230136   4.838   6.159   0.170 -0.1381  0.4090  0.3840
 2834TIP3    H130137   4.930   6.173   0.193  0.5912 -1.2394 -1.3128
 2834TIP3    H230138   4.810   6.086   0.226 -1.0737  2.2999  2.4222
 2835TIP3   OH230139   5.549   6.581   7.367  0.0044 -1.0920 -0.0479
 2835TIP3    H130140   5.610   6.512   7.340  1.5823 -0.0176  0.6419
 2835TIP3    H230141   5.595   6.663   7.346 -1.4345 -0.2515  0.0061
 2836TIP3   OH230142   5.095   0.512   0.520  0.5298  0.2768  0.4731
 2836TIP3    H130143   5.029   0.573   0.552 -0.9985 -1.9174  1.6313
 2836TIP3    H230144   5.148   0.491   0.597  1.9601  1.2116 -0.2242
 2837TIP3   OH230145   6.819   6.726   7.905  0.0773 -0.1486  0.3884
 2837TIP3    H130146   6.887   6.728   7.838 -1.1149  1.9177 -0.7861
 2837TIP3    H230147   6.756   6.661   7.872 -0.0578  0.1995 -0.0445
 2838TIP3   OH230148   4.737   6.745   7.759  0.2899 -0.1457  0.2740
 2838TIP3    H130149   4.747   6.720   7.668  1.1791 -0.4273  0.4529
 2838TIP3    H230150   4.772   6.834   7.764 -3.1704  1.3739 -0.4355
 2839TIP3   OH230151   0.368   6.446   7.909 -0.0019  0.4123  0.2308
 2839TIP3    H130152   0.363   6.539   7.933 -1.2427  0.7225 -1.1795
 2839TIP3    H230153   0.458   6.435   7.876  0.2491  1.0364  0.6925
 2840TIP3   OH230154   6.592   0.316   6.109 -0.1484 -0.0358 -0.4714
 2840TIP3    H130155   6.591   0.235   6.159  1.5419 -0.5528 -1.2341
 2840TIP3    H230156   6.534   0.300   6.035 -0.1582 -0.3967 -0.3838
 2841TIP3   OH230157   0.747   6.039   1.270 -0.3330  0.3859 -0.8587
 2841TIP3    H130158   0.829   5.991   1.259 -1.0542 -1.2262  0.4310
 2841TIP3    H230159   0.772   6.131   1.270  1.4538 -0.0817 -0.7188
 2842TIP3   OH230160   5.512   0.005   6.956 -0.3469  0.0603 -0.0173
 2842TIP3    H130161   5.514  -0.090   6.964  0.4309  0.2303  2.1983
 2842TIP3    H230162   5.440   0.033   7.012  0.8667  0.9125  1.1462
 2843TIP3   OH230163   5.398   0.204   6.067  0.4046  0.1141  0.1271
 2843TIP3    H130164   5.357   0.186   5.983 -0.9870 -1.8223  1.1770
 2843TIP3    H230165   5.476   0.148   6.068 -1.7029 -2.9733  1.6830
 2844TIP3   OH230166   5.275   0.495   0.734  0.2156  0.5773 -0.2620
 2844TIP3    H130167   5.280   0.449   0.817  2.0685  1.6604  0.2623
 2844TIP3    H230168   5.354   0.469   0.687  1.2529  3.0895  0.0144
 2845TIP3   OH230169   5.105   4.194   6.883 -0.6195  0.1349  0.2326
 2845TIP3    H130170   5.043   4.224   6.816 -1.3769 -1.2539  0.2946
 2845TIP3    H230171   5.185   4.244   6.866 -1.1917  0.6674 -0.9575
 2846TIP3   OH230172   4.456   6.529   7.234  0.3951 -0.0927  0.3624
 2846TIP3    H130173   4.411   6.566   7.311  0.1301 -0.6073  0.4585
 2846TIP3    H230174   4.408   6.563   7.159 -1.2404 -2.0107  0.5042
 2847TIP3   OH230175   4.423   6.149   5.730 -0.3972 -0.9287 -0.1606
 2847TIP3    H130176   4.349   6.193   5.773 -0.8722 -0.8697 -1.0423
 2847TIP3    H230177   4.487   6.138   5.801 -0.8849 -0.1887  0.4177
 2848TIP3   OH230178   3.365   4.479   8.413 -0.0316  0.0543  0.6006
 2848TIP3    H130179   3.307   4.471   8.337  1.6870 -0.5030 -0.6907
 2848TIP3    H230180   3.348   4.400   8.465  0.9388 -1.0535 -0.7491
 2849TIP3   OH230181   2.981   0.425   1.205 -0.6282 -0.1267 -0.1316
 2849TIP3    H130182   2.991   0.333   1.180 -0.3619 -0.2229  0.3193
 2849TIP3    H230183   2.887   0.437   1.216 -0.6993 -0.2353 -0.5929
 2850TIP3   OH230184   2.303   2.139   1.917  0.3854  0.1157  0.5622
 2850TIP3    H130185   2.231   2.080   1.938 -0.3418  0.5916 -0.4956
 2850TIP3    H230186   2.363   2.132   1.990 -1.3889  0.7282  2.1210
 2851TIP3   OH230187   5.500   6.667   6.970 -0.2854  0.0596  0.0804
 2851TIP3    H130188   5.594   6.688   6.973 -0.4967  1.0635 -0.2048
 2851TIP3    H230189   5.469   6.684   7.059 -0.3443  0.4404 -0.0119
 2852TIP3   OH230190   4.098   0.195   7.192 -0.0870 -0.4735 -0.2711
 2852TIP3    H130191   4.191   0.186   7.169  0.0355  2.5399 -1.1343
 2852TIP3    H230192   4.095   0.176   7.286  1.2129 -1.6718 -0.4527
 2853TIP3   OH230193   5.839   0.436   6.899  0.3887 -0.0139 -0.1903
 2853TIP3    H130194   5.748   0.442   6.928  0.2695 -0.0072 -0.5594
 2853TIP3    H230195   5.843   0.491   6.820  1.1749  1.5186  0.9021
 2854TIP3   OH230196   4.729   4.468   8.179  0.1143 -0.0564  0.1788
 2854TIP3    H130197   4.677   4.545   8.157  0.5304  0.4344  0.8949
 2854TIP3    H230198   4.748   4.428   8.094  0.3838  0.9574 -0.2524
 2855TIP3   OH230199   2.789   4.109   7.677 -0.3541  0.0864  0.4570
 2855TIP3    H130200   2.856   4.178   7.675  1.9246 -1.9922  2.1736
 2855TIP3    H230201   2.709   4.153   7.648  1.8026  2.5465 -2.0563
 2856TIP3   OH230202   5.899   6.150   6.068  0.0624  0.8835 -0.4191
 2856TIP3    H130203   5.972   6.196   6.110  1.4491  0.3998 -2.2300
 2856TIP3    H230204   5.941   6.090   6.007 -1.7608 -2.1447  1.1918
 2857TIP3   OH230205   5.050   5.244   1.205  0.1074 -0.4136  0.6411
 2857TIP3    H130206   5.132   5.263   1.252 -0.0951 -0.6400  1.0927
 2857TIP3    H230207   5.046   5.149   1.201  0.9877 -0.3809 -1.3868
 2858TIP3   OH230208   4.469   7.175   6.548 -0.3716  0.8345 -0.3946
 2858TIP3    H130209   4.522   7.191   6.470  0.3880 -1.4507 -0.3858
 2858TIP3    H230210   4.439   7.084   6.538 -2.8023  1.5011  0.4925
 2859TIP3   OH230211   5.719   0.095   0.281  0.3809  0.3985 -0.5587
 2859TIP3    H130212   5.647   0.033   0.269 -0.6129  1.7228 -1.5826
 2859TIP3    H230213   5.692   0.173   0.233  1.8853  1.4178  0.2038
 2860TIP3   OH230214   1.499   4.405   7.623  0.6486 -0.1590 -0.2131
 2860TIP3    H130215   1.567   4.466   7.596 -0.5449  1.1557 -0.2882
 2860TIP3    H230216   1.444   4.393   7.546  0.1773 -0.3762  0.1471
 2861TIP3   OH230217   5.730   6.371   7.254  0.1252 -0.6134  0.4340
 2861TIP3    H130218   5.655   6.321   7.222 -0.1795  0.9081 -1.3638
 2861TIP3    H230219   5.806   6.321   7.225 -0.1843 -1.1232  0.4965
 2862TIP3   OH230220   5.116   5.212   8.457 -0.2154 -0.2308  0.1742
 2862TIP3    H130221   5.160   5.155   8.394  0.1329  0.6488 -0.3923
 2862TIP3    H230222   5.028   5.222   8.422  0.0381  0.4191 -0.2827
 2863TIP3   OH230223   6.434   0.415   6.990  0.0680  0.2754 -0.0710
 2863TIP3    H130224   6.496   0.345   7.008 -0.1216 -0.4696 -2.1523
 2863TIP3    H230225   6.383   0.423   7.071 -0.7636 -2.8966 -0.2047
 2864TIP3   OH230226   5.619   5.323   6.998 -0.5122 -0.5743 -0.1112
 2864TIP3    H130227   5.595   5.395   6.940 -1.8149 -0.6144  0.3651
 2864TIP3    H230228   5.547   5.261   6.990  0.4076 -1.6405 -0.2029
 2865TIP3   OH230229   1.482   4.183   7.338 -0.5294 -0.0308  0.1290
 2865TIP3    H130230   1.437   4.264   7.360 -0.2588  0.1995 -0.1673
 2865TIP3    H230231   1.569   4.193   7.376 -0.3158  0.0454 -0.3824
 2866TIP3   OH230232   2.816   5.319   8.369  0.2191  0.3943 -0.4497
 2866TIP3    H130233   2.800   5.236   8.413  0.8387  0.6366  0.2602
 2866TIP3    H230234   2.866   5.370   8.433  0.7572  0.9174 -1.2750
 2867TIP3   OH230235   3.552   5.379   7.502 -0.1476  0.3207 -0.2336
 2867TIP3    H130236   3.606   5.419   7.434 -0.1027 -0.2953 -0.5712
 2867TIP3    H230237   3.482   5.442   7.519  1.8876  2.1362  1.7659
 2868TIP3   OH230238   2.465   7.168   8.445  0.8129 -0.2365 -0.0685
 2868TIP3    H130239   2.479   7.231   8.374  1.6510  1.1040  1.2547
 2868TIP3    H230240   2.477   7.082   8.403  1.8888  0.5483 -1.4308
 2869TIP3   OH230241   1.171   5.711   0.419  0.4182  0.1309  0.1407
 2869TIP3    H130242   1.263   5.734   0.410  0.8308 -1.9332 -1.1777
 2869TIP3    H230243   1.128   5.792   0.446  2.1694  1.8373 -2.0806
 2870TIP3   OH230244   3.619   6.417   8.119  0.2444 -0.3513  0.1759
 2870TIP3    H130245   3.599   6.488   8.179  0.9737  0.5904 -0.6823
 2870TIP3    H230246   3.682   6.454   8.057  0.1611 -1.5565 -0.6553
 2871TIP3   OH230247   4.365   7.191   8.154  0.5729 -0.0329  0.4685
 2871TIP3    H130248   4.295   7.161   8.096  1.6724 -2.0382  0.1336
 2871TIP3    H230249   4.406   7.110   8.186  2.8939  1.1000  0.4636
 2872TIP3   OH230250   1.795   7.130   6.786 -0.2726  0.1033  0.4484
 2872TIP3    H130251   1.873   7.163   6.740 -0.9915 -0.5327 -1.2758
 2872TIP3    H230252   1.726   7.192   6.764 -0.3957  0.3328  1.4777
 2873TIP3   OH230253   3.778   0.259   6.625 -0.3724  0.0957  0.0510
 2873TIP3    H130254   3.844   0.225   6.565 -0.7760 -0.1897 -0.2429
 2873TIP3    H230255   3.774   0.194   6.695 -1.8392 -1.0187 -1.0009
 2874TIP3   OH230256   3.726   5.542   7.347 -0.1939 -0.2840 -0.1192
 2874TIP3    H130257   3.743   5.514   7.257 -1.8181  1.0929 -0.8821
 2874TIP3    H230258   3.645   5.593   7.342  1.2441  2.3090  1.6495
 2875TIP3   OH230259   1.966   7.026   1.994 -0.1000 -0.4497  0.6034
 2875TIP3    H130260   2.056   7.015   1.964  0.0903 -0.2375  1.0830
 2875TIP3    H230261   1.959   7.120   2.013 -0.6550 -0.3362 -0.1713
 2876TIP3   OH230262   1.513   4.844   6.769 -0.6898  0.2498  0.4106
 2876TIP3    H130263   1.581   4.861   6.834 -0.3805 -1.6388  0.6144
 2876TIP3    H230264   1.481   4.931   6.745  0.2432  1.0594  1.9571
 2877TIP3   OH230265   1.758   0.634   1.856 -0.1657 -0.2098 -0.1773
 2877TIP3    H130266   1.821   0.664   1.921 -1.1217  0.4662  0.4458
 2877TIP3    H230267   1.694   0.705   1.850 -0.9676 -0.9680 -0.6708
 2878TIP3   OH230268   4.708   3.647   1.719  0.1806 -0.0095 -0.3280
 2878TIP3    H130269   4.669   3.734   1.711  1.2777  0.5102 -0.1151
 2878TIP3    H230270   4.649   3.590   1.670  0.0247  1.0243 -1.3696
 2879TIP3   OH230271   7.206   6.552   5.999  0.3450  0.8070 -0.5799
 2879TIP3    H130272   7.195   6.504   5.917 -1.1587  0.5912 -0.2761
 2879TIP3    H230273   7.279   6.510   6.043 -0.2780 -0.5384 -0.7949
 2880TIP3   OH230274   5.022   0.323   6.548  0.2184  0.0210 -0.2539
 2880TIP3    H130275   5.109   0.290   6.526  0.8640  0.5082  1.4724
 2880TIP3    H230276   4.997   0.273   6.626 -0.2145  1.2428  0.3954
 2881TIP3   OH230277   6.080   4.147   0.985 -0.2259  0.0733  0.3758
 2881TIP3    H130278   6.161   4.118   1.027 -0.2212 -1.6054 -0.7304
 2881TIP3    H230279   6.099   4.235   0.953  0.3925  0.5921  2.1698
 2882TIP3   OH230280   2.744   2.160   1.844 -0.5636 -0.2356  0.2690
 2882TIP3    H130281   2.817   2.158   1.905  0.0538  0.0432 -0.4510
 2882TIP3    H230282   2.691   2.083   1.867  0.7629 -1.3046 -0.1900
 2883TIP3   OH230283   3.695   4.864   0.719 -0.0814  0.3430  0.7562
 2883TIP3    H130284   3.686   4.907   0.634  1.6789  2.0390  1.4226
 2883TIP3    H230285   3.782   4.825   0.718 -1.1111 -2.0980  0.7086
 2884TIP3   OH230286   5.719   1.486   0.047 -0.4629 -0.1853  0.4936
 2884TIP3    H130287   5.750   1.459   0.134 -2.5521 -0.8069  1.0712
 2884TIP3    H230288   5.624   1.472   0.050 -0.4851 -0.8458 -2.1221
 2885TIP3   OH230289   3.496   1.265   7.990 -0.6439  0.3933  0.0817
 2885TIP3    H130290   3.516   1.171   7.987  0.5558  0.6502 -0.5250
 2885TIP3    H230291   3.502   1.293   7.898 -0.3640  1.1826  0.3363
 2886TIP3   OH230292   6.863   6.648   6.964 -0.1192 -0.6949  0.4251
 2886TIP3    H130293   6.909   6.574   7.002  0.6087 -0.7449 -0.5421
 2886TIP3    H230294   6.931   6.714   6.950 -0.5249 -0.3622  0.0056
 2887TIP3   OH230295   6.589   4.516   1.354 -0.1569 -0.4909 -0.2927
 2887TIP3    H130296   6.567   4.432   1.314 -2.7735 -0.1307  0.2850
 2887TIP3    H230297   6.550   4.512   1.441  2.5981  0.0378  1.0319
 2888TIP3   OH230298   4.775   6.875   6.403 -0.7667  0.1205 -0.3780
 2888TIP3    H130299   4.741   6.933   6.335 -0.3267 -1.3902 -1.9256
 2888TIP3    H230300   4.703   6.866   6.465 -1.5615  0.6896 -1.1968
 2889TIP3   OH230301   5.038   6.743   6.690 -0.0759 -0.5511 -0.4758
 2889TIP3    H130302   5.031   6.829   6.647  1.0819 -0.3977 -0.3720
 2889TIP3    H230303   5.071   6.685   6.622  1.7903 -0.3018  0.1977
 2890TIP3   OH230304   3.961   0.761   0.356 -0.4250 -0.3530  0.0664
 2890TIP3    H130305   3.934   0.743   0.266 -0.7556 -1.0612  0.3086
 2890TIP3    H230306   3.943   0.855   0.368 -1.5519 -0.5308 -0.1915
 2891TIP3   OH230307   4.451   0.115   0.208  0.1003 -0.0397 -0.1678
 2891TIP3    H130308   4.444   0.141   0.117 -2.4644  1.4667  0.4095
 2891TIP3    H230309   4.360   0.113   0.240  0.9946  0.2625  2.5552
 2892TIP3   OH230310   7.091   0.519   1.105  0.2727 -0.1314 -0.1677
 2892TIP3    H130311   7.142   0.545   1.181 -0.0903 -0.6460  0.2539
 2892TIP3    H230312   7.157   0.502   1.037  0.6060  0.1349  0.0881
 2893TIP3   OH230313   5.847   0.395   5.992 -0.2704 -0.8173 -0.2136
 2893TIP3    H130314   5.905   0.446   6.047  0.8609  0.9945 -2.9622
 2893TIP3    H230315   5.866   0.304   6.015  0.8961 -0.1383  1.5993
 2894TIP3   OH230316   6.474   0.638   6.768 -0.5964  0.7609  0.6710
 2894TIP3    H130317   6.446   0.558   6.812 -0.6410  1.7854  2.5402
 2894TIP3    H230318   6.394   0.689   6.758 -0.3312  1.1956  0.7808
 2895TIP3   OH230319   3.067   5.180   8.328 -0.2770 -0.1745  0.2354
 2895TIP3    H130320   3.000   5.245   8.350 -1.0653 -1.5462  1.9205
 2895TIP3    H230321   3.021   5.097   8.328  1.3573 -1.0985  1.1273
 2896TIP3   OH230322   2.407   1.140   7.443  0.4397 -0.5750 -0.1664
 2896TIP3    H130323   2.403   1.083   7.366  0.1505 -0.5422 -0.1764
 2896TIP3    H230324   2.500   1.141   7.467  0.4895 -0.8112 -0.3448
 2897TIP3   OH230325   2.203   6.936   0.781  0.4039  0.3964  0.6357
 2897TIP3    H130326   2.120   6.895   0.805  0.7163 -1.8838 -1.9543
 2897TIP3    H230327   2.269   6.879   0.820  0.7959  0.9249  0.7421
 2898TIP3   OH230328   2.918   6.287   6.179 -0.1705 -0.5824  0.6927
 2898TIP3    H130329   2.910   6.382   6.189 -3.7900 -0.9225  1.4691
 2898TIP3    H230330   2.992   6.263   6.235 -0.8388  1.4501  2.4860
 2899TIP3   OH230331   6.667   7.083   6.918  0.4195  0.0058 -0.1498
 2899TIP3    H130332   6.617   7.164   6.925 -0.8238 -0.7132 -0.5412
 2899TIP3    H230333   6.613   7.017   6.962  2.2908 -0.2534  1.8804
 2900TIP3   OH230334   6.925   0.250   6.897  0.0160  0.0281  0.2318
 2900TIP3    H130335   6.832   0.231   6.887 -0.2224  2.1889 -2.0829
 2900TIP3    H230336   6.967   0.164   6.894 -1.8792 -0.9954  1.5179
 2901TIP3   OH230337   4.600   7.021   7.088  0.2199 -0.5219 -0.2847
 2901TIP3    H130338   4.634   6.933   7.072  0.3006 -1.0238  2.3417
 2901TIP3    H230339   4.565   7.049   7.004  0.0649 -3.1299 -1.1398
 2902TIP3   OH230340   6.457   0.580   7.688  0.2616  0.1169 -0.3799
 2902TIP3    H130341   6.511   0.510   7.651  0.2564 -0.9170  1.5001
 2902TIP3    H230342   6.399   0.535   7.749  0.2943  1.7734  0.9099
 2903TIP3   OH230343   4.440   7.049   6.828 -0.6528 -0.0849 -0.0503
 2903TIP3    H130344   4.437   7.087   6.741 -0.1358  0.2222  0.0649
 2903TIP3    H230345   4.473   6.960   6.815 -2.5800 -0.7679 -0.4056
 2904TIP3   OH230346   4.134   7.143   7.130 -0.1351  0.2019  0.3386
 2904TIP3    H130347   4.121   7.124   7.223 -0.1592  0.8836  0.4748
 2904TIP3    H230348   4.225   7.170   7.123  0.3313 -1.4403 -0.1046
 2905TIP3   OH230349   5.479   5.457   8.460 -0.3063 -0.4413  0.1969
 2905TIP3    H130350   5.496   5.377   8.509 -0.8579 -0.2551  0.6943
 2905TIP3    H230351   5.498   5.434   8.369 -0.9222 -1.2740  0.2782
 2906TIP3   OH230352   6.605   4.640   1.973 -0.5668  0.0830 -0.3657
 2906TIP3    H130353   6.527   4.587   1.993  0.2548 -0.5858  1.0911
 2906TIP3    H230354   6.609   4.704   2.043  0.2516  0.0634 -0.3921
 2907TIP3   OH230355   4.804   6.651   6.787 -0.5251  0.3919 -0.1072
 2907TIP3    H130356   4.801   6.665   6.882  1.0720  0.4760 -0.0535
 2907TIP3    H230357   4.889   6.684   6.761 -0.6222 -0.3952 -1.4538
 2908TIP3   OH230358   4.776   5.996   7.143 -0.1111 -0.5838 -0.0250
 2908TIP3    H130359   4.690   5.981   7.182 -0.1845  0.7679  0.3660
 2908TIP3    H230360   4.757   6.028   7.055 -0.0585  1.0800  0.5478
 2909TIP3   OH230361   2.333   5.886   0.031  0.8433  0.3752 -0.0008
 2909TIP3    H130362   2.368   5.974   0.017  0.2419  0.7051  0.5346
 2909TIP3    H230363   2.359   5.864   0.121 -1.6578  1.2724  0.9873
 2910TIP3   OH230364   4.481   6.439   6.176 -0.0101  0.5819 -0.0950
 2910TIP3    H130365   4.540   6.436   6.100  0.5913  3.0074  0.2540
 2910TIP3    H230366   4.395   6.415   6.140  0.2509  1.7928 -1.5653
 2911TIP3   OH230367   5.076   7.254   7.709 -0.3843  0.5296 -0.5398
 2911TIP3    H130368   5.149   7.289   7.658  0.6744 -0.4727  0.2798
 2911TIP3    H230369   5.098   7.162   7.723  0.1103  1.1456  3.0406
 2912TIP3   OH230370   5.758   7.142   6.402  0.6459 -0.5450 -0.0501
 2912TIP3    H130371   5.802   7.058   6.417 -1.0851 -1.6354 -0.9620
 2912TIP3    H230372   5.787   7.169   6.315 -0.4379 -1.2621 -0.6492
 2913TIP3   OH230373   5.649   0.356   8.156 -0.3103  0.4701  0.2844
 2913TIP3    H130374   5.677   0.371   8.247 -0.8614  0.0819  0.5161
 2913TIP3    H230375   5.630   0.444   8.123 -2.5842  0.4090  1.3370
 2914TIP3   OH230376   4.669   0.314   0.833  0.1588 -0.1866 -0.1121
 2914TIP3    H130377   4.750   0.327   0.883  0.0087  0.2878  0.0068
 2914TIP3    H230378   4.624   0.243   0.878  1.2365 -1.5163 -1.0706
 2915TIP3   OH230379   4.005   7.189   6.331  0.3747  0.8088 -0.2504
 2915TIP3    H130380   3.959   7.272   6.330  0.5526  0.9401  1.2555
 2915TIP3    H230381   3.936   7.124   6.347  0.1229  0.5723 -2.1856
 2916TIP3   OH230382   4.807   0.650   0.495  0.5356 -0.1109  0.3121
 2916TIP3    H130383   4.763   0.574   0.458  0.7876 -0.2972  0.3880
 2916TIP3    H230384   4.737   0.703   0.532  0.5475 -1.5036  2.4473
 2917TIP3   OH230385   0.413   5.300   7.996  0.1872 -0.0246  0.3530
 2917TIP3    H130386   0.489   5.356   8.008  0.8584 -0.6660 -0.8062
 2917TIP3    H230387   0.441   5.215   8.031  0.6870 -0.7714 -1.8099
 2918TIP3   OH230388   5.685   1.840   6.821 -0.3678 -0.3481  0.3858
 2918TIP3    H130389   5.738   1.761   6.835 -1.0623 -0.9593 -0.3676
 2918TIP3    H230390   5.604   1.824   6.869 -0.5297 -0.1086  0.1930
 2919TIP3   OH230391   3.182   5.363   0.942 -0.2558  0.1119  0.5217
 2919TIP3    H130392   3.274   5.382   0.961 -0.2626 -0.5087  1.2144
 2919TIP3    H230393   3.169   5.274   0.973 -0.8241 -0.1920 -0.5537
 2920TIP3   OH230394   0.843   4.875   6.489  0.0016 -0.5621  0.7969
 2920TIP3    H130395   0.792   4.939   6.539 -1.2678 -2.1998  1.6692
 2920TIP3    H230396   0.874   4.923   6.413 -1.4084  0.9371  1.1325
 2921TIP3   OH230397   1.879   0.745   7.750 -0.6447 -0.2423 -0.3261
 2921TIP3    H130398   1.968   0.710   7.742 -0.5641  0.0589 -0.7756
 2921TIP3    H230399   1.835   0.686   7.811 -0.2021 -0.5204 -0.2745
 2922TIP3   OH230400   4.966   5.344   0.435 -0.4721  0.1168  0.2061
 2922TIP3    H130401   4.931   5.405   0.369 -3.0400  0.2205  1.6243
 2922TIP3    H230402   4.968   5.395   0.516  1.7860 -0.3054  0.4606
 2923TIP3   OH230403   0.705   5.365   7.217  0.6101 -0.5041  0.0457
 2923TIP3    H130404   0.786   5.340   7.173  1.0193  0.7748  0.0505
 2923TIP3    H230405   0.649   5.398   7.148  0.9591  0.7701  0.3613
 2924TIP3   OH230406   5.259   7.131   6.805 -1.2043  0.2330  0.4858
 2924TIP3    H130407   5.326   7.151   6.740  0.6447  1.9381  2.7944
 2924TIP3    H230408   5.176   7.151   6.763 -0.1637 -0.3580 -1.8953
 2925TIP3   OH230409   2.936   4.543   8.011  0.2958  0.1726 -0.6455
 2925TIP3    H130410   2.890   4.463   7.986  0.3748  0.7066 -2.5094
 2925TIP3    H230411   2.933   4.598   7.933  3.1602  0.6486 -0.4478
 2926TIP3   OH230412   6.224   0.486   6.718  0.1339 -0.4267 -0.6995
 2926TIP3    H130413   6.129   0.498   6.706  0.1292 -0.7929 -1.0424
 2926TIP3    H230414   6.247   0.416   6.656  0.3997 -1.2204  0.2862
 2927TIP3   OH230415   1.653   4.078   0.136  0.5598  0.5171 -0.2586
 2927TIP3    H130416   1.596   4.118   0.071 -0.5857 -1.8314 -0.7541
 2927TIP3    H230417   1.609   4.094   0.219 -0.5589 -0.8175 -0.5845
 2928TIP3   OH230418   5.109   1.094   7.819 -0.5815 -0.1305  0.1263
 2928TIP3    H130419   5.135   1.185   7.837 -0.0941 -0.1259 -0.5806
 2928TIP3    H230420   5.188   1.054   7.781 -1.4501 -0.2739 -1.5544
 2929TIP3   OH230421   5.558   1.425   8.264 -0.1130  0.1899 -0.0873
 2929TIP3    H130422   5.629   1.476   8.303  1.2924 -0.7474 -1.3598
 2929TIP3    H230423   5.582   1.334   8.281 -1.0933 -0.1362 -0.4187
 2930TIP3   OH230424   5.520   5.732   0.026  0.0938 -0.1594  0.1848
 2930TIP3    H130425   5.518   5.636   0.031 -0.6631 -0.1055  1.0100
 2930TIP3    H230426   5.434   5.759   0.056  0.9385  0.8651  1.7353
 2931TIP3   OH230427   2.376   3.448   6.350  0.0112  0.2127 -0.4207
 2931TIP3    H130428   2.419   3.441   6.264  1.0837  0.6355  0.0742
 2931TIP3    H230429   2.396   3.537   6.379 -1.0874  0.3641 -0.1124
 2932TIP3   OH230430   5.246   4.917   7.432 -0.2449 -0.0875  0.2173
 2932TIP3    H130431   5.185   4.910   7.358  1.3876 -0.1308 -1.1446
 2932TIP3    H230432   5.294   4.998   7.417 -1.2353  0.9152  2.2850
 2933TIP3   OH230433   3.451   0.360   8.145  0.3136 -0.5627  0.1070
 2933TIP3    H130434   3.379   0.421   8.161 -0.5910 -1.2137 -1.3907
 2933TIP3    H230435   3.520   0.388   8.205 -0.5574  1.1360  0.3384
 2934TIP3   OH230436   5.267   6.516   7.961 -0.3128  0.0414  0.3981
 2934TIP3    H130437   5.205   6.564   7.907 -2.9341 -1.9314  1.5518
 2934TIP3    H230438   5.319   6.583   8.004 -1.5484  1.7249 -0.6881
 2935TIP3   OH230439   2.187   0.696   6.499 -0.0327  0.0829  0.3804
 2935TIP3    H130440   2.097   0.699   6.466 -0.4117 -0.3145  1.3554
 2935TIP3    H230441   2.240   0.728   6.427 -1.0904  1.5895  0.2609
 2936TIP3   OH230442   6.329   6.010   6.600 -0.3783  0.6741 -0.2851
 2936TIP3    H130443   6.366   6.053   6.677 -0.7756  1.5951 -0.6025
 2936TIP3    H230444   6.390   6.032   6.529  1.8846 -2.9488  0.3545
 2937TIP3   OH230445   0.321   7.335   6.716 -0.2863 -0.0413 -0.2470
 2937TIP3    H130446   0.230   7.358   6.699  0.0740  1.3101 -0.3749
 2937TIP3    H230447   0.321   7.300   6.806 -0.9113  0.0197 -0.2233
 2938TIP3   OH230448   3.761   3.571   1.233 -0.3211  0.3967 -0.2146
 2938TIP3    H130449   3.710   3.645   1.201 -0.9461  0.4618  0.9179
 2938TIP3    H230450   3.848   3.583   1.195 -0.5403  1.4736 -0.3785
 2939TIP3   OH230451   5.462   7.168   7.816  0.8542 -0.2841  0.0795
 2939TIP3    H130452   5.468   7.204   7.905  2.2826  0.3011 -0.2363
 2939TIP3    H230453   5.509   7.085   7.821  0.7433 -0.3550 -0.0765
 2940TIP3   OH230454   6.375   5.746   7.291 -0.0858 -0.2742 -0.2957
 2940TIP3    H130455   6.451   5.795   7.320 -1.4085  1.5474  0.1500
 2940TIP3    H230456   6.401   5.710   7.206  1.5137 -0.2744  0.1788
 2941TIP3   OH230457   3.400   6.696   6.729 -0.4142  0.0790  0.0757
 2941TIP3    H130458   3.376   6.695   6.636 -0.5739 -0.8698  0.1291
 2941TIP3    H230459   3.319   6.678   6.776 -0.4407  1.0795  0.4313
 2942TIP3   OH230460   5.999   6.037   6.973  0.4702  0.4517 -0.4253
 2942TIP3    H130461   5.918   6.050   6.923  0.6946 -1.8836 -1.4587
 2942TIP3    H230462   6.057   6.107   6.943 -0.2128  0.4867 -1.7304
 2943TIP3   OH230463   0.116   4.272   1.365 -0.3416  0.3263 -0.2334
 2943TIP3    H130464   0.122   4.366   1.379  1.9376  0.2759 -0.8176
 2943TIP3    H230465   0.202   4.238   1.389 -0.9612 -1.5523 -0.5626
 2944TIP3   OH230466   6.746   5.327   7.716  0.3914  0.3126  0.5181
 2944TIP3    H130467   6.750   5.376   7.634  1.1338 -1.1484 -0.3419
 2944TIP3    H230468   6.830   5.341   7.758  0.0704  0.9315  0.9581
 2945TIP3   OH230469   5.120   4.466   7.280 -0.0620 -1.0939 -0.0543
 2945TIP3    H130470   5.207   4.505   7.265 -0.3955 -0.7151 -1.0223
 2945TIP3    H230471   5.120   4.443   7.373  0.8097 -0.4231  0.1186
 2946TIP3   OH230472   3.590   6.306   7.859  0.0619 -0.2518 -0.2370
 2946TIP3    H130473   3.648   6.368   7.903  0.5009 -1.5812  1.1027
 2946TIP3    H230474   3.522   6.287   7.923 -1.0599  0.2029 -1.2875
 2947TIP3   OH230475   5.979   5.447   5.841 -0.0869 -0.3592  0.4072
 2947TIP3    H130476   5.900   5.466   5.890  0.0583  2.2537 -0.2733
 2947TIP3    H230477   6.025   5.382   5.893 -1.9491 -0.7818  1.5612
 2948TIP3   OH230478   2.134   4.244   7.143  0.0599 -0.1955  0.1404
 2948TIP3    H130479   2.069   4.174   7.149  0.5368 -0.7466 -0.7866
 2948TIP3    H230480   2.115   4.302   7.216 -2.0159  0.1154 -0.6305
 2949TIP3   OH230481   5.929   6.515   7.158 -0.7641 -0.4052 -0.0299
 2949TIP3    H130482   6.002   6.462   7.188  0.5523  0.3248 -1.8483
 2949TIP3    H230483   5.852   6.474   7.197  0.5731 -1.3899  1.6155
 2950TIP3   OH230484   4.619   4.558   6.419  0.1769  0.4403 -0.2171
 2950TIP3    H130485   4.686   4.507   6.374  0.0958  0.1220  0.0158
 2950TIP3    H230486   4.581   4.614   6.352  1.8551  1.8766 -0.0070
 2951TIP3   OH230487   6.815   5.001   7.997  0.1147  0.5375  0.8462
 2951TIP3    H130488   6.769   5.084   8.004 -0.3623  0.5759 -2.0729
 2951TIP3    H230489   6.851   5.001   7.908 -1.3332 -3.0643  0.1752
 2952TIP3   OH230490   2.958   5.576   7.140 -0.4253 -0.7049 -0.2519
 2952TIP3    H130491   2.863   5.578   7.156 -0.1884  1.1529  1.1120
 2952TIP3    H230492   2.985   5.667   7.146  1.3040 -1.1061 -1.6632
 2953TIP3   OH230493   4.490   4.176   6.634 -0.0637  0.0409 -0.3964
 2953TIP3    H130494   4.448   4.187   6.549  0.7288 -0.6146 -0.8761
 2953TIP3    H230495   4.469   4.257   6.681  1.0602  1.2285 -1.8968
 2954TIP3   OH230496   5.755   5.181   0.300 -0.0750  0.5531 -0.5108
 2954TIP3    H130497   5.691   5.230   0.351  0.9438 -0.3718  1.7089
 2954TIP3    H230498   5.838   5.197   0.344  0.5590 -1.6924 -0.8257
 2955TIP3   OH230499   4.588   6.283   6.402  0.0017 -0.7861 -0.6032
 2955TIP3    H130500   4.545   6.301   6.319  2.1962 -0.2126 -1.6476
 2955TIP3    H230501   4.596   6.188   6.405 -0.9152 -0.8684 -0.6000
 2956TIP3   OH230502   6.251   6.459   8.133 -0.4539  0.3804 -0.1075
 2956TIP3    H130503   6.278   6.537   8.181  0.1665 -0.5047  1.0063
 2956TIP3    H230504   6.309   6.457   8.056  1.4489 -0.4838  1.3041
 2957TIP3   OH230505   6.289   0.440   7.233  0.0098 -0.5912 -0.1839
 2957TIP3    H130506   6.222   0.499   7.268  0.3265 -0.8250  0.8185
 2957TIP3    H230507   6.277   0.358   7.280  1.4458 -0.4215  0.5074
 2958TIP3   OH230508   2.750   4.073   0.589 -0.7036  0.5631 -0.2526
 2958TIP3    H130509   2.679   4.132   0.614 -1.3525  0.6524 -2.1792
 2958TIP3    H230510   2.712   3.985   0.598  0.2044  0.4059  2.4400
 2959TIP3   OH230511   0.148   3.310   7.686 -0.4529  0.4210  0.0893
 2959TIP3    H130512   0.197   3.231   7.710 -0.9820  0.8970  2.9340
 2959TIP3    H230513   0.211   3.382   7.698 -0.6733  0.6568 -0.1558
 2960TIP3   OH230514   2.225   7.289   7.487  0.0228  0.8038  0.0700
 2960TIP3    H130515   2.299   7.289   7.547 -1.1769  0.2794  1.5910
 2960TIP3    H230516   2.239   7.365   7.431  2.0502  0.3160 -0.1192
 2961TIP3   OH230517   4.785   5.943   6.864  0.1997  0.6942  0.5824
 2961TIP3    H130518   4.752   5.853   6.871 -0.1765  0.8139  0.3852
 2961TIP3    H230519   4.875   5.933   6.833  0.1320  0.3849  0.4809
 2962TIP3   OH230520   3.827   6.019   7.780  0.1605  0.8543  0.3365
 2962TIP3    H130521   3.752   6.076   7.794 -0.3172  0.4702 -0.6338
 2962TIP3    H230522   3.789   5.936   7.752  0.8639  0.1585  1.4189
 2963TIP3   OH230523   6.750   4.458   8.194  0.7442  0.2247 -0.3919
 2963TIP3    H130524   6.834   4.441   8.237 -0.6473 -0.4983  2.1314
 2963TIP3    H230525   6.735   4.552   8.206  1.0970  0.3129 -0.6547
 2964TIP3   OH230526   4.720   3.454   6.739 -0.8537 -0.5753 -0.4507
 2964TIP3    H130527   4.802   3.437   6.692 -0.9650 -1.9395 -0.1897
 2964TIP3    H230528   4.663   3.497   6.675 -0.0346  0.1270 -0.7116
 2965TIP3   OH230529   4.777   5.885   7.438  0.0146 -0.1459 -0.5274
 2965TIP3    H130530   4.741   5.899   7.351 -1.6638 -1.0419 -0.0016
 2965TIP3    H230531   4.751   5.963   7.487  0.2162 -0.0362 -0.5949
 2966TIP3   OH230532   4.297   6.266   5.935  0.4467  0.3186  0.0711
 2966TIP3    H130533   4.291   6.340   5.995  1.8758  1.0408 -0.6404
 2966TIP3    H230534   4.295   6.189   5.991 -2.2078  0.8211  0.7498
 2967TIP3   OH230535   5.385   4.655   6.525  0.3271 -0.3763 -0.0270
 2967TIP3    H130536   5.341   4.576   6.496 -0.9637  0.8699 -1.5367
 2967TIP3    H230537   5.465   4.658   6.472  1.5883 -1.9115  1.7409
 2968TIP3   OH230538   5.614   6.947   7.899 -0.0401 -0.5925  0.1333
 2968TIP3    H130539   5.678   6.962   7.969  1.0481 -0.8609 -0.7723
 2968TIP3    H230540   5.662   6.895   7.834 -1.3741 -1.3110 -0.2971
 2969TIP3   OH230541   4.044   1.050   7.729 -0.4623  0.0268 -0.3869
 2969TIP3    H130542   3.972   1.003   7.687  1.6681 -2.6029 -1.2293
 2969TIP3    H230543   4.103   1.073   7.657 -0.8690  2.9957  0.1686
 2970TIP3   OH230544   4.057   4.720   0.163  0.1401  0.3238  0.1690
 2970TIP3    H130545   3.996   4.790   0.138  2.4072  2.0338 -0.7720
 2970TIP3    H230546   4.072   4.734   0.257 -1.1759 -0.3256  0.4818
 2971TIP3   OH230547   3.158   6.190   7.990  0.4282  0.3839  0.1755
 2971TIP3    H130548   3.106   6.266   7.963 -0.8768 -0.8143 -0.7218
 2971TIP3    H230549   3.249   6.219   7.981 -0.0336  1.3264 -1.6948
 2972TIP3   OH230550   4.852   3.393   1.050  0.2984  0.3978  0.2290
 2972TIP3    H130551   4.814   3.379   0.963  0.3036 -0.5458  0.3737
 2972TIP3    H230552   4.897   3.311   1.070 -1.0608  0.0130  1.7935
 2973TIP3   OH230553   5.345   7.220   6.147 -0.3477  0.0608  0.3007
 2973TIP3    H130554   5.331   7.163   6.072 -1.9135 -0.7475  1.1919
 2973TIP3    H230555   5.429   7.263   6.129 -1.9783  1.9580 -3.2408
 2974TIP3   OH230556   6.570   6.789   6.696  0.4730  0.0665 -0.2553
 2974TIP3    H130557   6.508   6.859   6.717  0.2145 -0.3617  0.4189
 2974TIP3    H230558   6.522   6.708   6.713  1.4697 -0.2657  1.0668
 2975TIP3   OH230559   1.164   6.795   6.472 -0.3516 -0.1689  0.0009
 2975TIP3    H130560   1.104   6.856   6.514 -0.6521 -0.7584  0.4483
 2975TIP3    H230561   1.212   6.847   6.408 -0.1443  0.6612  0.8278
 2976TIP3   OH230562   4.659   5.196   8.016 -0.3543 -0.6203 -0.0558
 2976TIP3    H130563   4.697   5.110   7.996 -0.1844 -0.4324 -0.5466
 2976TIP3    H230564   4.729   5.243   8.061 -0.1662 -0.4469 -0.5269
 2977TIP3   OH230565   4.500   6.149   8.413  0.3647  0.2593  0.0101
 2977TIP3    H130566   4.593   6.164   8.400  0.2588 -1.4731 -3.2697
 2977TIP3    H230567   4.493   6.055   8.430 -0.7488  0.4728  0.7852
 2978TIP3   OH230568   3.857   3.625   0.579  0.1385  0.1908  0.1627
 2978TIP3    H130569   3.808   3.667   0.508  1.5598 -0.4675 -1.2474
 2978TIP3    H230570   3.896   3.697   0.627  0.1754  0.6010 -0.4775
 2979TIP3   OH230571   5.805   6.643   6.954  0.6119  0.6180  0.2176
 2979TIP3    H130572   5.865   6.717   6.958  0.1589  1.0771 -1.0669
 2979TIP3    H230573   5.838   6.581   7.019  3.1856  0.3338 -1.2832
 2980TIP3   OH230574   6.632   7.303   7.588 -0.4678  0.2958  0.0019
 2980TIP3    H130575   6.567   7.374   7.591 -1.1231 -0.2340 -1.3031
 2980TIP3    H230576   6.640   7.283   7.495  1.6424  0.4130  0.1496
 2981TIP3   OH230577   5.526   1.001   0.581 -0.4403  0.2533  0.1785
 2981TIP3    H130578   5.472   0.924   0.596 -0.6124  0.1701 -0.8230
 2981TIP3    H230579   5.463   1.073   0.571 -0.2793  0.5476  1.1893
 2982TIP3   OH230580   6.706   5.876   7.283 -0.2915  0.3028 -0.1550
 2982TIP3    H130581   6.659   5.883   7.366 -1.9182 -0.2159 -0.9988
 2982TIP3    H230582   6.713   5.782   7.267  0.3529  0.3945 -0.4293
 2983TIP3   OH230583   0.227   5.969   5.896 -0.2573  0.1114 -0.2098
 2983TIP3    H130584   0.212   6.030   5.968 -2.2041 -0.0186 -0.4944
 2983TIP3    H230585   0.323   5.957   5.895 -0.2700 -1.0876  3.3520
 2984TIP3   OH230586   6.604   6.185   5.739  0.1944  0.9654 -0.0023
 2984TIP3    H130587   6.542   6.215   5.804  0.4942 -0.6501  1.0570
 2984TIP3    H230588   6.657   6.262   5.718 -1.8097  2.2207 -0.5488
 2985TIP3   OH230589   6.317   3.111   7.522 -0.1650 -1.0183  0.3661
 2985TIP3    H130590   6.265   3.177   7.568  1.2729 -0.1081  0.7438
 2985TIP3    H230591   6.392   3.096   7.580  0.8299 -1.0843 -0.9076
 2986TIP3   OH230592   5.512   7.039   8.343  0.5253  0.3550 -0.2779
 2986TIP3    H130593   5.563   6.961   8.365  1.9370  1.2146 -0.3874
 2986TIP3    H230594   5.537   7.104   8.409 -1.2392  0.4719  0.2912
 2987TIP3   OH230595   5.989   5.306   7.097 -0.2752  0.1459  0.1183
 2987TIP3    H130596   6.084   5.304   7.107 -0.2177 -0.8619 -0.5440
 2987TIP3    H230597   5.976   5.327   7.004 -0.6806 -1.4038 -0.1822
 2988TIP3   OH230598   5.550   2.098   7.184  0.5237 -0.5289  0.2089
 2988TIP3    H130599   5.636   2.139   7.173  0.6087 -0.6359  0.4816
 2988TIP3    H230600   5.558   2.045   7.263 -0.3726  0.9374  1.2920
 2989TIP3   OH230601   1.556   7.197   6.680  0.3221  0.7691 -0.1120
 2989TIP3    H130602   1.503   7.277   6.683  0.3098  0.7544  0.0883
 2989TIP3    H230603   1.493   7.127   6.662  0.6204  1.0666 -2.4121
 2990TIP3   OH230604   6.586   5.576   8.022  0.5637 -0.2201 -0.8106
 2990TIP3    H130605   6.508   5.544   8.067  1.0642  0.3438  0.5101
 2990TIP3    H230606   6.556   5.652   7.973  0.4047  0.4000  0.2319
 2991TIP3   OH230607   6.023   5.376   6.842  0.0304  0.5505  0.0436
 2991TIP3    H130608   6.107   5.407   6.809 -0.7856  1.7665 -0.9329
 2991TIP3    H230609   6.014   5.288   6.804  0.3821  0.8366 -0.7182
 2992TIP3   OH230610   1.018   0.409   7.425  0.4178 -0.0207  0.1614
 2992TIP3    H130611   1.007   0.377   7.514  1.1026 -0.1407  0.2073
 2992TIP3    H230612   1.045   0.332   7.374  2.1046  0.4621  0.2848
 2993TIP3   OH230613   5.423   6.104   7.591 -0.0824  0.3741  0.1481
 2993TIP3    H130614   5.389   6.103   7.680 -0.7116 -0.4901 -0.1061
 2993TIP3    H230615   5.370   6.041   7.543  1.2355 -0.2980 -0.4794
 2994TIP3   OH230616   1.325   4.536   7.893  0.5293  0.0694 -0.7588
 2994TIP3    H130617   1.322   4.445   7.867  0.9282  0.1629 -1.1172
 2994TIP3    H230618   1.290   4.536   7.983 -0.1541 -0.3348 -1.0229
 2995TIP3   OH230619   2.245   0.962   6.863 -0.6403  0.1371  0.5038
 2995TIP3    H130620   2.233   1.045   6.816 -1.4475 -0.2898 -0.0546
 2995TIP3    H230621   2.163   0.950   6.910 -0.6103 -0.4685  0.4008
 2996TIP3   OH230622   4.079   5.407   0.747  0.0794 -0.0573  0.1567
 2996TIP3    H130623   4.132   5.485   0.764  0.0777 -0.1393  0.5347
 2996TIP3    H230624   4.010   5.409   0.813  1.6445 -1.8213  1.9082
 2997TIP3   OH230625   6.166   1.251   6.533 -0.1783 -0.0801  0.5003
 2997TIP3    H130626   6.205   1.221   6.451 -1.7441  0.3638 -0.4275
 2997TIP3    H230627   6.228   1.224   6.601  1.1117 -0.4777 -0.8271
 2998TIP3   OH230628   7.117   0.043   6.980  0.6225  0.2189  0.4844
 2998TIP3    H130629   7.086   0.059   7.069 -1.9487  3.2405 -0.8451
 2998TIP3    H230630   7.060  -0.027   6.947 -1.1897  1.8871 -0.0631
 2999TIP3   OH230631   2.604   6.031   6.458 -0.3373  0.6475  0.3431
 2999TIP3    H130632   2.633   6.064   6.373 -0.7686 -0.6764 -0.3424
 2999TIP3    H230633   2.656   6.079   6.522  0.4625  1.1947 -0.6978
 3000TIP3   OH230634   5.009   6.973   6.504  0.1046 -0.0093 -0.3885
 3000TIP3    H130635   5.068   7.024   6.448  0.3892  0.2921  0.1762
 3000TIP3    H230636   4.945   6.934   6.444  1.5457 -1.2684 -1.1488
 3001TIP3   OH230637   6.469   5.361   7.011 -0.5562 -0.3417  0.1675
 3001TIP3    H130638   6.495   5.298   6.944 -0.8483  0.4064 -0.6772
 3001TIP3    H230639   6.548   5.377   7.062 -0.2276 -0.6153 -0.2533
 3002TIP3   OH230640   5.528   1.732   6.565  0.8783 -0.6028  0.2851
 3002TIP3    H130641   5.553   1.808   6.513  2.5445 -0.4079  1.3328
 3002TIP3    H230642   5.589   1.733   6.639 -0.6388 -1.5771  1.5754
 3003TIP3   OH230643   4.968   5.309   7.601 -0.3771  0.0961 -0.4051
 3003TIP3    H130644   4.976   5.220   7.636  1.3455 -0.1309 -1.3467
 3003TIP3    H230645   4.898   5.303   7.535 -1.8099 -0.0448  1.0929
 3004TIP3   OH230646   5.375   7.012   5.957 -0.5041  0.5595 -0.8010
 3004TIP3    H130647   5.378   6.918   5.977 -1.4206  0.6524 -0.2524
 3004TIP3    H230648   5.370   7.015   5.861 -1.7611  0.0145 -0.7642
 3005TIP3   OH230649   2.174   0.147   6.498  0.0650  0.1428 -0.2656
 3005TIP3    H130650   2.193   0.068   6.448 -0.9616  0.1022 -0.6100
 3005TIP3    H230651   2.083   0.137   6.526 -0.0224  1.1172 -0.1600
 3006TIP3   OH230652   5.764   6.751   7.266  0.0093  0.2886  0.1403
 3006TIP3    H130653   5.762   6.820   7.200  1.3332 -0.1668 -0.4047
 3006TIP3    H230654   5.857   6.734   7.280 -0.2991 -1.6077  0.0186
 3007TIP3   OH230655   5.914   7.276   7.869  0.4837  0.0380  0.8929
 3007TIP3    H130656   5.852   7.212   7.834 -0.0790 -0.1388  2.1681
 3007TIP3    H230657   5.893   7.281   7.963  0.6832  1.8989  0.8610
 3008TIP3   OH230658   1.615   0.219   6.666  0.1197 -0.3872 -0.5990
 3008TIP3    H130659   1.674   0.157   6.709  0.4243 -0.3225 -0.9194
 3008TIP3    H230660   1.576   0.169   6.594  0.2432 -0.2568 -0.7584
 3009TIP3   OH230661   5.706   7.218   7.279 -0.0699  0.2004  0.2520
 3009TIP3    H130662   5.718   7.296   7.225 -0.0224 -0.3533 -0.5476
 3009TIP3    H230663   5.627   7.236   7.330 -1.0690  0.0614 -1.2133
 3010TIP3   OH230664   4.288   1.004   6.793  0.3900 -0.4035  0.0412
 3010TIP3    H130665   4.265   1.095   6.778 -0.2584 -0.4419  0.7319
 3010TIP3    H230666   4.376   0.994   6.756  1.1235  0.8958  1.4090
 3011TIP3   OH230667   6.370   7.125   7.831 -0.1185 -0.2770 -0.1080
 3011TIP3    H130668   6.366   7.174   7.749  1.6798 -2.3612 -1.4938
 3011TIP3    H230669   6.279   7.117   7.859 -0.5469  2.7665 -0.4654
 3012TIP3   OH230670   5.229   6.842   0.238 -0.0664 -0.2557 -0.1223
 3012TIP3    H130671   5.289   6.784   0.286  0.8188 -0.7528 -1.8177
 3012TIP3    H230672   5.164   6.867   0.304  1.6727 -0.1493  1.6119
 3013TIP3   OH230673   6.122   4.924   8.242  0.5502  0.0843 -0.4039
 3013TIP3    H130674   6.207   4.882   8.252  0.1625 -0.6582 -0.1623
 3013TIP3    H230675   6.068   4.858   8.199  0.1142  0.5766 -0.6152
 3014TIP3   OH230676   5.164   2.878   0.380 -0.2637  0.6481  0.0284
 3014TIP3    H130677   5.242   2.931   0.364 -2.0786  3.4800  0.0276
 3014TIP3    H230678   5.147   2.834   0.297  1.7061 -0.5441  0.2427
 3015TIP3   OH230679   0.852   6.777   0.708 -0.3643 -0.0709  0.2730
 3015TIP3    H130680   0.835   6.858   0.756 -4.6573  0.3275 -1.6654
 3015TIP3    H230681   0.816   6.708   0.763 -1.8119 -0.0274 -0.6071
 3016TIP3   OH230682   5.584   6.403   6.296 -0.3260 -0.4773  0.0218
 3016TIP3    H130683   5.503   6.353   6.306  1.1360 -2.6544  1.3491
 3016TIP3    H230684   5.554   6.491   6.272 -3.1994 -0.7519  2.1931
 3017TIP3   OH230685   1.197   6.431   0.105 -0.3770  0.7908 -0.0439
 3017TIP3    H130686   1.201   6.377   0.026 -2.6175  4.1906 -2.6008
 3017TIP3    H230687   1.278   6.482   0.103 -0.4045  0.8320 -0.1044
 3018TIP3   OH230688   0.434   5.482   6.584  0.1066  0.1619 -0.8832
 3018TIP3    H130689   0.413   5.573   6.602 -3.0007 -0.6243 -0.1249
 3018TIP3    H230690   0.483   5.484   6.502 -2.1522  2.3690 -2.2542
 3019TIP3   OH230691   0.001   5.907   6.821  0.5637  0.7074  0.2815
 3019TIP3    H130692  -0.059   5.901   6.896 -3.2837 -3.1777 -2.8192
 3019TIP3    H230693   0.082   5.867   6.853 -0.6451  0.0643  2.6784
 3020TIP3   OH230694   2.281   7.109   8.091  0.0718 -0.1053 -0.2473
 3020TIP3    H130695   2.194   7.139   8.117 -0.1525 -0.4351 -0.6023
 3020TIP3    H230696   2.341   7.171   8.131 -0.3255  0.0810  0.0620
 3021TIP3   OH230697   5.231   5.966   6.501  0.1253  0.1647  0.4056
 3021TIP3    H130698   5.190   6.052   6.507  0.7411  0.3796  1.6159
 3021TIP3    H230699   5.298   5.966   6.569  0.3024 -1.1787  0.2468
 3022TIP3   OH230700   6.193   5.973   7.478  0.2463 -0.1152 -0.2476
 3022TIP3    H130701   6.250   6.008   7.410  2.3626  0.4842  1.7953
 3022TIP3    H230702   6.156   6.050   7.522  0.5193 -0.4687  0.6171
 3023TIP3   OH230703   0.869   6.172   6.738 -0.0508  0.4924  0.0147
 3023TIP3    H130704   0.924   6.154   6.814 -0.8743 -0.7119  0.3551
 3023TIP3    H230705   0.821   6.251   6.760  0.1644  0.4837  0.5029
 3024TIP3   OH230706   4.805   7.124   7.263 -0.0810 -0.8083 -0.3146
 3024TIP3    H130707   4.728   7.087   7.221 -0.7858  1.2287 -0.9015
 3024TIP3    H230708   4.874   7.119   7.197  0.0811 -1.9131 -0.0637
 3025TIP3   OH230709   6.543   4.978   6.640  0.1592  0.0514 -0.3091
 3025TIP3    H130710   6.508   4.999   6.554 -0.5752 -1.8220 -0.4853
 3025TIP3    H230711   6.530   4.884   6.649  1.3153  0.0279  1.3626
 3026TIP3   OH230712   0.345   3.492   7.705  0.3927 -0.5644 -0.1962
 3026TIP3    H130713   0.336   3.578   7.664  1.5222 -0.8542 -1.0826
 3026TIP3    H230714   0.439   3.472   7.699  0.0972 -1.9921 -0.3085
 3027TIP3   OH230715   1.476   5.228   7.687 -0.0224 -1.2136  0.4093
 3027TIP3    H130716   1.476   5.134   7.670 -1.2017 -0.8725 -1.7340
 3027TIP3    H230717   1.423   5.265   7.616 -0.1790  0.9978  1.6216
 3028TIP3   OH230718   6.097   0.737   0.372 -0.4097  0.4481  0.1229
 3028TIP3    H130719   6.073   0.741   0.280  2.0743  0.3183 -0.5671
 3028TIP3    H230720   6.061   0.654   0.403  0.0824 -0.2628 -1.1667
 3029TIP3   OH230721   7.337   4.745   8.341 -0.1555  0.6808 -0.1580
 3029TIP3    H130722   7.302   4.741   8.252  1.9753 -2.2536 -0.9285
 3029TIP3    H230723   7.265   4.781   8.393 -1.9242  1.1200 -2.7995
 3030TIP3   OH230724   2.081   5.656   7.579 -0.3135  0.6090 -0.5580
 3030TIP3    H130725   2.061   5.666   7.486  0.8805 -1.0566 -1.0129
 3030TIP3    H230726   2.070   5.563   7.596 -3.7947  1.3316  1.7958
 3031TIP3   OH230727   5.579   6.609   1.117  0.1809  0.1727  0.0132
 3031TIP3    H130728   5.592   6.672   1.046 -0.8948  1.2118  0.7308
 3031TIP3    H230729   5.666   6.597   1.154  1.3999 -2.8041 -3.4581
 3032TIP3   OH230730   6.069   4.255   0.502  0.0742  0.0957 -0.5011
 3032TIP3    H130731   6.104   4.202   0.431 -0.4080 -0.0137 -0.6605
 3032TIP3    H230732   5.976   4.263   0.482  0.1736  1.1623 -0.5767
 3033TIP3   OH230733   0.374   6.936   1.232  0.0621  0.2954  0.2009
 3033TIP3    H130734   0.320   7.002   1.275 -1.8408  0.5690 -2.4718
 3033TIP3    H230735   0.394   6.974   1.146  0.6614 -1.7541 -0.5964
 3034TIP3   OH230736   6.591   4.266   6.076  0.0142  0.2393 -0.2056
 3034TIP3    H130737   6.681   4.296   6.083  0.3028 -0.4375 -0.8989
 3034TIP3    H230738   6.586   4.227   5.989 -0.5524 -1.0154  0.3717
 3035TIP3   OH230739   6.459   6.760   6.042 -0.2486  0.3754  0.6623
 3035TIP3    H130740   6.547   6.796   6.037 -0.8273  1.7789  0.3152
 3035TIP3    H230741   6.466   6.673   6.003  0.7667  0.9028 -0.3491
 3036TIP3   OH230742   4.916   3.827   0.884 -0.2776 -0.8317  0.2446
 3036TIP3    H130743   4.844   3.887   0.866 -0.4390 -1.2911 -0.6893
 3036TIP3    H230744   4.874   3.752   0.927 -0.1119 -0.3764  1.1967
 3037TIP3   OH230745   7.226   4.440   6.495 -0.0769 -0.1406  0.5820
 3037TIP3    H130746   7.304   4.489   6.521 -1.2917  1.7543  0.7440
 3037TIP3    H230747   7.219   4.455   6.400  0.8689 -1.9726  0.1954
 3038TIP3   OH230748   5.388   6.788   6.742 -0.3917 -0.0592  0.2079
 3038TIP3    H130749   5.327   6.845   6.791 -0.5893  0.2489 -0.3861
 3038TIP3    H230750   5.429   6.734   6.809 -2.6183 -1.5152  0.4560
 3039TIP3   OH230751   4.824   4.630   1.086  0.0358  0.6691  0.0672
 3039TIP3    H130752   4.744   4.610   1.037  0.5390 -1.3034  0.0078
 3039TIP3    H230753   4.802   4.706   1.139 -1.4953  0.8868 -0.8581
 3040TIP3   OH230754   0.277   6.498   1.002  0.0671 -0.8472 -0.3508
 3040TIP3    H130755   0.341   6.462   0.940  0.2749 -0.4331 -0.3840
 3040TIP3    H230756   0.319   6.578   1.035 -0.9724  0.1202 -1.3226
 3041TIP3   OH230757   6.952   5.601   6.896 -0.0521 -0.2053  0.9590
 3041TIP3    H130758   6.924   5.525   6.946 -0.8163 -1.2661 -1.0086
 3041TIP3    H230759   6.879   5.617   6.835  1.1191  0.6226 -0.2462
 3042TIP3   OH230760   2.233   7.158   0.178  0.0599  0.4218  0.3300
 3042TIP3    H130761   2.324   7.164   0.150  0.3222 -0.8853  0.8326
 3042TIP3    H230762   2.194   7.242   0.154  0.6213 -0.1355 -2.6315
 3043TIP3   OH230763   5.785   0.424   8.441 -0.0926 -0.2633 -0.0265
 3043TIP3    H130764   5.740   0.416   8.525 -0.9031  0.6461 -0.3814
 3043TIP3    H230765   5.757   0.508   8.405  0.3755 -0.5669 -1.1398
 3044TIP3   OH230766   0.746   6.724   1.106 -0.3336  0.2143  0.2066
 3044TIP3    H130767   0.744   6.628   1.105  0.8156  0.1779  0.2686
 3044TIP3    H230768   0.682   6.750   1.040  1.4176 -0.6676 -1.9343
 3045TIP3   OH230769   1.277   5.910   8.310 -0.1143 -0.5629 -0.0201
 3045TIP3    H130770   1.364   5.871   8.310  0.2014  0.1310 -0.1284
 3045TIP3    H230771   1.241   5.890   8.224 -1.3601 -3.6822  1.1633
 3046TIP3   OH230772   5.190   0.565   1.730 -0.2167  0.1277 -0.0444
 3046TIP3    H130773   5.253   0.494   1.718  0.8496  1.1556 -0.6628
 3046TIP3    H230774   5.127   0.552   1.659  0.6924  0.5274 -0.9496
 3047TIP3   OH230775   4.707   6.528   6.393  0.3269 -0.3812 -0.4867
 3047TIP3    H130776   4.791   6.491   6.368  0.5709  1.6708 -2.8016
 3047TIP3    H230777   4.643   6.459   6.372  1.1919 -1.0801 -0.8355
 3048TIP3   OH230778   6.358   6.167   1.019  0.0516  0.1311 -0.1990
 3048TIP3    H130779   6.367   6.193   0.928  1.8301 -0.5009 -0.2250
 3048TIP3    H230780   6.310   6.239   1.060 -1.0807  0.2473 -1.6872
 3049TIP3   OH230781   1.002   7.246   6.067  0.4199  0.1709  0.2419
 3049TIP3    H130782   0.945   7.307   6.114 -1.3314 -0.8585 -0.4999
 3049TIP3    H230783   1.042   7.193   6.136  1.2358  1.5275  0.8278
 3050TIP3   OH230784   6.760   5.648   7.735 -0.1317  0.8494 -0.0833
 3050TIP3    H130785   6.759   5.611   7.823  0.1444  1.6251  0.2474
 3050TIP3    H230786   6.691   5.600   7.688  0.1966 -0.0494  0.3527
 3051TIP3   OH230787   6.589   6.016   8.387 -0.1451  0.0719 -0.4998
 3051TIP3    H130788   6.640   6.034   8.308 -0.9469  2.1022 -0.5888
 3051TIP3    H230789   6.574   6.102   8.426  0.7209 -0.9358  2.1833
 3052TIP3   OH230790   5.976   0.229   6.318  0.3316  0.2341 -0.2978
 3052TIP3    H130791   5.996   0.312   6.274 -0.6250 -0.8431 -2.8550
 3052TIP3    H230792   5.914   0.185   6.260  2.5425 -3.2779 -0.1656
 3053TIP3   OH230793   5.903   1.352   6.825 -0.3012 -0.0445  0.1777
 3053TIP3    H130794   5.906   1.267   6.867 -0.2673 -0.3592 -0.4570
 3053TIP3    H230795   5.921   1.334   6.732  0.0453  0.6868  0.0979
 3054TIP3   OH230796   1.592   5.452   8.302  0.1908 -0.3326  0.2330
 3054TIP3    H130797   1.654   5.469   8.231  0.4084 -1.1222  0.2190
 3054TIP3    H230798   1.615   5.364   8.332 -0.2342 -0.1998  0.9423
 3055TIP3   OH230799   0.206   7.041   6.675  0.0675  0.0784  0.2922
 3055TIP3    H130800   0.141   6.978   6.646 -0.8633  0.3968  1.6466
 3055TIP3    H230801   0.248   7.071   6.594  0.8740 -2.6124 -0.3534
 3056TIP3   OH230802   2.774   7.060   8.321  0.1432  0.0985  0.2431
 3056TIP3    H130803   2.807   7.118   8.389  0.0232  1.5147 -0.8755
 3056TIP3    H230804   2.765   7.117   8.244 -0.4770 -1.2926 -0.7239
 3057TIP3   OH230805   1.111   1.918   6.663  0.0609 -0.4947 -0.6654
 3057TIP3    H130806   1.069   1.832   6.657 -0.4608 -0.1276 -2.5372
 3057TIP3    H230807   1.055   1.975   6.610  0.2888  1.0514  0.7291
 3058TIP3   OH230808   6.585   3.183   5.990  0.0214  0.4468  0.3316
 3058TIP3    H130809   6.586   3.138   6.075  0.0535 -0.1427  0.0223
 3058TIP3    H230810   6.608   3.274   6.011  0.1549  0.2787  0.9397
 3059TIP3   OH230811   3.667   5.392   0.265 -0.3303 -0.1739  0.1818
 3059TIP3    H130812   3.611   5.402   0.188  0.1722 -1.9713 -0.4407
 3059TIP3    H230813   3.726   5.467   0.262 -0.1617 -0.3564 -1.3291
 3060TIP3   OH230814   2.001   5.786   8.459  0.6432  0.2675 -0.5872
 3060TIP3    H130815   1.997   5.801   8.554  1.0886  0.5227 -0.6089
 3060TIP3    H230816   1.972   5.695   8.448  0.0018  0.4275 -0.2681
 3061TIP3   OH230817   4.454   0.110   0.680  0.3910  0.7415 -0.0507
 3061TIP3    H130818   4.368   0.069   0.670  0.3919  0.3750  1.4221
 3061TIP3    H230819   4.515   0.036   0.686  0.8481  1.0008 -1.3393
 3062TIP3   OH230820   5.569   5.530   7.675 -0.1717 -0.0514  0.5243
 3062TIP3    H130821   5.502   5.597   7.666  0.3462  0.2460 -1.2856
 3062TIP3    H230822   5.602   5.516   7.586  0.5666 -1.8404  1.0523
 3063TIP3   OH230823   6.826   6.210   6.419  0.5934 -0.1702  0.1510
 3063TIP3    H130824   6.745   6.168   6.391  0.5667 -0.1209  0.1553
 3063TIP3    H230825   6.863   6.151   6.485  0.1456  0.2140  0.7478
 3064TIP3   OH230826   4.206   6.269   7.282 -0.0670  0.2555 -0.0682
 3064TIP3    H130827   4.297   6.250   7.305 -0.1058  0.2252  0.0592
 3064TIP3    H230828   4.172   6.318   7.356 -0.7780 -1.5350  0.8191
 3065TIP3   OH230829   0.516   6.999   5.667 -0.0187 -0.0724 -0.6358
 3065TIP3    H130830   0.566   7.052   5.729  0.6192  0.3286 -1.4805
 3065TIP3    H230831   0.498   6.918   5.714  0.9924 -0.0160 -0.1353
 3066TIP3   OH230832   6.123   1.340   7.797  0.1669  0.2539 -0.6810
 3066TIP3    H130833   6.150   1.372   7.710  0.2433 -1.1194 -1.1661
 3066TIP3    H230834   6.192   1.279   7.823  0.1973  0.7315  0.4086
 3067TIP3   OH230835   0.522   6.548   5.995 -0.1856  0.0540  0.2263
 3067TIP3    H130836   0.567   6.483   5.941  0.6259 -0.9918  2.0933
 3067TIP3    H230837   0.504   6.502   6.077 -1.7218  1.4856  0.7109
 3068TIP3   OH230838   3.383   6.783   8.009 -0.1301  0.7393  0.0938
 3068TIP3    H130839   3.475   6.803   8.025 -0.8701  3.7706  1.0294
 3068TIP3    H230840   3.382   6.736   7.926  2.2093  1.0958 -0.1655
 3069TIP3   OH230841   0.103   6.763   6.211  0.4601  0.0808 -0.2011
 3069TIP3    H130842   0.070   6.845   6.176  1.0791  0.4165 -0.0023
 3069TIP3    H230843   0.035   6.735   6.273 -0.0686  0.0912 -0.7732
 3070TIP3   OH230844   6.895   5.008   0.933 -0.0509  0.4085 -0.1335
 3070TIP3    H130845   6.844   4.937   0.894  0.7955  0.9764 -2.3751
 3070TIP3    H230846   6.934   4.970   1.012 -1.2724 -0.9853 -0.1838
 3071TIP3   OH230847   0.365   3.302   1.540 -0.4758  0.0731 -0.2484
 3071TIP3    H130848   0.400   3.286   1.627  2.8540 -0.8982 -1.6847
 3071TIP3    H230849   0.389   3.393   1.521  0.0027 -0.1531 -0.7090
 3072TIP3   OH230850   0.905   6.064   6.076 -0.1217 -0.5515  0.4415
 3072TIP3    H130851   0.899   6.003   6.002  0.7801 -3.5030  2.6971
 3072TIP3    H230852   0.998   6.089   6.077 -0.3691  0.4227 -0.1026
 3073TIP3   OH230853   5.419   0.982   7.329 -0.2928  0.2894  0.0732
 3073TIP3    H130854   5.507   0.957   7.359 -1.0668 -1.7073  0.7132
 3073TIP3    H230855   5.435   1.030   7.247  1.4484  0.7496  0.6574
 3074TIP3   OH230856   5.402   0.947   6.754 -1.4116 -0.0973 -0.2027
 3074TIP3    H130857   5.352   0.918   6.679 -0.5808 -2.4808  0.1288
 3074TIP3    H230858   5.491   0.959   6.721 -0.7432 -2.4411  0.6284
 3075TIP3   OH230859   0.071   4.287   0.484  0.1280 -0.1493  0.8616
 3075TIP3    H130860  -0.007   4.324   0.443  1.5058  2.2789  0.3507
 3075TIP3    H230861   0.082   4.338   0.564  1.9400  0.4298  0.2572
 3076TIP3   OH230862   6.169   0.051   8.370 -0.3951 -0.5318  0.4613
 3076TIP3    H130863   6.108   0.122   8.348 -0.8074 -0.5692  1.4637
 3076TIP3    H230864   6.190   0.065   8.462 -0.0122 -1.3716  0.5093
 3077TIP3   OH230865   0.373   0.625   1.267  0.1915 -0.2253  0.2865
 3077TIP3    H130866   0.322   0.694   1.309  0.8072 -0.4979  1.5395
 3077TIP3    H230867   0.464   0.648   1.287  0.5503  0.0708 -1.6136
 3078TIP3   OH230868   5.043   6.139   6.986 -0.2882  0.2988 -0.4373
 3078TIP3    H130869   5.025   6.046   6.998  0.7324  0.1579  0.0148
 3078TIP3    H230870   5.137   6.144   6.969 -0.5614  1.1308 -1.7794
 3079TIP3   OH230871   7.318   4.733   7.952  0.2010 -0.0406  0.1712
 3079TIP3    H130872   7.375   4.766   7.883 -1.7105  1.6060 -0.6846
 3079TIP3    H230873   7.260   4.671   7.907 -0.5536  0.4699  0.4316
 3080TIP3   OH230874   2.963   5.175   7.737  0.2760  0.0390 -0.0590
 3080TIP3    H130875   2.867   5.169   7.735  0.3438 -1.3467  0.5490
 3080TIP3    H230876   2.991   5.142   7.652  0.2033  0.7201 -0.3502
 3081TIP3   OH230877   4.790   4.454   7.654 -0.1241 -0.1954 -0.5739
 3081TIP3    H130878   4.750   4.420   7.575 -1.9384 -1.3935  0.8066
 3081TIP3    H230879   4.735   4.529   7.679 -1.8038 -2.0545  1.5190
 3082TIP3   OH230880   5.914   5.076   7.999  0.2226 -0.3744 -0.3999
 3082TIP3    H130881   5.870   5.022   8.064  1.8576 -1.1717  0.0699
 3082TIP3    H230882   5.863   5.157   7.997 -0.3211 -0.6599  1.2815
 3083TIP3   OH230883   2.198   5.354   6.667 -0.3538 -0.2767 -0.4876
 3083TIP3    H130884   2.213   5.416   6.738  2.1059 -0.5546 -0.7276
 3083TIP3    H230885   2.165   5.275   6.710 -1.3866  0.4301  0.0421
 3084TIP3   OH230886   1.896   0.827   6.666 -0.2328  0.9126  0.7032
 3084TIP3    H130887   1.978   0.798   6.707  0.3675  1.0757 -0.3365
 3084TIP3    H230888   1.867   0.751   6.615  0.5424  1.6089 -0.8186
 3085TIP3   OH230889   6.440   6.228   0.764 -0.0617 -0.5049  0.4132
 3085TIP3    H130890   6.503   6.161   0.735  0.4306 -0.4671  1.3673
 3085TIP3    H230891   6.491   6.309   0.765 -0.2745 -0.3757  0.6646
 3086TIP3   OH230892   5.947   0.157   0.648 -0.4864  0.3165 -0.4695
 3086TIP3    H130893   5.977   0.084   0.594 -0.8853 -1.4198  1.6409
 3086TIP3    H230894   6.027   0.197   0.682 -0.3236  0.0373 -0.5281
 3087TIP3   OH230895   4.364   5.700   7.324  0.2092 -0.1777  0.2171
 3087TIP3    H130896   4.306   5.628   7.348  1.3036 -1.8294 -1.9534
 3087TIP3    H230897   4.305   5.774   7.307 -1.0390 -1.0552  0.7238
 3088TIP3   OH230898   6.747   6.399   2.097 -0.6012 -0.1846 -0.3058
 3088TIP3    H130899   6.656   6.416   2.072 -0.9910  1.4184  2.0594
 3088TIP3    H230900   6.752   6.427   2.188  2.6678  1.2515 -0.8640
 3089TIP3   OH230901   6.346   3.566   7.355  0.4490 -0.1853  0.1886
 3089TIP3    H130902   6.370   3.590   7.444 -2.1546  0.0032  0.8710
 3089TIP3    H230903   6.395   3.486   7.337  1.6721  0.2678  1.4475
 3090TIP3   OH230904   0.164   6.638   8.336  0.3222 -0.1717  0.9465
 3090TIP3    H130905   0.130   6.728   8.332  0.3877 -0.2096 -2.0510
 3090TIP3    H230906   0.258   6.648   8.321  0.0021 -0.8623 -1.8210
 3091TIP3   OH230907   4.824   5.930   0.620 -0.0955  0.2660  0.6041
 3091TIP3    H130908   4.828   5.918   0.525  2.4484  1.9311  0.4765
 3091TIP3    H230909   4.818   5.841   0.655 -1.1333 -0.3565 -1.1023
 3092TIP3   OH230910   5.694   5.602   1.578  0.4851 -0.2343  0.5248
 3092TIP3    H130911   5.624   5.542   1.552  0.6505  0.2114 -1.0040
 3092TIP3    H230912   5.748   5.551   1.638  0.1616 -1.3567 -0.1140
 3093TIP3   OH230913   0.525   6.266   6.563 -0.0011 -0.2325  0.5368
 3093TIP3    H130914   0.455   6.331   6.560 -0.5990 -0.7721  2.1560
 3093TIP3    H230915   0.602   6.316   6.592  0.2955  0.3527 -1.2048
 3094TIP3   OH230916   6.060   5.232   8.461 -0.5842 -0.2567  0.5051
 3094TIP3    H130917   6.120   5.210   8.532 -1.1538 -1.8705  0.5066
 3094TIP3    H230918   6.034   5.322   8.478  0.9369  0.0630  1.1520
 3095TIP3   OH230919   6.340   4.204   0.377 -0.1528 -0.2682  0.0605
 3095TIP3    H130920   6.338   4.138   0.307 -0.7917  0.0218 -0.2037
 3095TIP3    H230921   6.354   4.154   0.457  3.3051 -0.3691 -0.5567
 3096TIP3   OH230922   0.251   3.883   7.317 -0.1026 -0.2295  0.2157
 3096TIP3    H130923   0.171   3.832   7.309  0.6056 -1.0083 -2.4817
 3096TIP3    H230924   0.232   3.966   7.274  0.9506 -0.9865 -1.8018
 3097TIP3   OH230925   5.823   4.980   1.139  0.1530 -0.3935 -0.0789
 3097TIP3    H130926   5.895   5.007   1.082  0.6396 -1.3785  0.0698
 3097TIP3    H230927   5.744   5.005   1.091  0.5731 -0.1581 -0.6541
 3098TIP3   OH230928   0.884   6.443   0.022 -0.1608  0.0333 -0.4157
 3098TIP3    H130929   0.824   6.401  -0.039 -3.0934  1.4630  1.3508
 3098TIP3    H230930   0.876   6.392   0.103  0.0016  1.0164  0.2340
 3099TIP3   OH230931   7.040   5.882   6.763 -0.5429  0.2658  0.1594
 3099TIP3    H130932   7.053   5.823   6.837  0.0273 -0.4708 -0.5259
 3099TIP3    H230933   7.127   5.894   6.725 -0.5783  1.8594  0.5178
 3100TIP3   OH230934   4.959   6.439   0.363  0.1008 -0.0928 -0.5301
 3100TIP3    H130935   4.891   6.382   0.398  2.4106 -1.8037  1.3510
 3100TIP3    H230936   5.020   6.380   0.319  2.7025  0.7921  1.7262
 3101TIP3   OH230937   6.168   5.595   5.642  0.2976  0.3154 -0.1073
 3101TIP3    H130938   6.110   5.540   5.694  0.5177  0.6805  0.5293
 3101TIP3    H230939   6.171   5.678   5.690  1.5928  0.1938  0.0226
 3102TIP3   OH230940   7.199   4.512   0.683 -0.3161  0.0019  0.3288
 3102TIP3    H130941   7.165   4.424   0.698 -1.5746  0.5410  0.6508
 3102TIP3    H230942   7.172   4.534   0.593  1.4715 -0.6021 -0.3772
 3103TIP3   OH230943   6.298   6.879   0.265  0.0964  0.0687  0.4033
 3103TIP3    H130944   6.354   6.941   0.313  2.8477 -0.6646 -1.6883
 3103TIP3    H230945   6.291   6.916   0.178 -0.3175 -1.3213 -0.1631
 3104TIP3   OH230946   5.998   0.258   8.317 -0.1097 -0.1471  0.4152
 3104TIP3    H130947   6.067   0.320   8.293  0.4181 -0.4751  1.0724
 3104TIP3    H230948   5.938   0.309   8.371  0.8852 -0.4734  1.8507
 3105TIP3   OH230949   0.844   0.089   7.441 -0.1768 -0.3216 -0.0677
 3105TIP3    H130950   0.768   0.047   7.481 -2.6287  2.2049 -1.8333
 3105TIP3    H230951   0.888   0.134   7.513 -0.4848 -1.6485  0.9577
 3106TIP3   OH230952   5.466   1.824   6.997 -0.0808 -0.0969  0.0535
 3106TIP3    H130953   5.451   1.882   7.071  5.1517 -2.2337  3.0490
 3106TIP3    H230954   5.435   1.738   7.027 -1.1944 -0.3126 -1.6334
 3107TIP3   OH230955   7.072   6.879   6.657 -0.3879 -0.7517  0.2015
 3107TIP3    H130956   6.988   6.884   6.702 -0.7555 -0.6280 -0.4853
 3107TIP3    H230957   7.061   6.933   6.579  0.3291 -0.7355  0.1032
 3108TIP3   OH230958   5.352   7.054   0.090 -0.1019  0.4390  0.0367
 3108TIP3    H130959   5.307   7.066   0.006 -3.7489  0.8297  1.9578
 3108TIP3    H230960   5.310   6.977   0.128  0.9723  0.7426  1.8477
 3109TIP3   OH230961   0.968   0.785   6.579 -0.7198 -0.5573  0.0716
 3109TIP3    H130962   1.047   0.775   6.632 -0.0145 -2.5224 -1.2820
 3109TIP3    H230963   0.913   0.711   6.603 -1.6490  0.1426  0.1319
 3110TIP3   OH230964   4.698   6.060   7.843 -0.3851  0.3591 -0.2800
 3110TIP3    H130965   4.793   6.074   7.848  0.0831 -2.1519 -1.4423
 3110TIP3    H230966   4.674   6.091   7.756  0.0506 -2.4101 -1.4487
 3111TIP3   OH230967   6.576   4.290   7.835 -0.1779  0.0630 -0.0750
 3111TIP3    H130968   6.663   4.315   7.865  0.2013 -0.6488 -0.5610
 3111TIP3    H230969   6.568   4.331   7.749  0.3058 -1.1789 -0.7184
 3112TIP3   OH230970   6.793   6.085   6.055 -0.3854 -0.8356  0.1033
 3112TIP3    H130971   6.879   6.054   6.084 -0.3714 -0.2926  0.6609
 3112TIP3    H230972   6.784   6.052   5.966 -0.3402 -2.3633  0.6531
 3113TIP3   OH230973   6.117   6.322   6.176  0.0147  0.2182 -0.4880
 3113TIP3    H130974   6.087   6.347   6.088 -0.7421 -2.5571 -1.0945
 3113TIP3    H230975   6.209   6.347   6.178 -0.3057  1.5498 -1.5853
 3114TIP3   OH230976   0.535   4.599   7.304  0.5549 -0.0933 -0.2904
 3114TIP3    H130977   0.462   4.589   7.366  0.7908 -0.3076 -0.0410
 3114TIP3    H230978   0.505   4.664   7.241 -0.8700 -2.0267 -1.6776
 3115TIP3   OH230979   5.370   5.279   8.223 -0.5203 -0.3284 -0.6205
 3115TIP3    H130980   5.465   5.274   8.216 -0.3299 -1.5660  2.2865
 3115TIP3    H230981   5.339   5.189   8.212 -1.2188 -0.1895  0.1229
 3116TIP3   OH230982   1.035   4.948   7.722  0.1877 -0.7657  0.0003
 3116TIP3    H130983   0.959   4.916   7.771  0.3228  1.3189  1.6291
 3116TIP3    H230984   1.019   4.919   7.632 -2.6843 -0.1617  0.2513
 3117TIP3   OH230985   7.243   4.008   7.604 -0.4678  0.0687 -0.4419
 3117TIP3    H130986   7.243   4.103   7.613  0.5711  0.1395 -1.0808
 3117TIP3    H230987   7.166   3.979   7.653  0.0519  1.1087  1.0275
 3118TIP3   OH230988   5.954   7.080   0.173 -0.5511 -0.2392 -0.0395
 3118TIP3    H130989   5.928   7.008   0.115 -1.4465 -0.3154  0.4355
 3118TIP3    H230990   5.876   7.096   0.227 -0.0314  0.4336  0.5218
 3119TIP3   OH230991   7.178   2.726   1.736  0.5151 -0.0972  0.5198
 3119TIP3    H130992   7.141   2.638   1.735  0.0204  0.1085  0.4909
 3119TIP3    H230993   7.232   2.729   1.814 -0.6641  0.0603  1.3432
 3120TIP3   OH230994   4.429   0.687   8.254 -0.3704  0.5200 -0.6602
 3120TIP3    H130995   4.395   0.639   8.178  0.9036  0.2858 -1.0846
 3120TIP3    H230996   4.520   0.659   8.262 -0.8017 -0.3316  1.6668
 3121TIP3   OH230997   1.619   6.861   6.380 -0.3422  0.2767 -0.2326
 3121TIP3    H130998   1.669   6.886   6.303  0.2199 -2.2325 -0.7310
 3121TIP3    H230999   1.631   6.767   6.387 -1.0710  0.3373  2.4505
 3122TIP3   OH231000   3.373   2.882   1.987  0.0299  0.2834 -0.5608
 3122TIP3    H131001   3.319   2.961   1.981  1.0356  0.9942 -0.3641
 3122TIP3    H231002   3.359   2.851   2.077 -1.0028 -0.2267 -0.8942
 3123TIP3   OH231003   2.784   2.620   0.098 -0.6187 -0.1493 -0.1968
 3123TIP3    H131004   2.713   2.646   0.157 -1.6595  0.1628 -1.5845
 3123TIP3    H231005   2.856   2.598   0.157 -0.5402  3.3078  1.1239
 3124TIP3   OH231006   2.257   4.198   0.208  0.0255 -0.0967 -0.0350
 3124TIP3    H131007   2.267   4.169   0.299  0.3153  2.8812  0.9293
 3124TIP3    H231008   2.164   4.184   0.189 -0.2973  0.3754  1.1316
 3125TIP3   OH231009   0.789   7.243   0.958 -0.3441 -0.0708 -0.6229
 3125TIP3    H131010   0.813   7.220   1.048 -1.8187 -0.5296 -0.3351
 3125TIP3    H231011   0.811   7.165   0.907 -2.2164 -0.9079 -0.1831
 3126TIP3   OH231012   5.628   5.321   0.628  0.1635  0.0503 -0.3338
 3126TIP3    H131013   5.699   5.386   0.630  0.1530  0.0597 -0.3073
 3126TIP3    H231014   5.669   5.240   0.656  0.0817  0.1320  0.0191
 3127TIP3   OH231015   1.608   0.550   0.671 -0.5507 -0.0075 -0.0539
 3127TIP3    H131016   1.513   0.534   0.673 -0.3385 -1.3427  0.0837
 3127TIP3    H231017   1.624   0.610   0.743 -1.2428 -0.0897  0.1758
 3128TIP3   OH231018   0.904   6.549   7.508  0.5397  0.5561 -0.1876
 3128TIP3    H131019   0.898   6.626   7.452  0.0191  1.4332  1.0574
 3128TIP3    H231020   0.955   6.486   7.457 -0.4114  1.1295 -1.8789
 3129TIP3   OH231021   1.968   7.163   1.411  0.1238  0.1331  0.3089
 3129TIP3    H131022   1.982   7.085   1.465  0.8757  0.3913  0.4921
 3129TIP3    H231023   1.873   7.172   1.407  0.0440 -0.4026  0.8568
 3130TIP3   OH231024   3.854   0.340   7.927 -0.1038 -0.2198 -0.0332
 3130TIP3    H131025   3.885   0.337   8.017 -0.0294 -1.5803 -0.0898
 3130TIP3    H231026   3.929   0.374   7.877  0.2161 -0.4669  0.2749
 3131TIP3   OH231027   1.044   7.195   6.916 -0.4163 -0.3849  0.3398
 3131TIP3    H131028   0.983   7.164   6.850 -0.1003 -1.8534  0.7335
 3131TIP3    H231029   0.989   7.229   6.987 -0.7578  1.4530 -0.7578
 3132TIP3   OH231030   1.617   3.014   1.515 -0.4344 -0.2150  0.4940
 3132TIP3    H131031   1.669   3.045   1.590 -1.2916  1.7480  0.3011
 3132TIP3    H231032   1.583   2.929   1.543  1.4449 -0.7200  1.2974
 3133TIP3   OH231033   0.059   5.011   7.723 -0.5602  0.2833 -0.3149
 3133TIP3    H131034  -0.001   5.071   7.766  0.0978  0.8407 -0.1592
 3133TIP3    H231035   0.020   4.992   7.638 -1.0076  0.5515 -0.1667
 3134TIP3   OH231036   3.204   0.183   7.931 -0.0413  0.3100  0.2316
 3134TIP3    H131037   3.234   0.210   8.018 -1.9715  0.4379  0.8785
 3134TIP3    H231038   3.252   0.102   7.914  0.1601  0.1373  1.5375
 3135TIP3   OH231039   1.312   2.209   2.249  0.1380  0.6389 -0.0038
 3135TIP3    H131040   1.337   2.131   2.299 -0.3974  1.0028  0.8317
 3135TIP3    H231041   1.384   2.270   2.261 -0.7042  1.3405  1.6587
 3136TIP3   OH231042   1.713   1.102   2.012  0.1243  0.1258  0.5825
 3136TIP3    H131043   1.728   1.097   2.106  2.6416 -1.2969  0.1600
 3136TIP3    H231044   1.684   1.015   1.987 -0.9654  0.6152  0.0872
 3137TIP3   OH231045   7.159   1.567   2.019 -0.0068 -0.8151 -0.0943
 3137TIP3    H131046   7.220   1.592   2.089 -0.1627  0.4426 -0.4020
 3137TIP3    H231047   7.211   1.575   1.939 -0.5888  0.3497 -0.3662
 3138TIP3   OH231048   1.127   5.448   0.431  0.5091  0.2660  0.1791
 3138TIP3    H131049   1.129   5.414   0.341  1.3943 -2.8215  1.3022
 3138TIP3    H231050   1.150   5.541   0.422  0.4395  0.0412 -2.7884
 3139TIP3   OH231051   6.806   4.013   0.317  0.0935 -0.1235  0.6466
 3139TIP3    H131052   6.858   4.088   0.346  1.0994 -0.2786 -0.7163
 3139TIP3    H231053   6.851   3.936   0.352 -0.1289 -0.1630  0.8426
 3140TIP3   OH231054   2.157   4.218   0.932 -0.4060  0.0660  0.5614
 3140TIP3    H131055   2.181   4.197   1.023  1.2316 -1.2078 -0.1470
 3140TIP3    H231056   2.222   4.173   0.879 -0.9609  1.3525 -1.2499
 3141TIP3   OH231057   2.027   0.830   7.000 -0.1161  0.0242  0.3490
 3141TIP3    H131058   1.952   0.886   7.019 -0.0909  0.0971  0.2303
 3141TIP3    H231059   1.990   0.752   6.960 -0.3125 -0.7644  2.0320
 3142TIP3   OH231060   1.278   4.316   0.036 -0.2507  0.0532  0.3687
 3142TIP3    H131061   1.339   4.274  -0.025  1.8136  3.9319 -0.3770
 3142TIP3    H231062   1.322   4.310   0.121 -0.7254 -0.6948  0.5708
 3143TIP3   OH231063   6.263   5.336   7.994 -0.1732 -0.5756  0.0861
 3143TIP3    H131064   6.280   5.419   8.039  1.1466 -0.4150 -0.6748
 3143TIP3    H231065   6.225   5.280   8.061  1.0448 -0.0992  1.2187
 3144TIP3   OH231066   5.017   3.674   1.164 -0.6750 -0.0162 -0.0651
 3144TIP3    H131067   5.023   3.584   1.194 -1.1047  0.6414  2.0992
 3144TIP3    H231068   4.986   3.723   1.241 -1.6986  1.7602 -1.5659
 3145TIP3   OH231069   4.839   1.560   7.622 -0.2354 -0.5162  0.1739
 3145TIP3    H131070   4.912   1.508   7.591 -0.3398 -1.1435  0.9527
 3145TIP3    H231071   4.779   1.497   7.661 -1.3842 -0.0552 -0.8177
 3146TIP3   OH231072   4.319   5.348   0.980  0.7053  0.5107 -0.0668
 3146TIP3    H131073   4.357   5.312   0.900 -0.2703 -0.6686 -0.0163
 3146TIP3    H231074   4.232   5.379   0.953  0.4690  0.3312  0.4794
 3147TIP3   OH231075   4.752   0.767   1.379  0.9971 -0.1986  0.2427
 3147TIP3    H131076   4.743   0.804   1.467  0.5041  0.3023 -0.0136
 3147TIP3    H231077   4.735   0.841   1.320  4.6791  0.3211 -0.2921
 3148TIP3   OH231078   3.224   1.739   0.343  0.1300  0.1060 -0.4295
 3148TIP3    H131079   3.175   1.712   0.420  1.6139 -1.7181 -0.1018
 3148TIP3    H231080   3.193   1.682   0.273  0.0258  0.6034 -0.7928
 3149TIP3   OH231081   2.071   0.342   0.734  0.4372 -0.0692  0.3024
 3149TIP3    H131082   1.983   0.380   0.732 -0.4743 -1.9815  2.1014
 3149TIP3    H231083   2.065   0.264   0.679  1.4215  0.5843 -0.7556
 3150TIP3   OH231084   3.750   2.295   7.809  0.4216  0.2611  0.0977
 3150TIP3    H131085   3.806   2.217   7.805  0.9925  0.6630  0.1730
 3150TIP3    H231086   3.808   2.364   7.840 -0.2107  0.6045  0.5151
 3151TIP3   OH231087   2.093   3.164   1.604 -0.1565 -0.0158  0.0946
 3151TIP3    H131088   2.082   3.197   1.515  0.7197 -0.8862 -0.3494
 3151TIP3    H231089   2.187   3.168   1.619 -0.1552 -1.3102  0.4260
 3152TIP3   OH231090   2.286   6.097   6.426  0.0196 -0.2386  0.3018
 3152TIP3    H131091   2.369   6.061   6.392  0.0511  0.0465  0.0696
 3152TIP3    H231092   2.229   6.099   6.349  1.0621  3.3185 -0.5033
 3153TIP3   OH231093   2.537   0.563   8.346 -0.6290 -0.3758 -0.3175
 3153TIP3    H131094   2.468   0.496   8.346 -1.1819  0.1868  0.1115
 3153TIP3    H231095   2.515   0.620   8.419  0.1864 -0.0760 -0.3077
 3154TIP3   OH231096   1.766   2.137   1.629 -0.2072 -0.4832 -0.1854
 3154TIP3    H131097   1.707   2.078   1.582  1.0005 -0.9233 -1.1582
 3154TIP3    H231098   1.728   2.143   1.717 -0.1696 -2.9705  0.0385
 3155TIP3   OH231099   1.182   3.149   6.778 -0.3931 -0.3514 -0.2807
 3155TIP3    H131100   1.253   3.163   6.841  0.3196 -1.4850 -0.8071
 3155TIP3    H231101   1.102   3.152   6.831  0.0756  0.5075  0.3845
 3156TIP3   OH231102   3.083   0.625   7.036 -0.4768  0.2277  0.2957
 3156TIP3    H131103   3.081   0.678   6.956  2.4772  1.3857  0.9300
 3156TIP3    H231104   3.123   0.542   7.008 -0.3848  0.2578  0.3363
 3157TIP3   OH231105   3.803   0.091   6.847  0.0320 -0.5083  1.3364
 3157TIP3    H131106   3.844   0.005   6.849  0.2630 -0.4040  1.1033
 3157TIP3    H231107   3.835   0.134   6.927  0.9921 -0.1489  0.7740
 3158TIP3   OH231108   2.415   6.787   0.849 -0.0714 -0.2473  0.5555
 3158TIP3    H131109   2.401   6.781   0.943 -0.5800  0.5396  0.5383
 3158TIP3    H231110   2.509   6.803   0.839  0.1958 -1.6383  0.8646
 3159TIP3   OH231111   2.076   0.079   8.275  0.1750  0.1042  0.1739
 3159TIP3    H131112   2.048  -0.010   8.255 -0.6820  0.4236 -0.0590
 3159TIP3    H231113   2.163   0.069   8.314 -0.9045 -1.0357  2.3633
 3160TIP3   OH231114   4.618   2.122   7.195  0.3234 -1.0330 -0.1106
 3160TIP3    H131115   4.684   2.191   7.206  1.2770 -2.0422  0.5612
 3160TIP3    H231116   4.535   2.165   7.216  0.5159  0.7652 -2.8296
 3161TIP3   OH231117   4.801   0.220   0.603 -0.1649 -0.2066 -0.4144
 3161TIP3    H131118   4.760   0.248   0.684 -1.4996 -0.7155 -0.9133
 3161TIP3    H231119   4.730   0.217   0.539  0.5906 -1.3735 -1.2156
 3162TIP3   OH231120   3.813   1.241   0.545 -0.1455 -0.0884  0.2736
 3162TIP3    H131121   3.742   1.279   0.494 -0.1132  1.9149  1.6690
 3162TIP3    H231122   3.781   1.239   0.635  0.9652 -0.6796  0.6702
 3163TIP3   OH231123   4.530   2.125   1.994 -0.9103  0.6642  0.2485
 3163TIP3    H131124   4.619   2.124   2.028 -0.6808  1.1670 -0.3216
 3163TIP3    H231125   4.522   2.044   1.944 -1.2160 -0.0275  1.4078
 3164TIP3   OH231126   2.853   2.138   7.452 -0.2368 -0.3504  0.5864
 3164TIP3    H131127   2.906   2.162   7.528  0.4102 -2.3441  0.7945
 3164TIP3    H231128   2.911   2.156   7.377 -1.0835  2.1741  0.4740
 3165TIP3   OH231129   1.864   5.105   0.937 -0.0823  0.2790  0.6148
 3165TIP3    H131130   1.940   5.078   0.989  0.2421 -0.0251 -0.0151
 3165TIP3    H231131   1.802   5.138   1.002  0.5050  0.3411  1.1529
 3166TIP3   OH231132   1.611   0.641   6.884 -0.3561  0.3588  0.5077
 3166TIP3    H131133   1.658   0.652   6.967  2.4844  0.9619 -1.0979
 3166TIP3    H231134   1.524   0.611   6.910  0.9060 -0.9002  3.6432
 3167TIP3   OH231135   0.577   5.055   7.101 -0.5494 -0.3353 -0.2680
 3167TIP3    H131136   0.585   5.137   7.149 -1.0009 -0.3590 -0.1442
 3167TIP3    H231137   0.589   5.078   7.009  3.4776 -0.7491  0.0815
 3168TIP3   OH231138   1.313   5.765   7.119  0.3200 -0.4297  0.1004
 3168TIP3    H131139   1.367   5.687   7.115  0.4730 -0.3994  1.2969
 3168TIP3    H231140   1.292   5.785   7.028  2.5343 -0.2978 -0.3993
 3169TIP3   OH231141   3.132   0.189   1.089  0.2885  0.0828 -0.6903
 3169TIP3    H131142   3.121   0.096   1.067 -1.0060  0.1058 -0.1944
 3169TIP3    H231143   3.212   0.215   1.044  0.4399 -1.1776 -1.1686
 3170TIP3   OH231144   2.958   1.923   6.378 -0.2565  0.4962  0.3172
 3170TIP3    H131145   2.945   2.003   6.430 -1.9102  0.5332 -0.1135
 3170TIP3    H231146   2.869   1.891   6.361  0.3518 -0.8199 -0.4763
 3171TIP3   OH231147   3.984   0.465   1.374  0.0469 -0.1188  0.5461
 3171TIP3    H131148   4.010   0.418   1.453 -0.8156  0.2654  1.0762
 3171TIP3    H231149   3.888   0.466   1.378 -0.0608 -1.1767 -1.1433
 3172TIP3   OH231150   2.363   1.448   6.478  0.3378 -0.2230 -0.0673
 3172TIP3    H131151   2.432   1.505   6.444  0.1771 -0.3188 -0.5560
 3172TIP3    H231152   2.282   1.494   6.458  0.2605 -0.1074  0.5134
 3173TIP3   OH231153   4.787   1.851   1.863  0.0166 -0.5170  0.0538
 3173TIP3    H131154   4.842   1.915   1.819 -0.6415  0.2816  0.3669
 3173TIP3    H231155   4.838   1.825   1.940 -0.1631  0.4445  0.5077
 3174TIP3   OH231156   3.109   6.906   7.363  0.4906  0.0208  0.1676
 3174TIP3    H131157   3.174   6.846   7.326  1.3047  1.1284 -0.2357
 3174TIP3    H231158   3.109   6.981   7.303 -0.2448  0.5778  0.8613
 3175TIP3   OH231159   2.324   0.733   6.273  0.2150  0.4556 -0.3966
 3175TIP3    H131160   2.313   0.740   6.178  2.1775 -1.5552 -0.8124
 3175TIP3    H231161   2.378   0.655   6.285  0.2059  0.8374  2.3681
 3176TIP3   OH231162   4.120   2.101   1.466  0.5449 -0.5620  0.2770
 3176TIP3    H131163   4.130   2.148   1.384 -0.6384  1.0341  1.0400
 3176TIP3    H231164   4.209   2.072   1.488  1.4348  1.9566  0.1737
 3177TIP3   OH231165   3.129   5.333   6.783  0.3817 -0.5969 -0.1734
 3177TIP3    H131166   3.049   5.285   6.762 -0.1198  0.8449 -1.6596
 3177TIP3    H231167   3.099   5.418   6.816  1.2813 -0.5470  0.5382
 3178TIP3   OH231168   0.538   0.555   6.571 -0.0072  0.2948  0.6467
 3178TIP3    H131169   0.614   0.527   6.520 -1.5434  0.3792 -1.8180
 3178TIP3    H231170   0.504   0.475   6.611  0.3995 -0.0260  0.3533
 3179TIP3   OH231171   3.074   6.952   0.616  0.0814  0.2340  0.1417
 3179TIP3    H131172   3.011   6.932   0.547 -2.4880 -1.2901  2.8300
 3179TIP3    H231173   3.104   6.867   0.647  2.0743  0.9199  0.2026
 3180TIP3   OH231174   0.949   5.285   0.924  0.4621  0.2727 -0.1372
 3180TIP3    H131175   0.983   5.374   0.921 -2.1851  1.3314 -0.1726
 3180TIP3    H231176   1.001   5.241   0.991 -0.2551  2.7787  2.1492
 3181TIP3   OH231177   3.435   2.478   7.349 -0.1080 -0.1700  0.1302
 3181TIP3    H131178   3.490   2.555   7.363 -1.4864  0.9521 -0.4864
 3181TIP3    H231179   3.473   2.411   7.405  0.8701  1.0853  0.9997
 3182TIP3   OH231180   3.147   4.028   1.746 -0.6409  0.0378 -0.3777
 3182TIP3    H131181   3.215   4.068   1.800 -0.2558 -0.3909 -0.5420
 3182TIP3    H231182   3.183   3.944   1.720 -1.5989 -0.5833  0.2672
 3183TIP3   OH231183   3.284   2.210   7.644 -0.3134 -0.1524  1.0987
 3183TIP3    H131184   3.304   2.304   7.639 -2.2848  0.3409  1.7400
 3183TIP3    H231185   3.312   2.175   7.560 -1.0792  1.3630  0.1809
 3184TIP3   OH231186   3.047   1.909   8.320 -0.3252 -0.9601  0.3670
 3184TIP3    H131187   3.029   1.945   8.233  0.2283 -1.7112 -0.0651
 3184TIP3    H231188   2.962   1.874   8.349 -0.5583 -0.5203  0.2164
 3185TIP3   OH231189   1.195   7.069   1.544 -0.0452 -0.1728 -0.5741
 3185TIP3    H131190   1.134   7.002   1.574 -0.5145 -0.7536 -2.7767
 3185TIP3    H231191   1.144   7.150   1.543 -0.4266 -0.4191 -1.1692
 3186TIP3   OH231192   3.412   2.672   8.397 -0.5237 -0.6246  0.3243
 3186TIP3    H131193   3.446   2.761   8.403 -1.2278 -0.3230 -0.0632
 3186TIP3    H231194   3.320   2.680   8.424 -1.1113 -0.9011 -1.5359
 3187TIP3   OH231195   5.391   3.999   8.457 -0.1040 -0.0563 -0.1317
 3187TIP3    H131196   5.330   3.993   8.530 -0.8243 -1.2283 -0.8151
 3187TIP3    H231197   5.335   3.999   8.379  0.7054  0.0091 -0.7187
 3188TIP3   OH231198   4.659   1.360   0.631 -0.2960 -0.4733  0.7549
 3188TIP3    H131199   4.743   1.365   0.677 -0.3654 -1.3618  0.9998
 3188TIP3    H231200   4.593   1.365   0.701 -0.4571  0.7755  0.5131
 3189TIP3   OH231201   6.263   5.378   6.749  0.0464  0.0407  0.2020
 3189TIP3    H131202   6.303   5.320   6.685 -0.5259 -0.2162  0.0779
 3189TIP3    H231203   6.329   5.385   6.819 -0.2216 -1.4375  0.6214
 3190TIP3   OH231204   3.082   0.917   1.543  0.1649  0.5483 -0.0989
 3190TIP3    H131205   3.120   0.842   1.589  0.8078 -0.7422 -2.6489
 3190TIP3    H231206   2.989   0.898   1.541  0.4836 -0.9409 -2.0055
 3191TIP3   OH231207   2.484   6.618   6.797 -0.1927 -0.1709  0.1210
 3191TIP3    H131208   2.395   6.589   6.816  0.4333 -1.6772  0.7951
 3191TIP3    H231209   2.523   6.635   6.882 -0.1223  1.4275 -0.2085
 3192TIP3   OH231210   4.566   0.572   6.816 -0.1379  0.4943 -0.5517
 3192TIP3    H131211   4.660   0.556   6.821 -0.8009 -3.8552 -0.0572
 3192TIP3    H231212   4.546   0.567   6.722 -0.1877 -0.9539 -0.4802
 3193TIP3   OH231213   3.863   1.924   0.016 -0.5075  0.0294  0.4233
 3193TIP3    H131214   3.937   1.893   0.067  1.4717  2.2189 -0.9888
 3193TIP3    H231215   3.858   2.018   0.035 -1.8146  0.2349 -0.8119
 3194TIP3   OH231216   4.645   2.752   6.529  0.0307 -0.0505 -0.3802
 3194TIP3    H131217   4.700   2.681   6.563  2.2775  2.3339  1.1060
 3194TIP3    H231218   4.699   2.793   6.462 -2.1707 -1.1273 -2.9074
 3195TIP3   OH231219   4.663   7.026   8.452 -0.7695  0.1772  0.5354
 3195TIP3    H131220   4.707   7.111   8.449 -0.7103  0.2020  1.7619
 3195TIP3    H231221   4.697   6.979   8.376  0.7904  0.4792  1.0329
 3196TIP3   OH231222   0.306   4.921   7.126  0.0437 -0.4643  0.5598
 3196TIP3    H131223   0.384   4.866   7.114 -0.2778 -0.9419  0.6483
 3196TIP3    H231224   0.306   4.978   7.049 -0.2347 -1.3463 -0.1005
 3197TIP3   OH231225   3.611   0.901   1.907  0.0639  0.0026  0.4864
 3197TIP3    H131226   3.632   0.990   1.934  0.3308  0.1127 -0.0740
 3197TIP3    H231227   3.678   0.846   1.948 -0.5669 -0.0331  1.4806
 3198TIP3   OH231228   2.567   4.847   0.236 -0.3796 -0.5514 -0.1603
 3198TIP3    H131229   2.503   4.825   0.168 -1.2424  1.0749  0.0951
 3198TIP3    H231230   2.642   4.791   0.217  0.2012  1.2749 -3.6944
 3199TIP3   OH231231   1.659   0.659   0.931  0.3440  0.3086  0.4652
 3199TIP3    H131232   1.690   0.597   0.998  1.0743  0.4187  0.2422
 3199TIP3    H231233   1.617   0.729   0.980 -0.4852 -0.3666  0.7237
 3200TIP3   OH231234   0.620   0.237   1.138  0.6381  0.2412  0.3555
 3200TIP3    H131235   0.652   0.280   1.217  0.3649  0.3694  0.3974
 3200TIP3    H231236   0.618   0.144   1.160  0.7290  0.2594  0.4408
 3201TIP3   OH231237   5.360   2.444   8.013 -0.5567  0.3156 -0.8474
 3201TIP3    H131238   5.332   2.525   8.056 -2.8151  0.3963 -2.3991
 3201TIP3    H231239   5.415   2.473   7.941 -1.1370  0.4509 -1.2353
 3202TIP3   OH231240   2.742   3.028   2.221 -0.1651 -0.7010  0.1720
 3202TIP3    H131241   2.747   3.045   2.315 -1.9733  0.9999  0.0017
 3202TIP3    H231242   2.686   2.950   2.213  0.1367 -0.9517  0.4994
 3203TIP3   OH231243   2.518   6.995   7.506 -0.1350  0.5292 -0.8008
 3203TIP3    H131244   2.497   7.084   7.479 -1.8845  0.3584 -0.0420
 3203TIP3    H231245   2.528   7.001   7.601  1.0148  0.1429 -0.8814
 3204TIP3   OH231246   4.535   6.978   8.013 -0.3286  0.3050  0.1949
 3204TIP3    H131247   4.599   7.036   7.971  0.2217 -1.1912 -1.0807
 3204TIP3    H231248   4.452   7.001   7.972 -0.1307  0.2791 -0.2301
 3205TIP3   OH231249   6.656   3.752   2.220  0.5458  0.3466 -0.1915
 3205TIP3    H131250   6.662   3.695   2.297  0.9048  1.4370  0.5969
 3205TIP3    H231251   6.597   3.823   2.246  0.5995  0.6780 -0.9450
 3206TIP3   OH231252   6.755   0.109   0.527 -0.1851  0.0889 -0.6512
 3206TIP3    H131253   6.813   0.081   0.598 -0.4369  1.1618 -0.0142
 3206TIP3    H231254   6.783   0.057   0.452  0.2339 -0.8921  0.1758
 3207TIP3   OH231255   5.020   6.201   1.782 -0.1175  0.0499 -0.5439
 3207TIP3    H131256   4.977   6.157   1.855 -0.3835 -1.1869 -1.4314
 3207TIP3    H231257   5.044   6.287   1.816  1.1538 -1.0824  1.4843
 3208TIP3   OH231258   4.597   5.673   7.176 -0.0873  0.2395  0.2242
 3208TIP3    H131259   4.519   5.628   7.210  0.1326  0.3189  0.8327
 3208TIP3    H231260   4.569   5.763   7.163  0.0429  0.3752  0.8980
 3209TIP3   OH231261   4.850   0.190   6.763 -0.0446 -0.2596 -0.2697
 3209TIP3    H131262   4.813   0.115   6.717 -2.2144  0.4896  0.2139
 3209TIP3    H231263   4.784   0.213   6.829  1.5047  0.7851  0.9536
 3210TIP3   OH231264   6.377   6.073   7.743 -0.1366 -0.7589 -0.5598
 3210TIP3    H131265   6.369   6.001   7.806 -2.5276  2.1583  2.6127
 3210TIP3    H231266   6.292   6.077   7.700  0.9980 -1.7365 -2.9932
 3211TIP3   OH231267   6.578   0.778   1.315  0.6573  0.3117  0.2649
 3211TIP3    H131268   6.612   0.707   1.370  0.0486 -1.0346 -1.0626
 3211TIP3    H231269   6.494   0.800   1.355  0.5319 -0.1951  0.2930
 3212TIP3   OH231270   2.885   2.190   6.904 -0.5200 -0.5217 -0.1284
 3212TIP3    H131271   2.839   2.125   6.851 -0.3227  1.6693 -3.1263
 3212TIP3    H231272   2.850   2.274   6.874  0.3210  0.8396  2.5783
 3213TIP3   OH231273   2.779   6.674   8.453 -0.4376 -0.0590  0.0891
 3213TIP3    H131274   2.737   6.593   8.481 -0.5364  0.6311  2.0142
 3213TIP3    H231275   2.848   6.689   8.517  0.7339  0.4571 -1.2730
 3214TIP3   OH231276   3.014   7.253   0.402  0.0044 -0.9777 -0.5560
 3214TIP3    H131277   2.954   7.183   0.424 -1.1021 -0.1520 -0.9053
 3214TIP3    H231278   2.962   7.333   0.411  1.8334 -0.0137  2.0341
 3215TIP3   OH231279   6.027   1.457   1.743 -0.3873  0.1185  0.2994
 3215TIP3    H131280   6.078   1.460   1.824  1.0788 -0.8900 -0.5681
 3215TIP3    H231281   6.075   1.398   1.686 -1.5686  0.5755 -1.2167
 3216TIP3   OH231282   6.110   5.698   1.186 -0.4186  0.4103  0.7929
 3216TIP3    H131283   6.204   5.701   1.204  0.9359  0.4912 -5.2228
 3216TIP3    H231284   6.086   5.606   1.202  1.7111 -0.6378 -1.5380
 3217TIP3   OH231285   4.668   0.031   1.697  0.3160 -0.0993  0.2783
 3217TIP3    H131286   4.635   0.019   1.608  1.0705 -3.6006  0.4166
 3217TIP3    H231287   4.756  -0.006   1.696  0.4623  0.0901  2.4232
 3218TIP3   OH231288   4.354   6.677   8.266  0.4051  0.2551  0.0184
 3218TIP3    H131289   4.363   6.654   8.359  0.8197  1.1026  0.1939
 3218TIP3    H231290   4.441   6.661   8.229  0.6831  1.4547  0.1306
 3219TIP3   OH231291   6.563   0.903   6.795  0.4856 -0.2412  0.4792
 3219TIP3    H131292   6.617   0.901   6.716  1.9877 -0.9807  1.4829
 3219TIP3    H231293   6.530   0.814   6.804  0.4164 -0.1886  0.7412
 3220TIP3   OH231294   4.689   7.281   0.882 -0.3450 -0.3212  0.0442
 3220TIP3    H131295   4.616   7.234   0.921 -0.6589 -0.3041 -0.5197
 3220TIP3    H231296   4.705   7.236   0.799 -1.4378  1.2895 -1.0801
 3221TIP3   OH231297   3.338   0.606   0.519  0.1592  0.4231 -0.3066
 3221TIP3    H131298   3.307   0.625   0.430  0.1446  0.0632 -0.3780
 3221TIP3    H231299   3.422   0.651   0.525  0.8125 -0.7059 -0.9726
 3222TIP3   OH231300   3.131   0.930   0.684 -0.0688 -0.7253 -0.5334
 3222TIP3    H131301   3.195   0.999   0.698 -0.1621 -0.6876 -0.2763
 3222TIP3    H231302   3.177   0.850   0.709  0.3460 -0.8691 -1.7438
 3223TIP3   OH231303   3.242   1.880   0.780 -0.6455  0.1667 -0.4989
 3223TIP3    H131304   3.325   1.838   0.760 -0.1118  0.3450  1.2659
 3223TIP3    H231305   3.265   1.971   0.802 -1.4023  0.4617 -0.8991
 3224TIP3   OH231306   6.461   0.060   0.585 -0.1033 -0.2185 -0.1612
 3224TIP3    H131307   6.532   0.110   0.545 -0.1689 -0.1919 -0.2444
 3224TIP3    H231308   6.500  -0.026   0.603 -0.1782 -0.3486 -0.6183
 3225TIP3   OH231309   3.969   6.853   1.779  0.1428 -0.7177 -0.6473
 3225TIP3    H131310   3.974   6.773   1.831  0.4435 -0.5437 -0.3987
 3225TIP3    H231311   4.053   6.856   1.733 -0.3652 -1.1734 -1.5927
 3226TIP3   OH231312   2.526   3.387   6.106  0.2793 -0.0632 -0.5461
 3226TIP3    H131313   2.480   3.427   6.033  2.4123  2.8485 -0.4010
 3226TIP3    H231314   2.586   3.325   6.066 -1.1559 -1.1964 -0.9763
 3227TIP3   OH231315   5.077   6.489   7.341  0.3415  0.4132 -0.4550
 3227TIP3    H131316   5.158   6.450   7.374  0.3160  0.2868 -0.5425
 3227TIP3    H231317   5.078   6.470   7.247 -0.8858 -1.5332 -0.1005
 3228TIP3   OH231318   4.750   0.191   8.381  0.0283 -0.0551 -0.5838
 3228TIP3    H131319   4.781   0.269   8.333 -0.6166  0.7216  0.2510
 3228TIP3    H231320   4.761   0.214   8.473  0.7696 -1.3468 -0.3423
 3229TIP3   OH231321   4.213   4.961   1.328  0.2641  0.1625  0.1200
 3229TIP3    H131322   4.162   5.022   1.275 -2.9304 -3.9839 -1.8877
 3229TIP3    H231323   4.300   4.960   1.289 -0.6719  0.7998 -2.0015
 3230TIP3   OH231324   4.200   5.606   6.953  0.3337 -0.6625  0.1128
 3230TIP3    H131325   4.294   5.601   6.934  0.4173 -0.6043  0.5126
 3230TIP3    H231326   4.194   5.660   7.032 -0.1833  1.1361 -1.1176
 3231TIP3   OH231327   1.310   1.875   1.906 -0.5465 -0.2241  0.5488
 3231TIP3    H131328   1.319   1.857   1.999 -1.8558  0.0463  0.7362
 3231TIP3    H231329   1.398   1.903   1.878  0.0208 -1.0142  1.5328
 3232TIP3   OH231330   5.512   4.763   0.924  1.1540 -0.4588 -0.0429
 3232TIP3    H131331   5.557   4.847   0.933 -2.2327  1.7300 -2.2657
 3232TIP3    H231332   5.475   4.746   1.011  1.2650  0.7489  0.2460
 3233TIP3   OH231333   4.564   3.576   7.405 -0.6178  0.2783 -0.0120
 3233TIP3    H131334   4.640   3.520   7.389 -1.3328 -0.0351 -2.5124
 3233TIP3    H231335   4.543   3.562   7.497  1.7732 -0.3522  0.4681
 3234TIP3   OH231336   3.087   2.143   6.685  0.8241 -0.1157  0.3229
 3234TIP3    H131337   3.147   2.206   6.645  0.5118  0.0344  0.0922
 3234TIP3    H231338   3.077   2.172   6.775  0.2587  0.4778  0.0753
 3235TIP3   OH231339   5.188   4.017   8.219  0.2654 -0.3434  0.0311
 3235TIP3    H131340   5.173   3.930   8.182 -1.1728  0.4676 -1.3401
 3235TIP3    H231341   5.123   4.025   8.289 -0.7520  0.2755 -0.9712
 3236TIP3   OH231342   5.286   6.555   1.004  0.2090 -0.3546  0.3518
 3236TIP3    H131343   5.242   6.506   0.935  1.4627 -0.5457 -0.3313
 3236TIP3    H231344   5.216   6.585   1.061 -0.8090 -0.5765 -0.7632
 3237TIP3   OH231345   5.334   7.328   7.621  0.2175 -0.1515 -0.1569
 3237TIP3    H131346   5.341   7.416   7.657 -1.5706 -0.3885  0.8234
 3237TIP3    H231347   5.376   7.271   7.686 -1.1573 -0.3400  0.5778
 3238TIP3   OH231348   5.750   1.624   6.334 -0.0602 -0.4654 -0.3712
 3238TIP3    H131349   5.808   1.557   6.299 -0.1861 -0.4208 -0.6628
 3238TIP3    H231350   5.792   1.707   6.309  0.2709 -0.4330  0.2775
 3239TIP3   OH231351   1.528   7.138   1.138  0.2724  0.2297  0.5183
 3239TIP3    H131352   1.468   7.209   1.114  0.7876  0.8454  1.0499
 3239TIP3    H231353   1.484   7.094   1.211 -0.0697 -0.0361  0.1578
 3240TIP3   OH231354   5.282   2.004   1.773 -0.3012 -0.2693 -0.1799
 3240TIP3    H131355   5.323   1.920   1.794  0.1831  0.3275  1.3193
 3240TIP3    H231356   5.264   2.044   1.858  1.2045  1.9822 -0.8727
 3241TIP3   OH231357   5.670   0.137   6.758 -0.7489  0.0683  0.1149
 3241TIP3    H131358   5.743   0.100   6.807 -0.6844 -1.9827 -1.4711
 3241TIP3    H231359   5.594   0.123   6.814 -0.3254 -0.1465  0.6448
 3242TIP3   OH231360   4.498   0.062   6.730 -0.3443  0.6452  0.8051
 3242TIP3    H131361   4.463  -0.005   6.671  1.0238  1.4289 -0.9280
 3242TIP3    H231362   4.506   0.140   6.676  1.6756  1.1728  1.8289
 3243TIP3   OH231363   5.405   0.661   6.311  0.0901  0.3894  0.5682
 3243TIP3    H131364   5.317   0.697   6.323  0.2216  0.9218 -0.0356
 3243TIP3    H231365   5.463   0.737   6.317  0.3632  0.2867 -0.7638
 3244TIP3   OH231366   2.040   3.702   8.071  0.1611  0.0869  0.6360
 3244TIP3    H131367   2.132   3.722   8.089  0.2372 -0.1064  0.4710
 3244TIP3    H231368   2.043   3.649   7.991 -0.1415  0.5993  0.2838
 3245TIP3   OH231369   3.445   7.236   7.213  0.2843 -0.6196 -0.6086
 3245TIP3    H131370   3.498   7.273   7.142  1.0975  0.4656  0.5363
 3245TIP3    H231371   3.355   7.242   7.181  0.6217 -0.0034 -1.4916
 3246TIP3   OH231372   6.723   2.346   2.057 -0.1548  0.1599 -0.4697
 3246TIP3    H131373   6.727   2.299   2.141 -1.1349 -1.4141 -1.2769
 3246TIP3    H231374   6.683   2.430   2.079 -1.9197 -0.8664  0.4195
 3247TIP3   OH231375   3.035   2.195   7.774 -0.2377 -0.3710  0.1547
 3247TIP3    H131376   3.118   2.178   7.730  0.1156  0.6543  0.3913
 3247TIP3    H231377   3.049   2.278   7.820 -1.6660  0.2271 -0.4590
 3248TIP3   OH231378   7.099   6.744   1.435  0.1389  0.0128  0.2482
 3248TIP3    H131379   7.049   6.753   1.517 -0.3127  0.5144 -0.0829
 3248TIP3    H231380   7.098   6.650   1.418 -0.2161 -0.0397  0.5404
 3249TIP3   OH231381   6.616   0.187   1.084  0.1548 -0.1045 -0.8228
 3249TIP3    H131382   6.693   0.204   1.030  1.8830  0.2260  1.6318
 3249TIP3    H231383   6.631   0.239   1.163 -1.8052 -1.3167  0.3827
 3250TIP3   OH231384   2.807   0.975   1.334  0.7316 -0.2758  0.2813
 3250TIP3    H131385   2.735   1.010   1.387  0.9235  0.4902  0.0387
 3250TIP3    H231386   2.820   0.886   1.368  1.1107  0.3430  1.7816
 3251TIP3   OH231387   4.638   0.960   7.569 -0.0269  0.2263  0.4131
 3251TIP3    H131388   4.693   1.020   7.620  0.8547 -0.5416  0.3952
 3251TIP3    H231389   4.650   0.875   7.613  1.8077 -0.7373 -1.8559
 3252TIP3   OH231390   3.942   4.031   8.147 -0.0333  0.1651 -0.1346
 3252TIP3    H131391   4.020   4.002   8.193 -0.2754 -1.0619 -0.4711
 3252TIP3    H231392   3.960   4.014   8.054 -0.4052  0.5734 -0.2876
 3253TIP3   OH231393   6.768   4.656   6.176 -0.4916  0.0570 -0.2742
 3253TIP3    H131394   6.829   4.673   6.247  1.6644 -0.1897 -2.0036
 3253TIP3    H231395   6.804   4.579   6.131 -1.7759  0.2162 -1.6207
 3254TIP3   OH231396   6.150   3.228   7.781  0.4105 -0.1273  0.4284
 3254TIP3    H131397   6.078   3.185   7.828 -0.5728  1.0837  0.0566
 3254TIP3    H231398   6.155   3.316   7.820  0.9692  0.1634 -0.2980
 3255TIP3   OH231399   5.612   7.337   1.709 -0.2258 -0.2738  0.3190
 3255TIP3    H131400   5.657   7.266   1.754  0.1536 -0.5861 -0.5494
 3255TIP3    H231401   5.636   7.416   1.758 -0.6983 -0.7408  1.3231
 3256TIP3   OH231402   1.815   5.975   7.677  0.0741  0.2618 -0.0334
 3256TIP3    H131403   1.852   5.999   7.762 -1.1278  0.6496  0.3803
 3256TIP3    H231404   1.731   6.020   7.673 -2.0054 -3.3263  0.5116
 3257TIP3   OH231405   6.503   6.503   6.917 -0.4470 -0.0332 -0.1163
 3257TIP3    H131406   6.431   6.524   6.857  0.0586 -1.8163 -1.3939
 3257TIP3    H231407   6.582   6.509   6.864  0.3806  1.9772  1.3010
 3258TIP3   OH231408   5.772   6.310   1.814  0.0604 -0.6378  0.0501
 3258TIP3    H131409   5.862   6.323   1.783 -0.0532 -1.5741 -0.7240
 3258TIP3    H231410   5.777   6.319   1.909  0.7359  0.5824 -0.0900
 3259TIP3   OH231411   6.332   6.963   6.808 -0.0993 -0.3619  0.0488
 3259TIP3    H131412   6.378   6.945   6.890 -0.4533  0.1473  0.3598
 3259TIP3    H231413   6.294   7.050   6.820  0.2718 -0.0673 -0.8495
 3260TIP3   OH231414   5.912   6.533   8.426 -0.2870 -0.8822 -0.4066
 3260TIP3    H131415   5.977   6.466   8.406 -0.3615 -0.8652 -0.7149
 3260TIP3    H231416   5.945   6.611   8.381  0.0959 -0.5626  0.4266
 3261TIP3   OH231417   4.119   0.419   0.046  0.1125 -0.3131 -0.5085
 3261TIP3    H131418   4.197   0.408  -0.009 -0.0664  0.0720 -0.8422
 3261TIP3    H231419   4.060   0.472  -0.007  0.3931  1.0566  0.5390
 3262TIP3   OH231420   1.118   6.847   8.026  0.5911  0.5903 -0.0768
 3262TIP3    H131421   1.028   6.879   8.020  0.2580 -0.5063 -1.1642
 3262TIP3    H231422   1.161   6.884   7.949  0.1528 -1.6259 -1.4599
 3263TIP3   OH231423   0.211   0.612   1.671  0.3275  0.5862 -0.3872
 3263TIP3    H131424   0.296   0.613   1.628  0.0421 -2.6356 -1.2222
 3263TIP3    H231425   0.148   0.612   1.599 -0.2658 -0.2799  0.1209
 3264TIP3   OH231426   2.093   6.213   7.020 -0.3187  0.1701  0.2805
 3264TIP3    H131427   2.095   6.240   6.928  0.1362  2.6955  0.9758
 3264TIP3    H231428   2.017   6.156   7.026 -0.5189  0.1890 -1.6150
 3265TIP3   OH231429   1.419   0.394   2.103 -0.5752  0.5486 -0.0416
 3265TIP3    H131430   1.334   0.435   2.087 -1.1910 -0.3159  0.8821
 3265TIP3    H231431   1.400   0.325   2.167  0.4781 -0.9554 -1.3189
 3266TIP3   OH231432   4.597   6.775   0.076 -0.2007 -0.3755 -0.6593
 3266TIP3    H131433   4.556   6.769   0.163  2.2948  0.3744  0.6190
 3266TIP3    H231434   4.609   6.869   0.062 -1.1779 -0.4505 -2.1329
 3267TIP3   OH231435   2.116   1.948   1.678  0.0224 -0.7330 -0.4576
 3267TIP3    H131436   2.023   1.933   1.693 -0.1365 -0.9804 -1.6671
 3267TIP3    H231437   2.119   2.034   1.636  0.3821 -0.4868  0.0715
 3268TIP3   OH231438   1.749   0.209   0.338  0.1440 -0.1085 -0.0838
 3268TIP3    H131439   1.739   0.117   0.363  1.0327  0.4274  2.4275
 3268TIP3    H231440   1.677   0.254   0.382  1.0289  0.6949  0.5678
 3269TIP3   OH231441   5.698   1.044   7.412 -0.4062 -0.4770 -0.4743
 3269TIP3    H131442   5.766   1.083   7.467 -0.4779 -0.2757 -0.5268
 3269TIP3    H231443   5.670   1.116   7.355 -0.2102 -0.7299 -0.8887
 3270TIP3   OH231444   0.189   0.350   6.754 -1.0576 -0.3840 -0.3277
 3270TIP3    H131445   0.160   0.372   6.666 -2.1613  2.1977  0.6247
 3270TIP3    H231446   0.113   0.306   6.794 -1.4511  0.7318  0.1518
 3271TIP3   OH231447   5.939   5.218   0.514  0.1413 -0.4598 -0.8385
 3271TIP3    H131448   5.927   5.190   0.605 -1.2680  0.3518 -0.7554
 3271TIP3    H231449   6.022   5.267   0.514 -0.1371  0.0232  0.1306
 3272TIP3   OH231450   7.302   0.257   6.885  0.0074 -0.1779 -0.1618
 3272TIP3    H131451   7.267   0.339   6.919 -2.5473 -1.4012  0.2630
 3272TIP3    H231452   7.248   0.189   6.925  2.5152 -2.1474  0.0675
 3273TIP3   OH231453   5.657   7.202   1.449 -0.0097  0.8188 -0.4434
 3273TIP3    H131454   5.636   7.248   1.530  0.6512  2.9311 -1.4473
 3273TIP3    H231455   5.726   7.254   1.409  0.2220 -0.6471 -1.9787
 3274TIP3   OH231456   4.850   0.612   6.794 -0.0643 -0.1427  0.0002
 3274TIP3    H131457   4.909   0.577   6.727  0.4819  0.8055 -0.0212
 3274TIP3    H231458   4.903   0.616   6.873  0.5466  2.7076 -0.5190
 3275TIP3   OH231459   1.346   5.732   6.788 -0.1975  0.7612 -0.3002
 3275TIP3    H131460   1.256   5.700   6.788 -0.2735  0.8343 -3.1742
 3275TIP3    H231461   1.400   5.654   6.784 -0.1989  0.7780 -0.6707
 3276TIP3   OH231462   5.671   2.803   0.625  0.5044  0.0292 -0.3405
 3276TIP3    H131463   5.729   2.785   0.699  0.6846  0.3343 -0.4072
 3276TIP3    H231464   5.673   2.722   0.573  1.0685  0.1242 -0.4764
 3277TIP3   OH231465   7.282   0.027   0.783 -0.0777  0.6032 -0.2249
 3277TIP3    H131466   7.330  -0.056   0.793  1.4843  1.5477  0.2337
 3277TIP3    H231467   7.335   0.091   0.831 -1.4374  1.8089 -0.3202
 3278TIP3   OH231468   2.197   0.829   7.244  0.5604  0.0954 -0.1317
 3278TIP3    H131469   2.169   0.806   7.156 -0.7335 -0.3732  0.3858
 3278TIP3    H231470   2.133   0.786   7.301  2.1705 -0.7405  1.0832
 3279TIP3   OH231471   6.379   1.480   2.057 -1.1044 -0.0679 -0.1312
 3279TIP3    H131472   6.463   1.484   2.103 -1.6806  1.3232  0.8594
 3279TIP3    H231473   6.392   1.415   1.989  0.8312  0.2184 -0.0811
 3280TIP3   OH231474   6.204   0.986   6.025  0.3264 -0.0139 -0.1306
 3280TIP3    H131475   6.205   1.078   5.999  1.3803  0.4675  1.5502
 3280TIP3    H231476   6.128   0.949   5.980 -1.1787  2.1002  0.5843
 3281TIP3   OH231477   3.312   3.099   1.073 -0.6200 -0.1077 -0.3589
 3281TIP3    H131478   3.354   3.027   1.120  0.3388 -0.7805 -2.1980
 3281TIP3    H231479   3.376   3.171   1.080 -1.1532  0.2766  0.6537
 3282TIP3   OH231480   1.209   5.840   1.550  0.1008 -0.4911 -0.2610
 3282TIP3    H131481   1.245   5.870   1.633  0.5223  1.8080 -1.2433
 3282TIP3    H231482   1.141   5.777   1.575  0.1155  0.2884  1.8196
 3283TIP3   OH231483   5.703   1.763   0.260  0.0680 -0.4462 -0.4054
 3283TIP3    H131484   5.705   1.851   0.297  0.7510  0.2587 -2.0767
 3283TIP3    H231485   5.794   1.732   0.267 -0.2026 -1.0855  0.3305
 3284TIP3   OH231486   6.774   3.910   7.758 -0.0260  0.4996  0.8932
 3284TIP3    H131487   6.823   3.991   7.773  0.0586  0.2432  2.0307
 3284TIP3    H231488   6.796   3.885   7.668  0.6508  1.2612  0.8459
 3285TIP3   OH231489   2.391   3.398   1.793  0.1880 -0.1252  0.6533
 3285TIP3    H131490   2.354   3.393   1.881 -3.2656  0.9451 -0.6369
 3285TIP3    H231491   2.392   3.308   1.762 -0.2943 -0.3059  1.1564
 3286TIP3   OH231492   3.153   6.015   0.451 -0.3733  0.6804 -0.5586
 3286TIP3    H131493   3.207   6.055   0.382 -0.4020  2.4178  0.4045
 3286TIP3    H231494   3.209   6.015   0.528 -0.7313 -0.2488 -0.2957
 3287TIP3   OH231495   3.010   3.915   2.199  0.2273 -0.2694 -0.1886
 3287TIP3    H131496   2.967   3.934   2.283  0.0335 -1.3604 -0.0354
 3287TIP3    H231497   3.101   3.900   2.222  0.1010 -0.9551 -0.1102
 3288TIP3   OH231498   0.509   4.909   0.337 -0.4145 -0.2328  0.3090
 3288TIP3    H131499   0.501   5.002   0.360 -0.3837  0.2715 -1.6684
 3288TIP3    H231500   0.467   4.901   0.252  0.2198 -1.9024  0.1339
 3289TIP3   OH231501   5.283   2.696   0.768 -0.4682 -0.0050  0.3343
 3289TIP3    H131502   5.208   2.705   0.710 -0.7662 -0.2818  0.6670
 3289TIP3    H231503   5.258   2.745   0.847 -0.7433 -0.9710  0.8597
 3290TIP3   OH231504   7.325   7.226   8.183 -0.2918 -0.2972 -0.3890
 3290TIP3    H131505   7.278   7.167   8.242  0.0629  0.5230  0.7396
 3290TIP3    H231506   7.410   7.184   8.171 -0.7251 -0.9665 -1.1234
 3291TIP3   OH231507   4.682   3.714   8.036 -0.4968 -0.1885 -0.4846
 3291TIP3    H131508   4.656   3.783   8.097  0.7527 -2.5162  2.8295
 3291TIP3    H231509   4.606   3.701   7.980 -1.4991  2.3824  0.2024
 3292TIP3   OH231510   6.013   4.931   7.182 -0.1480  0.1648 -0.3166
 3292TIP3    H131511   6.072   4.975   7.120  1.1888  0.0360  0.8479
 3292TIP3    H231512   5.933   4.984   7.181  1.1000  2.0965  0.3608
 3293TIP3   OH231513   4.693   3.208   6.856  0.3089 -0.1511  0.1713
 3293TIP3    H131514   4.712   3.292   6.813  3.5381 -0.9946 -0.1822
 3293TIP3    H231515   4.698   3.144   6.785 -0.7164 -0.8202  0.6998
 3294TIP3   OH231516   0.492   5.203   6.570  0.1279  0.1011 -0.5993
 3294TIP3    H131517   0.526   5.208   6.480  0.1929  0.0160 -0.5813
 3294TIP3    H231518   0.445   5.285   6.584  0.2944  0.2025 -0.6405
 3295TIP3   OH231519   4.281   2.741   0.123  0.1527  0.2159  0.3985
 3295TIP3    H131520   4.241   2.712   0.041 -0.0008  1.3555  0.0632
 3295TIP3    H231521   4.360   2.788   0.097  0.9292 -0.7487  0.9875
 3296TIP3   OH231522   4.075   3.360   7.397 -0.1539  0.4544  0.5918
 3296TIP3    H131523   4.091   3.304   7.321 -0.1404  0.1856  0.7912
 3296TIP3    H231524   4.156   3.409   7.407 -0.5480  1.2977 -0.2355
 3297TIP3   OH231525   1.999   3.297   7.830 -0.8635  0.3543  0.9133
 3297TIP3    H131526   2.047   3.377   7.807 -1.8719  0.3728 -1.3007
 3297TIP3    H231527   1.936   3.286   7.759 -2.0544 -1.3633  2.1906
 3298TIP3   OH231528   2.600   3.047   6.682 -0.4492 -0.8366  0.5336
 3298TIP3    H131529   2.562   2.959   6.676 -0.4087 -0.8254  0.1378
 3298TIP3    H231530   2.627   3.068   6.593 -1.0739 -0.1506  0.5031
 3299TIP3   OH231531   7.289   4.518   1.894 -0.1290 -0.1531 -0.4023
 3299TIP3    H131532   7.349   4.560   1.956  0.3345 -2.3719  0.7018
 3299TIP3    H231533   7.213   4.577   1.890  1.2777  1.7059 -0.3390
 3300TIP3   OH231534   1.037   4.005   1.870 -0.8270  0.4615 -0.4180
 3300TIP3    H131535   0.959   3.969   1.911  1.0981 -2.3097  0.9974
 3300TIP3    H231536   1.078   4.058   1.938 -0.7185  0.7291 -0.6891
 3301TIP3   OH231537   3.833   4.811   8.014 -0.3120 -0.3122  0.2302
 3301TIP3    H131538   3.871   4.798   7.927 -1.6959  0.3101 -0.4801
 3301TIP3    H231539   3.909   4.822   8.071  0.6157  2.9030 -1.4705
 3302TIP3   OH231540   7.090   4.724   8.164 -0.5210 -0.7329  0.0252
 3302TIP3    H131541   6.998   4.740   8.181 -0.2227  0.2648  0.7488
 3302TIP3    H231542   7.110   4.775   8.086 -0.3782 -0.2443  0.3773
 3303TIP3   OH231543   2.314   3.558   1.147  0.3346 -0.7796 -0.5781
 3303TIP3    H131544   2.281   3.469   1.140 -0.4076 -0.4444 -1.4276
 3303TIP3    H231545   2.236   3.612   1.161  0.6646 -0.1543 -1.1020
 3304TIP3   OH231546   6.746   4.620   1.717 -0.2903  0.0917 -0.1216
 3304TIP3    H131547   6.754   4.708   1.680 -1.1626  0.1037 -0.2944
 3304TIP3    H231548   6.688   4.631   1.792 -1.4947 -0.5677 -0.9445
 3305TIP3   OH231549   5.768   0.236   1.357  0.0908  0.2545  0.5779
 3305TIP3    H131550   5.789   0.295   1.285 -0.1513 -0.9375 -0.4897
 3305TIP3    H231551   5.678   0.208   1.339  0.0717 -0.1305  1.2704
 3306TIP3   OH231552   3.179   3.444   7.582  0.0422  0.1187  0.2004
 3306TIP3    H131553   3.175   3.373   7.517 -0.4614 -0.8555  1.2853
 3306TIP3    H231554   3.106   3.502   7.559 -0.2801 -0.3486  0.0380
 3307TIP3   OH231555   5.251   2.528   7.413 -0.3027 -0.1268 -0.1541
 3307TIP3    H131556   5.234   2.607   7.362  0.8969 -0.9591 -1.8581
 3307TIP3    H231557   5.346   2.527   7.426 -0.4436 -0.6237  0.9691
 3308TIP3   OH231558   7.232   2.363   7.102 -0.2959  0.1290  0.1037
 3308TIP3    H131559   7.285   2.288   7.130  0.1357  0.7917  1.0929
 3308TIP3    H231560   7.181   2.386   7.180 -1.6357 -0.1576 -0.6801
 3309TIP3   OH231561   4.474   1.695   8.122  0.2115 -0.3402  0.4881
 3309TIP3    H131562   4.440   1.779   8.092 -0.5651 -0.2458  1.6297
 3309TIP3    H231563   4.422   1.630   8.076  1.1445 -0.2264 -0.7837
 3310TIP3   OH231564   3.385   2.895   1.558 -0.0336  0.8014 -0.7500
 3310TIP3    H131565   3.394   2.808   1.598 -1.6181  1.1455  0.4496
 3310TIP3    H231566   3.440   2.952   1.612  0.2555  0.7077 -0.9479
 3311TIP3   OH231567   1.951   5.417   1.065  0.4738 -0.4615 -0.4298
 3311TIP3    H131568   2.005   5.355   1.016  0.2321 -0.3065 -0.8975
 3311TIP3    H231569   1.993   5.423   1.150  1.4540  0.0081 -0.9415
 3312TIP3   OH231570   2.713   6.785   1.122  0.0461  0.0240 -0.2074
 3312TIP3    H131571   2.683   6.833   1.045  0.4872  0.5294 -0.0743
 3312TIP3    H231572   2.681   6.836   1.197  0.3784  0.0321 -0.0646
 3313TIP3   OH231573   4.106   5.223   0.096  0.1158  0.1415 -0.3001
 3313TIP3    H131574   4.121   5.316   0.078  1.9696  0.1140  0.9619
 3313TIP3    H231575   4.038   5.221   0.162 -0.6585  0.5517 -1.0757
 3314TIP3   OH231576   2.233   3.240   6.101 -0.3665  0.7126  0.3985
 3314TIP3    H131577   2.279   3.272   6.024  1.0337 -1.0169  0.4958
 3314TIP3    H231578   2.148   3.284   6.098 -0.6942 -0.0259 -2.6361
 3315TIP3   OH231579   0.321   6.516   1.547 -0.2205 -0.2628 -0.1096
 3315TIP3    H131580   0.331   6.535   1.641  1.1531  0.2044 -0.3365
 3315TIP3    H231581   0.291   6.599   1.509  0.6423 -0.0287 -0.2960
 3316TIP3   OH231582   1.371   2.660   6.722 -0.0227 -0.2465 -0.0725
 3316TIP3    H131583   1.302   2.647   6.787  0.2167  1.7312  0.6241
 3316TIP3    H231584   1.325   2.678   6.641 -0.3412  1.1233  0.4025
 3317TIP3   OH231585   0.160   3.986   6.710 -0.0396  0.2986  0.7681
 3317TIP3    H131586   0.225   3.915   6.712 -1.1589 -0.7557  0.6276
 3317TIP3    H231587   0.196   4.049   6.648  0.4458 -0.6966  0.0083
 3318TIP3   OH231588   1.595   1.508   6.726  0.0564 -0.3031 -0.5997
 3318TIP3    H131589   1.555   1.566   6.791  0.1487 -0.6388 -0.2350
 3318TIP3    H231590   1.645   1.566   6.669 -0.7172  0.0891 -0.8861
 3319TIP3   OH231591   2.157   2.232   1.660 -0.0516  0.4151 -0.1218
 3319TIP3    H131592   2.095   2.278   1.716 -0.3523  1.1606 -1.0529
 3319TIP3    H231593   2.223   2.198   1.721 -1.8135 -1.1556  0.9766
 3320TIP3   OH231594   4.475   3.422   0.641 -0.5746 -0.4255  0.0192
 3320TIP3    H131595   4.436   3.339   0.667  1.3595 -1.0694  0.9904
 3320TIP3    H231596   4.429   3.446   0.561 -1.3725 -2.2979 -0.1129
 3321TIP3   OH231597   2.480   6.014   7.175 -0.0532 -0.1459 -0.4789
 3321TIP3    H131598   2.490   6.106   7.151  1.8207 -0.0232  0.7101
 3321TIP3    H231599   2.538   5.967   7.115 -0.2125 -0.4581 -0.3929
 3322TIP3   OH231600   6.844   4.933   1.645 -0.1109  0.1387 -0.3188
 3322TIP3    H131601   6.822   4.959   1.556  1.2684  0.8592 -0.4705
 3322TIP3    H231602   6.919   4.874   1.635 -0.6464 -0.6511  0.2940
 3323TIP3   OH231603   1.617   3.400   7.579  0.9537  0.5551 -0.4804
 3323TIP3    H131604   1.583   3.455   7.509  1.0739  1.0437 -0.1600
 3323TIP3    H231605   1.554   3.410   7.650  0.5001 -0.4366 -0.7480
 3324TIP3   OH231606   5.962   3.809   7.382 -0.4002 -0.5384  0.3666
 3324TIP3    H131607   5.893   3.864   7.346  0.5911  0.2240 -0.4285
 3324TIP3    H231608   5.973   3.739   7.317  1.3026  0.7672 -0.8100
 3325TIP3   OH231609   6.616   5.065   7.737 -0.3595 -0.3787  0.6726
 3325TIP3    H131610   6.607   5.160   7.736 -1.7325 -0.3880  4.5886
 3325TIP3    H231611   6.709   5.049   7.751 -0.1392  0.3810  0.0697
 3326TIP3   OH231612   7.076   7.125   0.539 -1.0478 -0.4573 -0.3564
 3326TIP3    H131613   7.013   7.168   0.597  0.9927  0.0320  1.5387
 3326TIP3    H231614   7.088   7.038   0.576 -0.8620 -0.6770 -0.9186
 3327TIP3   OH231615   3.453   7.088   0.896  0.3327  0.0926  0.6544
 3327TIP3    H131616   3.386   7.064   0.960  0.0501 -0.1118  0.2839
 3327TIP3    H231617   3.406   7.137   0.828  0.7291  0.8084  0.8864
 3328TIP3   OH231618   6.361   5.723   7.735  0.0555  0.1001 -0.0443
 3328TIP3    H131619   6.281   5.712   7.787 -0.6996  0.8600 -1.0254
 3328TIP3    H231620   6.422   5.767   7.795 -0.5864  0.3808  0.4164
 3329TIP3   OH231621   5.171   1.562   8.441 -0.1351  0.0490  0.2328
 3329TIP3    H131622   5.101   1.577   8.376  0.4370  2.3160  0.0854
 3329TIP3    H231623   5.251   1.587   8.395  0.7856 -2.5075  0.4253
 3330TIP3   OH231624   3.930   6.171   2.030 -0.4045  0.1628 -0.5103
 3330TIP3    H131625   3.867   6.160   2.101 -1.7034  3.8755 -0.9927
 3330TIP3    H231626   3.986   6.243   2.059  1.6995 -1.0647 -1.4474
 3331TIP3   OH231627   0.689   7.115   1.456  0.1206 -0.0571 -0.1600
 3331TIP3    H131628   0.619   7.067   1.500 -0.1568 -0.4901 -1.0680
 3331TIP3    H231629   0.758   7.122   1.522 -0.0229 -1.2717  0.1355
 3332TIP3   OH231630   2.831   3.678   7.297 -0.2564  0.4541  0.1286
 3332TIP3    H131631   2.816   3.675   7.202  0.3862  1.4215 -0.0125
 3332TIP3    H231632   2.785   3.757   7.325 -3.0516 -1.4387  1.1198
 3333TIP3   OH231633   5.895   3.472   6.854 -0.1120 -0.2539 -0.1585
 3333TIP3    H131634   5.880   3.463   6.948 -0.5311  1.5297 -0.0345
 3333TIP3    H231635   5.814   3.508   6.820  0.8036  1.2122 -0.8425
 3334TIP3   OH231636   4.928   2.610   1.002  0.2565  0.0440 -0.5921
 3334TIP3    H131637   4.922   2.702   1.027 -0.4866 -0.5112  1.3047
 3334TIP3    H231638   4.878   2.604   0.920 -1.4798  0.9205  0.3761
 3335TIP3   OH231639   4.708   0.565   7.372 -0.4110 -0.0051 -0.2326
 3335TIP3    H131640   4.629   0.553   7.319  0.9152 -1.0854 -1.9797
 3335TIP3    H231641   4.734   0.656   7.356 -0.8506  0.1147 -0.2666
 3336TIP3   OH231642   0.152   1.516   6.604  0.6623  0.2688  0.1336
 3336TIP3    H131643   0.080   1.538   6.544  2.5006  0.9287 -1.9225
 3336TIP3    H231644   0.135   1.568   6.682 -1.3541  0.0508 -0.1459
 3337TIP3   OH231645   0.593   5.834   1.189 -0.9738  0.5991  0.0724
 3337TIP3    H131646   0.512   5.863   1.230 -1.0044  1.9860 -0.9367
 3337TIP3    H231647   0.654   5.906   1.204  0.0064 -0.3369  0.6204
 3338TIP3   OH231648   3.232   3.582   8.300 -0.0467 -0.3366 -0.1070
 3338TIP3    H131649   3.234   3.677   8.286  2.1007 -0.2784  0.4106
 3338TIP3    H231650   3.139   3.560   8.306 -0.5319  1.8853  0.7886
 3339TIP3   OH231651   3.907   5.145   0.577  0.0036 -0.6313 -0.0256
 3339TIP3    H131652   3.969   5.075   0.598  0.8112  0.1036  0.0918
 3339TIP3    H231653   3.847   5.148   0.651  1.0591 -0.0053  0.8125
 3340TIP3   OH231654   5.443   3.950   7.693  0.5608 -0.4456 -0.2847
 3340TIP3    H131655   5.517   3.959   7.754  0.3493 -2.3134  0.2820
 3340TIP3    H231656   5.367   3.982   7.742  0.7296  0.0067 -0.3157
 3341TIP3   OH231657   1.516   1.327   2.269 -0.5869  0.1482 -0.3398
 3341TIP3    H131658   1.487   1.254   2.323  0.5412 -0.1611 -0.1346
 3341TIP3    H231659   1.611   1.331   2.284 -0.3620  0.4721 -1.7752
 3342TIP3   OH231660   3.874   3.472   0.232  0.4140  0.3683  0.1060
 3342TIP3    H131661   3.828   3.478   0.148 -1.8431 -0.6950  1.2150
 3342TIP3    H231662   3.898   3.379   0.239  0.7853  0.4956  0.5288
 3343TIP3   OH231663   3.624   3.972   6.300  0.0629 -0.4650 -0.6354
 3343TIP3    H131664   3.623   3.972   6.396 -2.3455 -1.4824 -0.6425
 3343TIP3    H231665   3.629   4.065   6.277  0.2368 -0.1900  0.4623
 3344TIP3   OH231666   4.448   5.279   0.081  0.3445  0.4329  0.3381
 3344TIP3    H131667   4.493   5.201   0.048 -1.5491 -0.3000 -0.5587
 3344TIP3    H231668   4.467   5.346   0.016 -0.6562 -0.1300 -0.5335
 3345TIP3   OH231669   3.905   3.129   2.409 -0.0956  0.1020 -0.0988
 3345TIP3    H131670   3.951   3.087   2.482  0.0185  0.1205 -0.1599
 3345TIP3    H231671   3.900   3.221   2.433  0.4274  0.2010 -0.3651
 3346TIP3   OH231672   2.158   5.400   7.649 -0.8069 -0.2744  0.0988
 3346TIP3    H131673   2.109   5.346   7.586  1.5709 -0.7091 -1.4641
 3346TIP3    H231674   2.148   5.354   7.732 -3.1403 -0.2808 -0.1456
 3347TIP3   OH231675   4.927   4.375   0.451 -0.0576  0.1327  0.2516
 3347TIP3    H131676   4.873   4.443   0.494  1.6505  1.1892  0.7711
 3347TIP3    H231677   4.872   4.297   0.453 -1.4070  1.0665  1.1892
 3348TIP3   OH231678   5.584   5.368   7.274 -0.1288  0.5248 -0.1131
 3348TIP3    H131679   5.601   5.373   7.180  0.4453  0.5630 -0.0092
 3348TIP3    H231680   5.490   5.380   7.282 -0.2784 -0.1834 -0.7422
 3349TIP3   OH231681   2.580   2.065   7.202 -0.2024 -0.3006 -0.2017
 3349TIP3    H131682   2.527   2.087   7.126 -1.4317 -0.9492  0.4532
 3349TIP3    H231683   2.619   2.148   7.229 -0.9008  0.1894 -0.6708
 3350TIP3   OH231684   1.865   3.115   1.753 -0.0225 -0.7700 -0.2981
 3350TIP3    H131685   1.882   3.091   1.844 -1.4929  0.7446  0.4193
 3350TIP3    H231686   1.951   3.136   1.717  0.7306 -2.7553  0.3207
 3351TIP3   OH231687   5.693   1.177   8.251  0.5746  0.6736  0.1770
 3351TIP3    H131688   5.776   1.223   8.263 -0.1286  1.9947  0.0742
 3351TIP3    H231689   5.705   1.126   8.171  1.8948 -0.5346  1.1278
 3352TIP3   OH231690   3.305   2.889   0.869 -0.0823 -0.4839  0.3588
 3352TIP3    H131691   3.373   2.946   0.904 -1.5442  0.9404  0.9411
 3352TIP3    H231692   3.329   2.801   0.899  0.5283  0.2550  2.0766
 3353TIP3   OH231693   5.197   3.336   1.146  0.5600  0.0421 -0.3331
 3353TIP3    H131694   5.131   3.357   1.212  1.7609  2.3786  0.1933
 3353TIP3    H231695   5.270   3.395   1.165  2.2868 -1.5690 -1.7017
 3354TIP3   OH231696   3.088   5.864   7.522 -0.3046  0.0966 -0.7934
 3354TIP3    H131697   3.056   5.833   7.607 -0.2428 -0.7381 -1.0670
 3354TIP3    H231698   3.020   5.924   7.491 -0.9606 -0.6126 -0.7437
 3355TIP3   OH231699   5.392   6.286   0.885 -0.1199  0.1894 -0.6757
 3355TIP3    H131700   5.470   6.313   0.837  1.2692 -3.8654 -0.8840
 3355TIP3    H231701   5.319   6.305   0.825  0.8877  1.8379 -1.4232
 3356TIP3   OH231702   1.391   4.587   6.716 -0.9552 -0.2419 -0.0118
 3356TIP3    H131703   1.439   4.665   6.740 -2.3532  1.6913 -3.1352
 3356TIP3    H231704   1.455   4.516   6.720  0.5995  1.2314  1.7757
 3357TIP3   OH231705   3.211   2.968   6.949  0.1661 -0.2635 -0.2194
 3357TIP3    H131706   3.213   2.925   7.034  1.5295  0.4525  0.1214
 3357TIP3    H231707   3.303   2.986   6.929 -0.4241  4.0799  0.4724
 3358TIP3   OH231708   3.305   0.309   7.229  0.5251 -0.3180  0.3613
 3358TIP3    H131709   3.318   0.350   7.314 -2.8272  0.9552  0.3234
 3358TIP3    H231710   3.245   0.236   7.247 -0.4577  0.1558 -0.9364
 3359TIP3   OH231711   4.685   2.500   0.495 -0.3022 -0.2795  0.4353
 3359TIP3    H131712   4.716   2.562   0.561  0.9338 -0.6400  0.2094
 3359TIP3    H231713   4.715   2.535   0.412 -2.7900  0.7447 -0.0898
 3360TIP3   OH231714   3.326   2.512   7.623  0.2552  0.0063  0.2511
 3360TIP3    H131715   3.418   2.489   7.610  0.0477  0.0831 -1.4754
 3360TIP3    H231716   3.299   2.551   7.540 -1.0321  1.0372  1.1283
 3361TIP3   OH231717   3.174   6.315   1.661  0.0701  0.1974 -0.2981
 3361TIP3    H131718   3.138   6.403   1.667 -0.7166 -0.1289 -0.0074
 3361TIP3    H231719   3.233   6.308   1.736 -1.0529 -0.0347  0.5864
 3362TIP3   OH231720   6.110   3.971   7.553 -0.2581  0.0938 -0.5203
 3362TIP3    H131721   6.065   3.926   7.482 -0.8671 -0.4721  0.2171
 3362TIP3    H231722   6.130   4.057   7.517 -1.0980  0.0241 -1.1860
 3363TIP3   OH231723   4.596   5.003   7.238 -0.4833 -0.1702 -0.3102
 3363TIP3    H131724   4.622   4.948   7.312  0.3315  2.2952  1.3009
 3363TIP3    H231725   4.679   5.032   7.199 -0.8977 -1.4864 -2.2782
 3364TIP3   OH231726   0.826   4.713   7.269 -0.2121  0.1115  0.0982
 3364TIP3    H131727   0.772   4.635   7.252 -1.6619  1.1193 -0.0468
 3364TIP3    H231728   0.763   4.779   7.299  1.1534  0.8999  1.2931
 3365TIP3   OH231729   5.108   3.384   7.250  0.0753  0.3729  0.2717
 3365TIP3    H131730   5.025   3.339   7.232  0.0054  0.5056  0.2622
 3365TIP3    H231731   5.113   3.388   7.345  0.8219 -1.0267  0.2939
 3366TIP3   OH231732   5.611   5.652   7.111  0.1361 -0.2434  0.0326
 3366TIP3    H131733   5.687   5.666   7.056 -0.0180 -0.5558 -0.2599
 3366TIP3    H231734   5.559   5.733   7.102 -1.0475 -1.2176 -2.1160
 3367TIP3   OH231735   4.528   0.837   7.020  0.5184 -0.1504  0.2857
 3367TIP3    H131736   4.555   0.837   7.112  1.9620 -0.6414 -0.1268
 3367TIP3    H231737   4.474   0.916   7.011 -3.1001 -2.2798  2.5105
 3368TIP3   OH231738   5.455   3.840   8.073 -0.1019  0.3940 -0.5169
 3368TIP3    H131739   5.528   3.872   8.021 -0.6740  0.7562 -1.1056
 3368TIP3    H231740   5.377   3.871   8.027 -0.7253 -3.1658 -1.9999
 3369TIP3   OH231741   4.131   4.958   7.905  0.4469 -0.6537 -0.2747
 3369TIP3    H131742   4.186   4.924   7.976  2.5758  2.4054 -0.3251
 3369TIP3    H231743   4.150   4.901   7.831  1.6849 -1.1581  0.4050
 3370TIP3   OH231744   4.982   3.976   1.276 -1.0069  0.1438  0.2372
 3370TIP3    H131745   4.906   3.942   1.230  0.6361 -2.6558 -0.4961
 3370TIP3    H231746   5.002   3.910   1.342 -0.3241  1.7467  1.6905
 3371TIP3   OH231747   5.097   1.532   6.787 -0.3579 -0.0137  0.0301
 3371TIP3    H131748   5.124   1.446   6.820  1.6190  0.4818 -0.2505
 3371TIP3    H231749   5.158   1.550   6.715 -3.0725 -0.0131 -2.3905
 3372TIP3   OH231750   3.572   2.329   7.583 -0.5478 -0.0893 -0.1651
 3372TIP3    H131751   3.626   2.307   7.506 -1.5919  0.8235 -1.1742
 3372TIP3    H231752   3.626   2.303   7.658  1.8865  2.0841 -1.0960
 3373TIP3   OH231753   4.405   1.125   7.481  0.0910 -0.3081  0.1860
 3373TIP3    H131754   4.312   1.111   7.462 -0.1167  0.6692  0.4373
 3373TIP3    H231755   4.434   1.042   7.520 -0.7624 -0.5022  0.4283
 3374TIP3   OH231756   4.260   3.123   8.453  0.4205  0.0586  0.2162
 3374TIP3    H131757   4.238   3.173   8.531 -0.4002 -0.3452  0.2516
 3374TIP3    H231758   4.176   3.110   8.408  1.0514  1.4597 -1.4466
 3375TIP3   OH231759   5.927   2.054   0.953 -0.8285  0.3397  0.7966
 3375TIP3    H131760   5.853   2.088   1.004  0.2168  2.1760  1.1362
 3375TIP3    H231761   5.901   1.965   0.930 -4.1963  1.7519 -1.2098
 3376TIP3   OH231762   6.304   4.073   0.004  0.0865 -0.4638 -0.4297
 3376TIP3    H131763   6.276   4.145   0.060 -0.7318 -0.6739 -0.5627
 3376TIP3    H231764   6.326   4.114  -0.079 -0.3753 -0.3654 -0.5047
 3377TIP3   OH231765   4.434   2.387   7.487  0.7681  0.3917  0.3013
 3377TIP3    H131766   4.357   2.395   7.545  2.5048 -0.3092  2.7811
 3377TIP3    H231767   4.433   2.468   7.436 -2.0087  0.0930 -0.2146
 3378TIP3   OH231768   7.083   3.640   1.289  0.3498 -0.1491  0.3269
 3378TIP3    H131769   7.118   3.650   1.201  0.5838 -1.2112  0.2904
 3378TIP3    H231770   7.160   3.630   1.345  0.2145  0.9627  0.7081
 3379TIP3   OH231771   5.336   1.314   7.595 -0.2366 -0.2080  0.1815
 3379TIP3    H131772   5.262   1.325   7.654  0.5912 -1.8682  1.5738
 3379TIP3    H231773   5.298   1.281   7.514 -1.1738  0.2210  0.4474
 3380TIP3   OH231774   5.409   5.962   0.785 -0.6143  0.0888  0.0893
 3380TIP3    H131775   5.354   6.037   0.764 -0.9530  0.2706  1.5917
 3380TIP3    H231776   5.348   5.889   0.794 -0.3725 -0.1909 -0.5029
 3381TIP3   OH231777   5.129   3.793   6.472 -0.3864  0.6271 -0.1293
 3381TIP3    H131778   5.197   3.734   6.438  0.5300  1.4109  0.3278
 3381TIP3    H231779   5.050   3.739   6.474  0.0293 -0.0583 -1.4462
 3382TIP3   OH231780   4.723   2.617   7.717  0.1490 -0.3361  0.1041
 3382TIP3    H131781   4.813   2.647   7.732 -1.1950  4.3865 -0.5682
 3382TIP3    H231782   4.712   2.623   7.622 -1.5667  1.4878  0.3822
 3383TIP3   OH231783   1.323   6.933   8.420  0.2375  0.1403  0.1994
 3383TIP3    H131784   1.295   6.884   8.497  0.0568 -0.5882 -0.3210
 3383TIP3    H231785   1.368   6.869   8.365 -0.4081  0.4482 -0.7067
 3384TIP3   OH231786   5.041   5.623   1.644 -0.6772 -0.0595  0.0524
 3384TIP3    H131787   5.046   5.553   1.578  0.2134 -3.1361  3.2314
 3384TIP3    H231788   5.120   5.675   1.629 -0.4686 -0.7299 -1.3120
 3385TIP3   OH231789   6.644   2.152   1.170  1.1650  0.0304 -0.6197
 3385TIP3    H131790   6.698   2.086   1.214  1.6113 -0.1121 -1.3802
 3385TIP3    H231791   6.593   2.103   1.106  0.4183  0.2192 -0.1672
 3386TIP3   OH231792   2.396   4.139   0.835 -0.1547  0.1545  0.4129
 3386TIP3    H131793   2.455   4.212   0.854 -0.5989  0.4218  0.8071
 3386TIP3    H231794   2.424   4.107   0.750  0.7837  0.0486  0.7543
 3387TIP3   OH231795   5.359   3.917   6.575  0.2463 -0.2794  0.0038
 3387TIP3    H131796   5.431   3.855   6.587  0.4852 -0.1495 -0.7547
 3387TIP3    H231797   5.285   3.862   6.548  0.5740 -0.1784 -1.0890
 3388TIP3   OH231798   5.918   3.196   1.403  0.3042  0.0161 -0.4566
 3388TIP3    H131799   5.871   3.270   1.440 -0.6365 -0.1632 -1.2625
 3388TIP3    H231800   5.875   3.119   1.440  0.1745 -0.1425 -0.9298
 3389TIP3   OH231801   4.911   6.399   7.082  0.4584 -0.5774 -0.2631
 3389TIP3    H131802   4.946   6.312   7.065 -0.1560 -0.4846 -2.0530
 3389TIP3    H231803   4.960   6.457   7.024 -0.0179  0.0847 -0.0177
 3390TIP3   OH231804   2.729   1.474   1.513 -0.2973  0.1028  0.5336
 3390TIP3    H131805   2.767   1.553   1.551  1.5938 -0.0680 -0.9095
 3390TIP3    H231806   2.717   1.496   1.420  0.0896 -1.2521  0.1552
 3391TIP3   OH231807   2.310   1.369   1.669  0.1310  0.5565  0.0868
 3391TIP3    H131808   2.292   1.419   1.589 -0.6103 -1.3598 -0.9676
 3391TIP3    H231809   2.228   1.325   1.689  1.1446 -1.3269  0.2106
 3392TIP3   OH231810   2.373   0.823   1.402 -0.1804 -0.6547 -0.5492
 3392TIP3    H131811   2.331   0.803   1.318 -2.4978  1.5323  0.0252
 3392TIP3    H231812   2.309   0.796   1.468 -0.4355  2.0345  0.3708
 3393TIP3   OH231813   5.194   3.545   7.808 -0.4873  0.4111 -0.5324
 3393TIP3    H131814   5.173   3.543   7.715 -0.3154  1.4854 -0.6103
 3393TIP3    H231815   5.281   3.507   7.815 -0.7908 -0.3222 -0.7189
 3394TIP3   OH231816   3.935   3.481   6.278  0.1759 -0.0470 -0.2287
 3394TIP3    H131817   3.938   3.411   6.213 -2.3536  0.5983 -1.0816
 3394TIP3    H231818   3.848   3.473   6.318 -0.2026  2.6649 -0.4272
 3395TIP3   OH231819   3.955   3.510   0.849 -0.0716  0.1927  0.1129
 3395TIP3    H131820   3.895   3.579   0.822 -0.0816  0.0552 -0.2237
 3395TIP3    H231821   3.966   3.456   0.770 -0.7227 -0.6721  0.6084
 3396TIP3   OH231822   6.249   1.740   6.997  0.7607  0.0166  0.4316
 3396TIP3    H131823   6.301   1.665   7.026 -0.0075 -0.3400  0.9265
 3396TIP3    H231824   6.158   1.712   7.012  0.3814  0.1556 -1.5427
 3397TIP3   OH231825   6.821   3.787   7.517  0.2382  0.4796  0.1449
 3397TIP3    H131826   6.827   3.859   7.454 -1.3209 -1.1157 -1.9275
 3397TIP3    H231827   6.898   3.733   7.499 -0.8834 -0.6753 -1.3727
 3398TIP3   OH231828   2.599   1.568   6.986 -0.9512  0.5732  0.0621
 3398TIP3    H131829   2.588   1.571   7.081  0.5055  0.3841  0.2511
 3398TIP3    H231830   2.567   1.481   6.961 -2.0026  0.8962  0.2827
 3399TIP3   OH231831   0.526   4.130   1.077  0.2991  0.0990 -0.3260
 3399TIP3    H131832   0.474   4.205   1.106  0.0270 -0.7391  1.3748
 3399TIP3    H231833   0.606   4.168   1.042 -0.8166  1.3199 -1.6474
 3400TIP3   OH231834   6.086   0.622   7.288  0.0889 -0.4710 -0.0287
 3400TIP3    H131835   5.994   0.629   7.264 -0.4503  0.7075  2.2986
 3400TIP3    H231836   6.125   0.705   7.258  0.1688 -0.5268 -0.0797
 3401TIP3   OH231837   2.985   2.062   8.085 -0.0892 -0.2034 -0.1833
 3401TIP3    H131838   3.027   2.131   8.034  0.0424 -0.7087 -0.7706
 3401TIP3    H231839   2.926   2.019   8.023  0.9718 -1.6008 -0.2635
 3402TIP3   OH231840   1.027   4.223   8.424 -0.7709 -0.2038 -0.7037
 3402TIP3    H131841   1.111   4.259   8.454 -0.6152 -0.8825 -0.3134
 3402TIP3    H231842   1.004   4.158   8.491 -1.3968 -0.3205 -1.0343
 3403TIP3   OH231843   5.282   1.149   1.012 -0.5149  0.0937  0.0607
 3403TIP3    H131844   5.370   1.120   0.990 -0.7795 -0.1371 -0.7057
 3403TIP3    H231845   5.268   1.228   0.959 -1.0134 -0.2435 -0.3109
 3404TIP3   OH231846   4.449   2.424   7.998 -0.1926 -0.1157 -0.5249
 3404TIP3    H131847   4.513   2.406   7.929 -0.9809 -2.6808 -0.6429
 3404TIP3    H231848   4.459   2.351   8.060 -2.2222  0.0178  0.0045
 3405TIP3   OH231849   2.281   3.143   7.701  0.2421 -0.5422 -0.8140
 3405TIP3    H131850   2.231   3.129   7.781 -0.9146  0.8781 -1.2707
 3405TIP3    H231851   2.367   3.103   7.719 -0.8639 -2.5775  0.1424
 3406TIP3   OH231852   4.962   4.268   7.146 -0.1544  0.2812  0.3031
 3406TIP3    H131853   5.034   4.326   7.171 -0.3028  0.7580 -0.3654
 3406TIP3    H231854   4.999   4.215   7.075  0.7818 -2.1554  2.5199
 3407TIP3   OH231855   5.209   0.209   7.967 -0.0008  0.8347 -0.1311
 3407TIP3    H131856   5.218   0.288   7.913 -0.6394  0.2027 -1.1745
 3407TIP3    H231857   5.299   0.179   7.981  0.2598  1.8512  0.4432
 3408TIP3   OH231858   5.182   4.822   8.456 -0.2171  0.4370 -0.3343
 3408TIP3    H131859   5.173   4.727   8.457  2.3015  0.1678 -0.1441
 3408TIP3    H231860   5.244   4.841   8.527 -0.4433  2.2097 -0.5766
 3409TIP3   OH231861   1.296   3.240   1.709  0.0539  0.0972 -0.2791
 3409TIP3    H131862   1.256   3.153   1.710 -2.2365  1.1094 -0.3012
 3409TIP3    H231863   1.283   3.272   1.620  1.1281  0.3786 -0.3462
 3410TIP3   OH231864   7.261   1.909   1.557  0.2355  0.1633  0.2002
 3410TIP3    H131865   7.200   1.889   1.486  0.6299  0.1948 -0.1498
 3410TIP3    H231866   7.221   1.983   1.603 -0.2258 -0.1295  0.2635
 3411TIP3   OH231867   6.585   3.287   0.869  0.0776  0.3080  0.1266
 3411TIP3    H131868   6.600   3.347   0.796 -1.2520 -0.5446 -0.8788
 3411TIP3    H231869   6.669   3.281   0.913  1.5276 -0.8970 -2.6660
 3412TIP3   OH231870   4.821   0.016   6.531  0.0958  0.5270  0.2571
 3412TIP3    H131871   4.794   0.033   6.441  0.9030 -1.2758 -0.3405
 3412TIP3    H231872   4.798  -0.075   6.547 -0.3831  0.9312  2.0101
 3413TIP3   OH231873   6.223   0.149   1.776 -0.0301  0.5365  0.0827
 3413TIP3    H131874   6.222   0.222   1.838 -1.8109 -2.7634  4.0902
 3413TIP3    H231875   6.131   0.126   1.764  0.5522 -1.4147 -0.7270
 3414TIP3   OH231876   4.211   5.864   8.282 -0.2203  0.2654 -0.0881
 3414TIP3    H131877   4.177   5.847   8.194 -0.6141 -1.4935  0.3817
 3414TIP3    H231878   4.141   5.836   8.341  1.1517 -1.3028  0.8344
 3415TIP3   OH231879   5.839   2.743   7.960  0.0662 -0.0390 -0.4740
 3415TIP3    H131880   5.818   2.679   7.891 -1.3902  0.9373 -0.9511
 3415TIP3    H231881   5.784   2.819   7.940  0.9475  0.9368  0.7468
 3416TIP3   OH231882   5.977   1.469   6.253  0.7019  0.1206 -0.0064
 3416TIP3    H131883   6.047   1.527   6.284  0.5445  0.1736  0.2563
 3416TIP3    H231884   6.017   1.416   6.185  0.6769  0.9772 -0.6839
 3417TIP3   OH231885   4.991   1.775   0.083 -0.4384  0.0428  0.1046
 3417TIP3    H131886   5.057   1.831   0.124  0.4279  0.9007 -2.3955
 3417TIP3    H231887   5.036   1.733   0.011 -1.8843 -1.6257  0.1368
 3418TIP3   OH231888   5.418   4.416   0.264  0.2202  0.3861 -0.7101
 3418TIP3    H131889   5.471   4.337   0.262 -1.8632 -1.0218 -2.3425
 3418TIP3    H231890   5.363   4.407   0.342  2.1229  1.7141  0.8265
 3419TIP3   OH231891   4.345   1.519   7.961 -0.4667  0.2237  0.5772
 3419TIP3    H131892   4.409   1.506   7.891 -2.7763 -1.5594 -1.3208
 3419TIP3    H231893   4.280   1.579   7.923 -1.2126  0.0569  1.5621
 3420TIP3   OH231894   4.504   2.323   0.587  0.0382 -0.2933 -0.3835
 3420TIP3    H131895   4.583   2.377   0.587 -0.4650  0.4746  0.2733
 3420TIP3    H231896   4.483   2.311   0.495  0.3403  0.3803 -0.5445
 3421TIP3   OH231897   5.987   2.139   6.906  0.5682 -0.7141 -0.0458
 3421TIP3    H131898   6.081   2.132   6.917  0.3640  0.3729  2.7042
 3421TIP3    H231899   5.952   2.061   6.950  0.2210 -2.1115 -2.6646
 3422TIP3   OH231900   5.471   0.346   8.472  0.3734  0.3717  0.7324
 3422TIP3    H131901   5.418   0.277   8.432  1.6404 -0.0501 -0.2298
 3422TIP3    H231902   5.435   0.427   8.436 -0.6293  0.1912  1.2909
 3423TIP3   OH231903   3.556   4.983   6.994  0.6287  0.0185  0.5397
 3423TIP3    H131904   3.586   4.941   7.075  1.7216  1.7221  1.0637
 3423TIP3    H231905   3.611   4.944   6.925  2.2915  1.2251  1.1478
 3424TIP3   OH231906   5.409   4.011   1.815  0.0271  0.1926 -0.5131
 3424TIP3    H131907   5.368   4.001   1.729  0.0060 -0.3983 -0.4362
 3424TIP3    H231908   5.337   4.008   1.877  0.2607 -1.9321 -0.2999
 3425TIP3   OH231909   4.858   0.098   6.225  0.5844 -0.4841 -0.5567
 3425TIP3    H131910   4.940   0.135   6.193  0.2425  0.7467 -0.0507
 3425TIP3    H231911   4.847   0.016   6.176  1.0958  0.3425 -2.0648
 3426TIP3   OH231912   5.594   0.635   8.118 -0.2674  0.9961 -0.2809
 3426TIP3    H131913   5.499   0.650   8.113 -0.5075 -0.3413  0.0138
 3426TIP3    H231914   5.619   0.669   8.204 -0.1518  3.0151 -1.0936
 3427TIP3   OH231915   5.425   1.671   7.719  0.3723 -0.3139  0.1949
 3427TIP3    H131916   5.335   1.704   7.718  1.2308  2.1845  0.5913
 3427TIP3    H231917   5.426   1.606   7.789 -1.1508 -0.4588  0.1016
 3428TIP3   OH231918   5.444   1.277   1.360 -0.2840 -0.1906 -0.2944
 3428TIP3    H131919   5.537   1.292   1.344 -0.5306  2.1532  0.3575
 3428TIP3    H231920   5.400   1.352   1.322 -1.7780 -0.4901  0.7872
 3429TIP3   OH231921   6.411   5.735   0.442  0.2633  0.5660  0.1687
 3429TIP3    H131922   6.495   5.688   0.441 -0.2412 -0.3525 -0.3624
 3429TIP3    H231923   6.357   5.687   0.380 -1.4255 -0.2806  2.2440
 3430TIP3   OH231924   5.804   1.659   7.669  0.0358  0.0532 -0.5555
 3430TIP3    H131925   5.851   1.734   7.631 -0.9592  0.6330 -0.6525
 3430TIP3    H231926   5.716   1.692   7.686  0.3018 -0.3419  1.7790
 3431TIP3   OH231927   0.074   4.509   7.376 -0.0505  0.2257 -0.0139
 3431TIP3    H131928   0.091   4.555   7.293  0.8084 -0.2197 -0.0904
 3431TIP3    H231929  -0.017   4.531   7.397 -0.2147  0.5095 -0.9726
 3432TIP3   OH231930   4.740   3.645   1.005  0.4891 -0.6597 -0.0327
 3432TIP3    H131931   4.665   3.589   0.987  0.3909 -0.8061  0.8362
 3432TIP3    H231932   4.808   3.586   1.036 -0.0600 -0.1484  2.2325
 3433TIP3   OH231933   6.212   3.109   5.557 -0.1899  1.1294 -0.0451
 3433TIP3    H131934   6.269   3.140   5.627 -0.4598  2.3029 -0.3359
 3433TIP3    H231935   6.215   3.013   5.564  2.3519  1.1368 -0.4920
 3434TIP3   OH231936   4.786   2.777   8.479 -0.0402  0.3239  0.2417
 3434TIP3    H131937   4.811   2.782   8.387  1.5236  1.6365  0.7092
 3434TIP3    H231938   4.843   2.709   8.516  1.1671  1.5999  0.7755
 3435TIP3   OH231939   5.766   2.821   1.251  0.1202 -0.0122 -0.7170
 3435TIP3    H131940   5.758   2.758   1.179 -0.5868 -0.6106 -0.1220
 3435TIP3    H231941   5.733   2.774   1.327 -2.4622  1.8030 -0.6590
 3436TIP3   OH231942   4.733   1.386   7.829  0.5503  0.4844 -0.2831
 3436TIP3    H131943   4.677   1.459   7.855 -0.9015  0.1299 -2.2316
 3436TIP3    H231944   4.672   1.312   7.818  1.6254 -0.3370 -0.8786
 3437TIP3   OH231945   4.425   3.841   0.361  0.1527  0.1943 -0.3070
 3437TIP3    H131946   4.373   3.899   0.418  0.2603  0.5256 -0.5428
 3437TIP3    H231947   4.505   3.825   0.411 -0.0987 -0.1650 -0.0231
 3438TIP3   OH231948   3.282   3.651   0.340  0.5176  0.5213 -0.3100
 3438TIP3    H131949   3.223   3.700   0.397  0.6576  1.2589 -0.7886
 3438TIP3    H231950   3.225   3.611   0.275  0.7637  3.6837 -2.5888
 3439TIP3   OH231951   5.080   1.809   0.424  0.0909  0.0003  0.4279
 3439TIP3    H131952   5.005   1.868   0.431 -0.6595 -1.0713  1.7478
 3439TIP3    H231953   5.152   1.864   0.394 -0.7357  1.4617  1.0934
 3440TIP3   OH231954   0.114   7.326   7.402  0.0914  0.1733  0.2832
 3440TIP3    H131955   0.074   7.243   7.427 -0.5659  0.5870  0.6243
 3440TIP3    H231956   0.047   7.392   7.423  0.5025  0.7579 -0.2303
 3441TIP3   OH231957   4.932   2.345   2.326 -0.2113  0.5283  0.1797
 3441TIP3    H131958   4.981   2.409   2.377 -0.9621 -0.0241  1.6359
 3441TIP3    H231959   4.882   2.397   2.263  0.7761  1.2149 -0.0391
 3442TIP3   OH231960   4.819   0.997   1.017  0.3574  0.3997  0.0615
 3442TIP3    H131961   4.881   0.933   1.053 -1.0946 -1.6908 -1.0906
 3442TIP3    H231962   4.755   1.009   1.088 -0.0058 -0.3157 -0.1366
 3443TIP3   OH231963   4.051   4.325   8.198 -0.1760  0.0659 -0.2533
 3443TIP3    H131964   4.120   4.264   8.171  1.0856  1.1728  0.3827
 3443TIP3    H231965   4.064   4.336   8.293 -1.9649 -0.6058  0.0917
 3444TIP3   OH231966   1.082   6.202   0.720 -0.5964  0.2721 -0.0053
 3444TIP3    H131967   1.155   6.235   0.772 -0.7715  0.6381  0.0141
 3444TIP3    H231968   1.062   6.116   0.756  1.3152 -0.8223 -1.4875
 3445TIP3   OH231969   0.578   5.988   7.220 -0.7224 -0.4752 -0.0302
 3445TIP3    H131970   0.558   6.006   7.128  1.8327  1.2231 -0.3214
 3445TIP3    H231971   0.534   6.057   7.269 -0.1820 -0.0075 -0.1962
 3446TIP3   OH231972   2.131   4.224   1.839 -0.5155 -0.1849  0.1837
 3446TIP3    H131973   2.114   4.230   1.933 -0.6082  0.7045  0.1049
 3446TIP3    H231974   2.091   4.302   1.802  0.4892  0.0269 -0.4559
 3447TIP3   OH231975   1.094   6.454   2.143  0.1334  0.3234  0.6426
 3447TIP3    H131976   1.072   6.482   2.232  1.3244  1.9182  0.4517
 3447TIP3    H231977   1.138   6.529   2.104 -1.1816 -0.0424 -1.6181
 3448TIP3   OH231978   1.689   6.629   0.987 -0.4049  0.0618  0.0219
 3448TIP3    H131979   1.731   6.702   1.033  1.4501 -1.4059  0.7261
 3448TIP3    H231980   1.607   6.666   0.954 -0.1959  2.0635  1.6111
 3449TIP3   OH231981   0.489   5.092   8.153 -0.5199  0.0438 -0.0425
 3449TIP3    H131982   0.476   5.030   8.225  0.1172  1.2273  1.1053
 3449TIP3    H231983   0.581   5.120   8.162 -0.5852  0.5786 -1.0043
 3450TIP3   OH231984   3.368   6.589   1.030 -0.6807  0.7514 -0.0749
 3450TIP3    H131985   3.441   6.643   1.058 -0.1450  0.2804 -0.5597
 3450TIP3    H231986   3.398   6.546   0.950 -0.3148 -1.8183  1.3618
 3451TIP3   OH231987   6.565   0.522   1.948 -0.9466 -0.6848 -0.6222
 3451TIP3    H131988   6.470   0.532   1.936 -0.6724  0.8978 -1.5249
 3451TIP3    H231989   6.599   0.504   1.861 -0.2431  0.1980 -0.5397
 3452TIP3   OH231990   3.515   7.194   1.594  0.0227 -0.4546  0.1017
 3452TIP3    H131991   3.588   7.136   1.572  0.7465  0.6655 -0.4879
 3452TIP3    H231992   3.521   7.266   1.531 -2.1946 -0.8482 -0.5915
 3453TIP3   OH231993   1.252   4.558   8.402 -0.2331 -0.2764  0.1995
 3453TIP3    H131994   1.185   4.595   8.459 -0.1981 -0.2384  0.2165
 3453TIP3    H231995   1.295   4.492   8.456 -0.5937 -0.6566  0.0233
 3454TIP3   OH231996   2.742   5.264   6.899  0.1987  0.1091  0.2126
 3454TIP3    H131997   2.654   5.274   6.863  0.1014 -0.2657  0.3487
 3454TIP3    H231998   2.799   5.252   6.823  0.2224  0.9792  0.0842
 3455TIP3   OH231999   7.268   5.219   7.903 -0.4038  0.4660 -0.4247
 3455TIP3    H132000   7.256   5.312   7.922 -0.2774  0.4339 -0.1895
 3455TIP3    H232001   7.198   5.199   7.841 -1.0311  0.4859  0.2689
 3456TIP3   OH232002   4.317   4.403   6.164  0.1557 -0.4850  0.0678
 3456TIP3    H132003   4.391   4.367   6.115  0.9913  1.9840 -0.5326
 3456TIP3    H232004   4.319   4.497   6.146 -1.3608  0.0442  2.3998
 3457TIP3   OH232005   6.136   6.295   6.887 -0.4223  0.9553 -0.7127
 3457TIP3    H132006   6.216   6.270   6.839  0.0851  0.9601  0.1123
 3457TIP3    H232007   6.091   6.355   6.828 -0.7234 -0.4455 -1.9564
 3458TIP3   OH232008   4.302   6.371   0.726 -0.0909  0.1716  0.1458
 3458TIP3    H132009   4.286   6.362   0.632  0.4051  0.0784  0.0680
 3458TIP3    H232010   4.290   6.464   0.743 -1.2748  0.0133  0.1984
 3459TIP3   OH232011   2.850   4.074   6.383  0.1764 -0.4160 -0.2009
 3459TIP3    H132012   2.761   4.085   6.415  0.3559  1.9907 -0.3912
 3459TIP3    H232013   2.841   4.024   6.302 -1.1371  0.7364 -0.7979
 3460TIP3   OH232014   2.223   6.133   1.528 -0.2332 -0.2592 -0.4532
 3460TIP3    H132015   2.160   6.206   1.526 -2.0378 -1.7370  0.8557
 3460TIP3    H232016   2.252   6.130   1.619 -1.1609 -1.9850 -0.2054
 3461TIP3   OH232017   0.815   3.809   1.718  0.0144 -0.2577 -0.6956
 3461TIP3    H132018   0.869   3.751   1.664 -0.2987 -0.9376 -0.2907
 3461TIP3    H232019   0.849   3.896   1.701  1.3190 -0.6877 -0.3598
 3462TIP3   OH232020   6.497   1.329   2.297  0.3554  0.2185 -0.0196
 3462TIP3    H132021   6.463   1.377   2.372  1.1555 -1.1827  1.2640
 3462TIP3    H232022   6.584   1.300   2.325  0.9558  0.2941 -1.7502
 3463TIP3   OH232023   0.881   7.243   6.429  0.8230 -0.2697  0.1786
 3463TIP3    H132024   0.887   7.330   6.468 -0.5758 -0.9968  2.0492
 3463TIP3    H232025   0.813   7.251   6.362  1.4139  0.3035 -0.3739
 3464TIP3   OH232026   4.255   1.316   0.877  0.3709  0.4496  0.2020
 3464TIP3    H132027   4.227   1.297   0.787  0.5461  1.0003  0.0243
 3464TIP3    H232028   4.346   1.287   0.881 -0.0350 -0.7652  0.5907
 3465TIP3   OH232029   0.805   4.899   1.742 -0.1603  0.3084 -0.4049
 3465TIP3    H132030   0.728   4.864   1.786 -1.0016  0.6761 -1.5740
 3465TIP3    H232031   0.810   4.990   1.772  0.1501  0.1358  0.0897
 3466TIP3   OH232032   2.443   3.992   0.609  0.2497 -0.3982  0.4238
 3466TIP3    H132033   2.433   3.912   0.660  0.4603  0.0031  1.1020
 3466TIP3    H232034   2.424   3.966   0.519  0.8605 -1.3250  0.5592
 3467TIP3   OH232035   2.326   3.869   0.371 -0.1828  0.0850  0.2132
 3467TIP3    H132036   2.344   3.836   0.283  1.1669  1.0239  0.1367
 3467TIP3    H232037   2.264   3.805   0.408 -0.4680 -0.5134 -1.2704
 3468TIP3   OH232038   3.318   6.106   0.663  0.1570  0.0823 -0.6435
 3468TIP3    H132039   3.229   6.107   0.698 -0.5641  0.0026 -2.4261
 3468TIP3    H232040   3.369   6.060   0.729 -1.2555 -0.5041  0.0668
 3469TIP3   OH232041   2.046   6.140   0.116  0.5698 -0.1920 -0.2655
 3469TIP3    H132042   2.123   6.195   0.113 -0.3631  1.1777  0.5064
 3469TIP3    H232043   2.002   6.156   0.032 -0.1892  0.9621  0.3483
 3470TIP3   OH232044   7.036   3.595   7.535 -0.0479 -0.1046  0.4541
 3470TIP3    H132045   7.120   3.556   7.559 -0.3195 -1.1500 -0.2673
 3470TIP3    H232046   6.981   3.586   7.613  1.1067  2.3664  1.6243
 3471TIP3   OH232047   1.201   5.283   1.617 -0.4198  0.3143  0.1611
 3471TIP3    H132048   1.159   5.205   1.581  0.5544 -1.2145  2.2265
 3471TIP3    H232049   1.163   5.292   1.704 -1.0466  2.6059 -0.3153
 3472TIP3   OH232050   6.527   4.806   0.698  0.4663  1.0563 -0.2267
 3472TIP3    H132051   6.541   4.722   0.652  0.9586  0.6656  0.6251
 3472TIP3    H232052   6.455   4.847   0.651  2.2624  1.5636 -2.6407
 3473TIP3   OH232053   1.286   7.229   0.490 -0.4647  0.3134 -0.3581
 3473TIP3    H132054   1.268   7.316   0.525 -0.6297 -0.4853  1.6009
 3473TIP3    H232055   1.212   7.210   0.432 -0.0108  1.7985 -1.4502
 3474TIP3   OH232056   0.866   6.438   6.296 -0.2644 -0.8461  0.0514
 3474TIP3    H132057   0.947   6.487   6.305 -1.1095  0.7604 -0.8913
 3474TIP3    H232058   0.818   6.455   6.377 -0.1577 -0.8933  0.1257
 3475TIP3   OH232059   2.411   6.317   8.010  0.0155  0.1296 -0.0243
 3475TIP3    H132060   2.419   6.407   8.041 -1.2121  0.4745 -0.6581
 3475TIP3    H232061   2.418   6.324   7.914  2.0596 -0.7133  0.0274
 3476TIP3   OH232062   1.667   7.191   0.737  0.3596  0.1204 -0.5370
 3476TIP3    H132063   1.609   7.127   0.695 -1.1127  0.8562  0.3244
 3476TIP3    H232064   1.731   7.138   0.784  0.7993 -0.7026 -2.0283
 3477TIP3   OH232065   2.777   5.996   1.125  0.1857 -0.3491  0.4794
 3477TIP3    H132066   2.829   5.962   1.198  1.7857  0.6066 -0.1748
 3477TIP3    H232067   2.820   5.962   1.047  0.4915  1.3210 -0.1111
 3478TIP3   OH232068   2.648   4.825   0.540 -0.0912  0.2228 -0.1986
 3478TIP3    H132069   2.683   4.909   0.569 -1.4539  0.6100  0.3504
 3478TIP3    H232070   2.612   4.843   0.453 -1.6053  0.5424  0.4813
 3479TIP3   OH232071   0.440   4.595   6.796  0.1624  0.2315 -0.1738
 3479TIP3    H132072   0.498   4.519   6.801  0.6247  0.5553 -0.5165
 3479TIP3    H232073   0.360   4.563   6.755 -0.0785 -0.3242  0.7204
 3480TIP3   OH232074   1.911   3.917   7.492  0.0372 -0.0675  0.5597
 3480TIP3    H132075   1.868   3.993   7.530 -0.3884  0.0203 -0.0904
 3480TIP3    H232076   1.842   3.851   7.483 -0.3012  0.5626 -1.8085
 3481TIP3   OH232077   7.179   3.073   1.743  0.0317  0.0305 -0.2965
 3481TIP3    H132078   7.258   3.079   1.798  0.7921 -0.2385 -1.3425
 3481TIP3    H232079   7.207   3.022   1.667 -1.0595  0.2529 -0.8498
 3482TIP3   OH232080   1.163   1.585   1.610 -0.4948  0.4100 -0.2648
 3482TIP3    H132081   1.146   1.678   1.623  2.0338  0.7031  1.1781
 3482TIP3    H232082   1.124   1.565   1.524 -1.8294  2.5587 -0.1860
 3483TIP3   OH232083   4.693   7.092   1.417  0.2313 -0.7231 -0.2986
 3483TIP3    H132084   4.761   7.040   1.462  1.0066  0.2867 -0.2925
 3483TIP3    H232085   4.611   7.059   1.453  0.8237 -0.2509  1.5571
 3484TIP3   OH232086   0.249   6.328   0.692  0.2420  0.7328 -0.1948
 3484TIP3    H132087   0.199   6.306   0.771  4.8946  0.6928  2.9126
 3484TIP3    H232088   0.235   6.422   0.680 -0.2924  0.8018  0.8714
 3485TIP3   OH232089   3.783   3.483   8.460 -0.0549 -0.3461  0.2431
 3485TIP3    H132090   3.711   3.541   8.438  2.1927  2.4192 -0.0248
 3485TIP3    H232091   3.813   3.449   8.376 -0.2650 -0.5768  0.2597
 3486TIP3   OH232092   2.343   2.643   1.489  0.2314  0.1107  0.0325
 3486TIP3    H132093   2.263   2.695   1.492  1.8891  2.6656  2.3201
 3486TIP3    H232094   2.361   2.634   1.396 -2.0802  0.4879 -0.4957
 3487TIP3   OH232095   4.224   3.006   1.342 -0.4018 -0.4123 -0.1043
 3487TIP3    H132096   4.239   3.047   1.257 -0.1769  0.4512  0.3413
 3487TIP3    H232097   4.132   2.979   1.340 -0.9669  1.4000  0.1172
 3488TIP3   OH232098   0.168   4.522   1.282 -0.1327 -0.6626 -0.1021
 3488TIP3    H132099   0.074   4.536   1.283 -0.1156 -0.0491 -2.7497
 3488TIP3    H232100   0.203   4.591   1.338 -1.1251  0.3102 -0.6712
 3489TIP3   OH232101   3.744   6.503   0.865 -0.5395 -0.7355  0.9031
 3489TIP3    H132102   3.809   6.569   0.839  0.6735 -2.3682 -0.3138
 3489TIP3    H232103   3.673   6.514   0.803 -1.5474  1.1696  2.3379
 3490TIP3   OH232104   4.864   3.853   6.643 -0.0759  0.1875  0.5411
 3490TIP3    H132105   4.789   3.837   6.700 -0.7337 -1.3539 -0.6996
 3490TIP3    H232106   4.934   3.798   6.679 -0.8372 -1.7015 -0.7709
 3491TIP3   OH232107   0.706   3.068   6.897  0.4611 -0.7207  0.1792
 3491TIP3    H132108   0.704   3.080   6.803 -1.4313 -0.8221  0.1871
 3491TIP3    H232109   0.717   2.974   6.910 -2.6632 -1.1722  0.0002
 3492TIP3   OH232110   0.218   7.192   8.410  0.5524  0.2922 -0.3198
 3492TIP3    H132111   0.294   7.183   8.353  2.2911  1.9620  1.6514
 3492TIP3    H232112   0.206   7.287   8.418  0.3762  0.0967  2.0678
 3493TIP3   OH232113   2.674   5.876   7.026  0.1569 -0.0389 -0.3443
 3493TIP3    H132114   2.754   5.911   7.065  0.3705  0.7608 -1.4651
 3493TIP3    H232115   2.704   5.812   6.962  0.0604  2.1338 -2.6448
 3494TIP3   OH232116   5.076   0.388   7.055  0.4809  0.7666  0.2698
 3494TIP3    H132117   4.997   0.355   7.013 -0.3735  1.8898  0.9720
 3494TIP3    H232118   5.087   0.335   7.133 -0.2856  1.4425  0.8342
 3495TIP3   OH232119   1.628   5.162   7.919  0.0887 -0.4617  0.1346
 3495TIP3    H132120   1.611   5.069   7.936 -0.8424 -0.3395 -0.0784
 3495TIP3    H232121   1.550   5.192   7.873  0.8635  0.1742 -0.7630
 3496TIP3   OH232122   2.483   5.142   7.413 -0.0562 -0.0122 -0.0968
 3496TIP3    H132123   2.450   5.145   7.502  0.3066  0.0564  0.0363
 3496TIP3    H232124   2.499   5.049   7.396 -0.8816 -0.1038 -0.3698
 3497TIP3   OH232125   4.797   3.152   7.338  0.2004 -0.0989  0.0899
 3497TIP3    H132126   4.805   3.193   7.252  0.0758 -0.1362  0.0611
 3497TIP3    H232127   4.787   3.059   7.320  1.8612 -0.3240  0.2051
 3498TIP3   OH232128   3.237   2.726   7.749  0.1600  0.4581  0.2445
 3498TIP3    H132129   3.252   2.708   7.842  1.9979  0.5191 -0.0144
 3498TIP3    H232130   3.262   2.646   7.704 -1.0824  0.3002 -0.1847
 3499TIP3   OH232131   2.271   5.472   0.817  0.4492  0.9760  0.0123
 3499TIP3    H132132   2.244   5.557   0.782  0.3924  0.5916 -0.8913
 3499TIP3    H232133   2.217   5.408   0.769  1.3275  0.3574 -0.1698
 3500TIP3   OH232134   4.203   0.476   0.975  0.3188 -0.0711 -0.0832
 3500TIP3    H132135   4.297   0.471   0.957  0.6059 -1.2019  1.5893
 3500TIP3    H232136   4.194   0.551   1.034  0.0864  0.3758 -0.6797
 3501TIP3   OH232137   1.750   5.668   7.386  0.2492 -0.4050 -0.3416
 3501TIP3    H132138   1.831   5.627   7.417  0.9249  0.3208 -1.1498
 3501TIP3    H232139   1.754   5.661   7.291 -0.5225 -0.1414 -0.3961
 3502TIP3   OH232140   2.537   4.542   0.312 -0.2642  0.2243  0.3730
 3502TIP3    H132141   2.510   4.557   0.222 -2.1272  2.2474  1.2267
 3502TIP3    H232142   2.463   4.498   0.353  0.2390  0.0653  1.1253
 3503TIP3   OH232143   2.651   3.895   2.161  0.4976  0.2627  0.1701
 3503TIP3    H132144   2.696   3.836   2.222  0.7974  0.5865  0.2607
 3503TIP3    H232145   2.616   3.836   2.093  1.6806  0.0761 -0.2952
 3504TIP3   OH232146   3.672   5.664   1.229  0.4634  0.0552 -0.4869
 3504TIP3    H132147   3.695   5.757   1.232  1.9562 -0.2999 -0.6338
 3504TIP3    H232148   3.683   5.640   1.137 -1.4164  0.0896 -0.7375
 3505TIP3   OH232149   4.127   6.671   1.069  0.5245  0.3733 -0.0702
 3505TIP3    H132150   4.177   6.697   1.147 -0.8155  0.8039  0.6628
 3505TIP3    H232151   4.189   6.620   1.017  1.5046  0.2566  1.1752
 3506TIP3   OH232152   0.993   3.930   7.803 -0.2476  0.2086 -0.1588
 3506TIP3    H132153   1.009   3.998   7.868  2.5443  1.2854 -1.8774
 3506TIP3    H232154   0.915   3.960   7.756 -0.9804  0.5265  1.2452
 3507TIP3   OH232155   0.434   5.647   1.030  0.2770 -0.3135  0.0243
 3507TIP3    H132156   0.517   5.668   1.074  0.0895  0.2015  0.1320
 3507TIP3    H232157   0.398   5.732   1.006  0.0526 -0.5646 -0.5303
 3508TIP3   OH232158   4.586   1.938   8.255 -0.2393 -0.4171  0.3846
 3508TIP3    H132159   4.607   1.867   8.317  1.1191 -0.4807 -0.1466
 3508TIP3    H232160   4.493   1.956   8.271 -0.4079 -1.8003  1.0602
 3509TIP3   OH232161   3.159   5.367   7.729  0.2072  0.0801  0.1133
 3509TIP3    H132162   3.075   5.327   7.751 -2.2171  3.1443 -3.0409
 3509TIP3    H232163   3.175   5.430   7.800 -0.0675 -0.5875  0.7755
 3510TIP3   OH232164   5.202   5.936   7.509 -0.3688  0.2113 -1.1107
 3510TIP3    H132165   5.208   5.934   7.414 -1.0633  1.2923 -1.1846
 3510TIP3    H232166   5.140   5.866   7.531 -0.5658  0.2679 -1.4831
 3511TIP3   OH232167   1.865   6.617   7.792 -0.0076  0.1341  0.1130
 3511TIP3    H132168   1.784   6.615   7.842 -0.4828 -0.8642 -0.6701
 3511TIP3    H232169   1.870   6.706   7.758 -1.1793 -0.0045 -0.4578
 3512TIP3   OH232170   1.427   5.948   7.276 -0.4155 -0.1993  0.1141
 3512TIP3    H132171   1.373   5.882   7.231 -0.1324  0.1052 -0.6948
 3512TIP3    H232172   1.410   5.935   7.369  0.1624 -1.8590 -0.0095
 3513TIP3   OH232173   4.644   5.648   0.492 -0.3517  0.8574  0.0277
 3513TIP3    H132174   4.579   5.592   0.449  0.2218 -0.5819  0.9859
 3513TIP3    H232175   4.622   5.640   0.586  0.9224  0.7341  0.3142
 3514TIP3   OH232176   4.235   5.332   7.290 -0.0306 -0.1583 -0.4149
 3514TIP3    H132177   4.260   5.241   7.277  0.1412  0.1350 -2.2321
 3514TIP3    H232178   4.173   5.350   7.219  0.1789  1.2261 -0.2597
 3515TIP3   OH232179   1.762   4.867   0.172  0.5414  0.0163 -0.1431
 3515TIP3    H132180   1.822   4.905   0.108 -0.9053  0.5765 -1.2048
 3515TIP3    H232181   1.677   4.867   0.128 -0.9039  2.2278  2.4454
 3516TIP3   OH232182   3.383   4.967   2.031  0.7904 -0.1577  0.0379
 3516TIP3    H132183   3.413   4.886   2.072 -1.7823 -0.8783  0.5962
 3516TIP3    H232184   3.428   5.036   2.079  2.5128 -1.2042 -0.0146
 3517TIP3   OH232185   0.166   5.554   1.757  0.0437 -0.3266  0.3124
 3517TIP3    H132186   0.184   5.518   1.843  1.9611  0.5630  0.3233
 3517TIP3    H232187   0.214   5.637   1.755 -1.9316  0.8340 -0.7351
 3518TIP3   OH232188   3.174   5.009   0.396 -0.0753 -0.1431 -0.0236
 3518TIP3    H132189   3.092   5.025   0.349 -1.2308 -5.0088  0.1175
 3518TIP3    H232190   3.212   4.933   0.352  2.8526  0.1871  1.8475
 3519TIP3   OH232191   6.253   3.275   7.267  0.0811  0.2800  0.0171
 3519TIP3    H132192   6.216   3.237   7.347 -0.4838  0.9801  0.0882
 3519TIP3    H232193   6.346   3.283   7.286 -0.0673  0.5747  0.6651
 3520TIP3   OH232194   4.421   4.515   0.284  0.6958 -0.0559  0.3573
 3520TIP3    H132195   4.497   4.484   0.234 -0.8251 -0.8061 -1.5342
 3520TIP3    H232196   4.393   4.594   0.238 -0.3990 -0.4651  0.3251
 3521TIP3   OH232197   3.828   3.538   8.192  0.6987 -0.1471 -0.0541
 3521TIP3    H132198   3.922   3.519   8.185  0.6824  0.0727 -0.8845
 3521TIP3    H232199   3.824   3.634   8.191  0.6215 -0.0906  2.0561
 3522TIP3   OH232200   1.781   4.607   0.544  0.9809  0.3527  0.1020
 3522TIP3    H132201   1.734   4.649   0.616  0.8567  0.4877 -0.0577
 3522TIP3    H232202   1.714   4.594   0.477  1.1178  0.3096 -0.0257
 3523TIP3   OH232203   6.307   4.481   6.477 -0.1891 -0.0591 -0.5368
 3523TIP3    H132204   6.373   4.434   6.425  0.0247 -1.4021  0.8902
 3523TIP3    H232205   6.288   4.422   6.550 -0.6124  1.6822  0.8146
 3524TIP3   OH232206   3.287   4.467   0.764  0.7907  0.3003  0.0107
 3524TIP3    H132207   3.247   4.380   0.767  0.6746  0.4007  3.2786
 3524TIP3    H232208   3.376   4.452   0.731 -0.1085 -0.6538 -2.0652
 3525TIP3   OH232209   2.407   5.354   8.168 -0.1445 -0.0852 -0.4691
 3525TIP3    H132210   2.467   5.325   8.099  0.9841  0.9425  0.0651
 3525TIP3    H232211   2.343   5.408   8.121  0.6422  0.6460 -0.7117
 3526TIP3   OH232212   2.691   5.723   7.360 -0.6262  0.3298  0.0647
 3526TIP3    H132213   2.683   5.644   7.307 -0.3077 -1.3135  2.4214
 3526TIP3    H232214   2.730   5.694   7.442  0.5999  3.1354  0.5358
 3527TIP3   OH232215   3.778   7.034   1.558 -0.6158 -0.3016  0.1485
 3527TIP3    H132216   3.858   7.003   1.515  0.9719  1.7516  1.4972
 3527TIP3    H232217   3.730   6.954   1.579  1.2190 -1.6113 -0.4613
 3528TIP3   OH232218   4.271   4.278   0.263 -0.9277 -0.2602  0.5797
 3528TIP3    H132219   4.326   4.354   0.284 -0.2205 -0.9781  1.3893
 3528TIP3    H232220   4.326   4.225   0.205 -0.5778 -1.2010  1.7507
 3529TIP3   OH232221   5.880   5.520   1.344  0.0673  0.4895  0.3963
 3529TIP3    H132222   5.936   5.576   1.398 -0.1643 -0.0389  1.1878
 3529TIP3    H232223   5.792   5.554   1.357  0.4286  2.8053 -2.6675
 3530TIP3   OH232224   4.145   7.079   2.032 -1.0236  0.2499  0.4851
 3530TIP3    H132225   4.107   7.122   1.955  0.7455  2.3826  0.7535
 3530TIP3    H232226   4.101   7.120   2.106 -0.1865  0.7622  0.7067
 3531TIP3   OH232227   3.287   6.846   7.575  0.2230 -0.1419  0.6688
 3531TIP3    H132228   3.207   6.871   7.529 -0.4086 -3.3305 -0.0887
 3531TIP3    H232229   3.345   6.814   7.506  0.9689 -0.7286  1.5602
 3532TIP3   OH232230   5.849   5.799   7.906 -0.1757  0.2421  0.1478
 3532TIP3    H132231   5.787   5.847   7.962 -0.4368 -0.6660  0.6398
 3532TIP3    H232232   5.801   5.785   7.824 -0.2447  0.4697  0.1491
 3533TIP3   OH232233   4.693   3.885   7.681 -0.7065 -0.6465  0.0594
 3533TIP3    H132234   4.599   3.885   7.664 -0.5989 -3.1963 -0.8228
 3533TIP3    H232235   4.733   3.876   7.594  0.2960 -0.8010  0.5265
 3534TIP3   OH232236   5.355   5.525   0.881 -0.2042 -0.7434 -0.8606
 3534TIP3    H132237   5.348   5.459   0.811  0.1200  1.0261 -2.5939
 3534TIP3    H232238   5.265   5.553   0.895 -0.4298 -2.0065  0.3625
 3535TIP3   OH232239   2.226   3.982   2.282  0.2269  0.0957  0.1540
 3535TIP3    H132240   2.318   3.997   2.304  0.3404 -0.3003 -0.0456
 3535TIP3    H232241   2.218   3.887   2.277  0.2936  0.1705 -1.8662
 3536TIP3   OH232242   4.464   3.630   8.432 -0.0853  0.5470  0.6471
 3536TIP3    H132243   4.433   3.586   8.511  0.5530 -1.2737 -0.0875
 3536TIP3    H232244   4.559   3.614   8.431 -0.3207 -0.9727 -1.3763
 3537TIP3   OH232245   4.218   1.910   0.412 -0.0378  0.0530  0.3092
 3537TIP3    H132246   4.199   1.843   0.477  0.3009  0.9456  1.3427
 3537TIP3    H232247   4.189   1.872   0.329  0.0241 -1.3031  0.9038
 3538TIP3   OH232248   4.543   4.734   1.172  0.8988 -0.0538  0.1958
 3538TIP3    H132249   4.486   4.707   1.100  1.3060 -0.2348 -0.0602
 3538TIP3    H232250   4.541   4.659   1.232  1.2662 -0.2679 -0.0556
 3539TIP3   OH232251   5.934   4.437   1.691  0.2458  0.1041 -0.1181
 3539TIP3    H132252   5.908   4.442   1.599  1.9504  0.1321 -0.6069
 3539TIP3    H232253   5.857   4.400   1.735 -0.3524 -0.5116 -1.6329
 3540TIP3   OH232254   6.425   5.750   8.366 -0.2166 -0.0958 -0.0964
 3540TIP3    H132255   6.374   5.828   8.346 -0.1365 -0.3372 -1.3285
 3540TIP3    H232256   6.506   5.783   8.405  0.3241  0.5195 -1.6912
 3541TIP3   OH232257   3.727   3.843   8.157 -0.1429 -0.8908  0.5484
 3541TIP3    H132258   3.781   3.921   8.144  0.6517 -1.4085  0.7408
 3541TIP3    H232259   3.639   3.877   8.175 -0.8296 -0.0494 -3.7166
 3542TIP3   OH232260   5.891   4.434   0.739 -0.4131  0.0361  0.0472
 3542TIP3    H132261   5.798   4.434   0.717 -0.8115  0.6985  1.6838
 3542TIP3    H232262   5.915   4.341   0.741 -1.7618 -0.2961  2.5215
 3543TIP3   OH232263   3.326   5.096   0.604  0.1580  0.2218 -0.1850
 3543TIP3    H132264   3.268   5.074   0.531 -0.0845  1.9186 -0.5365
 3543TIP3    H232265   3.335   5.191   0.599  1.8914  0.1215  0.6909
 3544TIP3   OH232266   4.490   4.983   6.224 -0.2385  0.5268  0.6928
 3544TIP3    H132267   4.465   5.070   6.194  0.4190  0.2038 -0.8369
 3544TIP3    H232268   4.564   4.959   6.169  0.1230 -0.6629  1.6688
 3545TIP3   OH232269   6.676   7.220   7.333 -0.1078  0.0451  0.4743
 3545TIP3    H132270   6.627   7.139   7.320 -0.0239 -0.1944  1.6482
 3545TIP3    H232271   6.659   7.271   7.253 -1.7504 -0.3007  0.5918
 3546TIP3   OH232272   5.728   1.289   1.274  0.4997 -0.4378  0.1209
 3546TIP3    H132273   5.768   1.203   1.260 -0.5702 -0.7309 -1.1823
 3546TIP3    H232274   5.802   1.349   1.275  1.0868 -1.1065 -1.2020
 3547TIP3   OH232275   1.561   5.446   7.373 -0.5458 -0.0743  0.1157
 3547TIP3    H132276   1.616   5.523   7.390  1.7664 -1.4503 -0.8634
 3547TIP3    H232277   1.614   5.373   7.404 -3.0283 -1.2341  1.7227
 3548TIP3   OH232278   3.664   3.991   0.789 -0.5370 -0.2171 -0.3488
 3548TIP3    H132279   3.732   3.923   0.789 -1.1272 -0.8189 -0.6744
 3548TIP3    H232280   3.607   3.967   0.715 -2.8052 -1.4605  1.7424
 3549TIP3   OH232281   3.343   5.167   7.338 -0.0806 -0.1839 -0.1569
 3549TIP3    H132282   3.331   5.144   7.430 -1.3416  2.0635  0.2853
 3549TIP3    H232283   3.434   5.198   7.332 -0.7177  1.9973  0.9007
 3550TIP3   OH232284   4.107   5.788   7.205 -0.5055 -0.1034 -0.6269
 3550TIP3    H132285   4.146   5.873   7.226  0.3967 -1.2798  3.0077
 3550TIP3    H232286   4.013   5.805   7.203 -0.4403  0.7983  1.4576
 3551TIP3   OH232287   1.269   5.018   1.841 -0.3827 -1.2855  0.6382
 3551TIP3    H132288   1.332   4.959   1.884 -0.8419 -1.4861  1.0380
 3551TIP3    H232289   1.209   5.044   1.911  0.9431  1.1860  0.8980
 3552TIP3   OH232290   3.279   5.396   8.281  0.1891  0.2909  0.4107
 3552TIP3    H132291   3.240   5.312   8.305  0.6933  0.6477  2.5812
 3552TIP3    H232292   3.204   5.451   8.259 -0.1047 -0.8921 -1.6565
 3553TIP3   OH232293   0.353   0.432   1.435  0.4389  0.0278  0.3291
 3553TIP3    H132294   0.399   0.474   1.508  1.5075 -1.4304  0.5125
 3553TIP3    H232295   0.361   0.495   1.362  1.8740  0.2215  0.6378
 3554TIP3   OH232296   5.075   5.051   7.708  0.2184 -0.2878  0.0845
 3554TIP3    H132297   5.154   5.069   7.657 -0.6616  2.0005 -0.5428
 3554TIP3    H232298   5.098   5.077   7.797  0.4480 -0.4504  0.0737
 3555TIP3   OH232299   2.428   6.076   2.374 -0.4462 -0.2011 -0.0547
 3555TIP3    H132300   2.409   6.040   2.288 -1.8771 -2.8689  1.2976
 3555TIP3    H232301   2.515   6.041   2.396  0.6732  1.8345 -1.0414
 3556TIP3   OH232302   3.635   3.087   1.422 -0.0222 -0.8077  0.0478
 3556TIP3    H132303   3.698   3.125   1.361  0.6450  0.2253  1.3536
 3556TIP3    H232304   3.688   3.063   1.499 -1.2042 -0.0189  1.1179
 3557TIP3   OH232305   4.568   2.559   6.900  0.4806 -0.5640  0.6810
 3557TIP3    H132306   4.620   2.479   6.900  0.3112 -0.6775  0.2462
 3557TIP3    H232307   4.569   2.588   6.808 -0.9041 -1.0236  0.5116
 3558TIP3   OH232308   5.650   6.502   6.558  0.2070  0.0731 -0.2178
 3558TIP3    H132309   5.691   6.567   6.501 -0.2564  1.4288  0.9715
 3558TIP3    H232310   5.624   6.431   6.499  4.1455 -0.8150 -1.0546
 3559TIP3   OH232311   4.507   4.921   1.368  0.0816 -0.1047 -0.8032
 3559TIP3    H132312   4.458   4.912   1.450  1.3330  0.6199  0.0608
 3559TIP3    H232313   4.483   4.844   1.317  0.3165 -1.2851  0.8068
 3560TIP3   OH232314   6.567   3.144   7.724  0.5219  0.1313  0.7457
 3560TIP3    H132315   6.581   3.200   7.800  2.5998  1.3560 -0.5069
 3560TIP3    H232316   6.649   3.095   7.714  0.2260 -0.1218 -0.6071
 3561TIP3   OH232317   5.267   2.222   0.619  0.1318  0.7173 -0.4343
 3561TIP3    H132318   5.186   2.173   0.608  0.5384  0.1882 -1.1313
 3561TIP3    H232319   5.273   2.239   0.713 -0.0030 -0.5865 -0.1808
 3562TIP3   OH232320   4.067   2.113   8.365 -0.7460  0.0565 -0.4082
 3562TIP3    H132321   4.021   2.123   8.281 -2.8773 -1.7310  0.5072
 3562TIP3    H232322   3.998   2.113   8.430  0.8548  0.7493  1.3351
 3563TIP3   OH232323   5.516   4.520   6.209  0.0027 -0.7304  0.4383
 3563TIP3    H132324   5.422   4.529   6.193  0.1362 -0.0186  0.0517
 3563TIP3    H232325   5.522   4.452   6.277 -0.8116 -0.4841  0.7675
 3564TIP3   OH232326   6.147   4.744   7.329  0.3833 -0.2237  0.2127
 3564TIP3    H132327   6.176   4.675   7.269  1.2289  1.5241 -1.4537
 3564TIP3    H232328   6.070   4.783   7.287  1.2179  1.2736  0.0119
 3565TIP3   OH232329   4.436   6.326   1.640  0.3393 -0.2920 -0.0345
 3565TIP3    H132330   4.487   6.245   1.637 -0.9223 -1.0918 -0.6345
 3565TIP3    H232331   4.374   6.317   1.567 -3.0497 -1.0020  2.7803
 3566TIP3   OH232332   2.619   4.564   0.564  0.6641 -0.6293 -0.0150
 3566TIP3    H132333   2.625   4.659   0.572  0.5503 -0.6572  0.4721
 3566TIP3    H232334   2.601   4.548   0.472  0.3115 -0.1567 -0.0286
 3567TIP3   OH232335   5.465   0.991   7.019 -0.0856  0.1990  0.9183
 3567TIP3    H132336   5.441   0.963   6.931  0.3475  1.2202  0.4731
 3567TIP3    H232337   5.517   0.919   7.054 -0.4669 -0.3155  0.4384
 3568TIP3   OH232338   0.963   6.832   1.232 -0.0909 -0.2678 -0.1263
 3568TIP3    H132339   0.889   6.773   1.219  2.1008 -2.9023 -1.0980
 3568TIP3    H232340   0.965   6.849   1.326 -1.5947 -0.6060 -0.0336
 3569TIP3   OH232341   0.241   4.392   7.028 -0.7329 -0.2316  0.3227
 3569TIP3    H132342   0.167   4.341   7.060 -0.9777  0.7373  1.3241
 3569TIP3    H232343   0.203   4.458   6.971 -0.5336 -0.3661  0.0301
 3570TIP3   OH232344   0.217   3.810   5.980 -0.6025 -0.4047 -0.4786
 3570TIP3    H132345   0.162   3.732   5.980 -0.7725 -0.3748  3.2407
 3570TIP3    H232346   0.192   3.857   6.060  0.6273  2.6571 -1.8156
 3571TIP3   OH232347   1.422   3.560   1.998 -0.0000  0.3475  0.0747
 3571TIP3    H132348   1.349   3.593   2.051 -0.7021 -0.0596 -0.6396
 3571TIP3    H232349   1.498   3.566   2.057 -0.3512  2.0308  0.3811
 3572TIP3   OH232350   1.276   4.037   0.211  0.2492 -0.1830  0.1070
 3572TIP3    H132351   1.297   4.128   0.234 -1.3980  0.5139 -1.0283
 3572TIP3    H232352   1.343   3.985   0.255  1.7056  1.6403  0.1180
 3573TIP3   OH232353   4.301   5.048   7.301  0.5947 -0.1086  0.5570
 3573TIP3    H132354   4.259   4.972   7.262  1.8177 -1.1657  1.2506
 3573TIP3    H232355   4.346   5.091   7.228 -3.4437  2.3173 -0.6486
 3574TIP3   OH232356   0.196   5.082   1.456 -0.1412 -0.0350 -0.9715
 3574TIP3    H132357   0.270   5.130   1.418  1.0161 -0.6608  0.4456
 3574TIP3    H232358   0.174   5.132   1.534 -1.7832  0.6256 -1.8500
 3575TIP3   OH232359   6.239   5.337   7.223  0.0140 -0.1791 -0.0062
 3575TIP3    H132360   6.334   5.327   7.222 -0.1272 -1.6058 -0.0250
 3575TIP3    H232361   6.225   5.432   7.226  1.4423  0.0224  0.9722
 3576TIP3   OH232362   5.100   6.131   0.899  0.0216 -0.3319 -0.1550
 3576TIP3    H132363   5.038   6.198   0.872 -0.9068 -1.1196 -0.0123
 3576TIP3    H232364   5.183   6.178   0.912 -0.3236  0.5824 -1.1943
 3577TIP3   OH232365   4.392   6.186   6.992  0.1318 -0.2086 -0.4371
 3577TIP3    H132366   4.359   6.276   6.996  0.3821 -0.1504  0.7160
 3577TIP3    H232367   4.453   6.185   6.919  1.5245  1.0415  0.6694
 3578TIP3   OH232368   5.011   3.178   0.812  0.1601  0.1377  0.4459
 3578TIP3    H132369   4.978   3.148   0.896  0.1338 -0.6218  0.1600
 3578TIP3    H232370   5.005   3.103   0.754  1.8940  0.1131  0.2461
 3579TIP3   OH232371   2.887   4.398   0.372  0.3830 -0.2974 -0.2074
 3579TIP3    H132372   2.920   4.309   0.382 -1.4253 -1.0800 -0.8358
 3579TIP3    H232373   2.796   4.393   0.403 -0.7578  0.5340 -3.2388
 3580TIP3   OH232374   5.155   0.186   0.190 -0.1805 -0.6098 -0.5481
 3580TIP3    H132375   5.082   0.163   0.248  0.3751 -0.4670  0.2147
 3580TIP3    H232376   5.175   0.278   0.212  0.4767 -0.7661 -0.4771
 3581TIP3   OH232377   3.689   4.251   1.338 -0.1824  0.4553  0.4663
 3581TIP3    H132378   3.649   4.164   1.338 -1.0248  0.8177 -0.7409
 3581TIP3    H232379   3.672   4.285   1.250 -0.2454  2.0181  1.0587
 3582TIP3   OH232380   5.401   2.838   7.353 -0.7734 -0.5985 -0.2042
 3582TIP3    H132381   5.450   2.911   7.390 -2.3903  0.5520 -0.3174
 3582TIP3    H232382   5.445   2.760   7.389  0.1326  0.4259  0.9711
 3583TIP3   OH232383   4.676   0.966   1.590 -0.0617  0.2808  0.0231
 3583TIP3    H132384   4.602   0.971   1.651 -0.0963  0.6789 -0.0501
 3583TIP3    H232385   4.650   1.022   1.516 -0.0955 -0.3352 -0.4378
 3584TIP3   OH232386   7.032   3.919   0.471  0.2135  0.5343  0.4564
 3584TIP3    H132387   7.103   3.983   0.480 -0.3725  0.9794  1.9403
 3584TIP3    H232388   6.999   3.906   0.560 -2.2737  1.1097 -0.3568
 3585TIP3   OH232389   4.772   2.869   7.286 -0.1070 -0.1100 -0.3001
 3585TIP3    H132390   4.831   2.826   7.224  0.5894 -0.0731  0.3286
 3585TIP3    H232391   4.698   2.810   7.294 -0.8365  0.5010 -2.1866
 3586TIP3   OH232392   6.228   5.465   1.077  0.7551  0.0597  0.6408
 3586TIP3    H132393   6.188   5.515   1.006  0.1783  0.5358  1.3027
 3586TIP3    H232394   6.261   5.385   1.034  0.0104  0.1357 -0.0762
 3587TIP3   OH232395   0.246   6.218   6.039  0.6315 -0.3499  0.1450
 3587TIP3    H132396   0.154   6.244   6.033  1.2249  1.6481 -0.9344
 3587TIP3    H232397   0.275   6.251   6.124  0.9549  1.1523 -0.5312
 3588TIP3   OH232398   6.907   4.072   7.387 -0.0403  0.5045 -0.0109
 3588TIP3    H132399   6.974   4.096   7.323  0.2183  0.5256  0.2674
 3588TIP3    H232400   6.904   4.146   7.448  1.5513 -0.6098  1.4985
 3589TIP3   OH232401   1.312   5.505   1.881 -0.3844 -0.0886  0.4588
 3589TIP3    H132402   1.338   5.523   1.790  3.8586  1.9783  1.9447
 3589TIP3    H232403   1.226   5.545   1.890 -0.0868  1.2574 -2.1795
 3590TIP3   OH232404   5.296   5.852   0.150 -0.0077 -0.9041 -0.1810
 3590TIP3    H132405   5.219   5.799   0.132 -0.5960 -0.4539  0.9592
 3590TIP3    H232406   5.300   5.856   0.246  0.8971 -0.1496 -0.2414
 3591TIP3   OH232407   6.790   6.329   6.837 -0.2439  0.0568 -0.4666
 3591TIP3    H132408   6.786   6.344   6.931 -1.6519 -1.2054 -0.2982
 3591TIP3    H232409   6.846   6.252   6.827 -0.5851 -0.1804 -0.5966
 3592TIP3   OH232410   0.644   3.437   1.536 -0.6276 -0.2227 -0.1023
 3592TIP3    H132411   0.663   3.461   1.626 -1.8502  0.0612  0.0845
 3592TIP3    H232412   0.584   3.505   1.505 -0.3884 -0.4400 -1.0549
 3593TIP3   OH232413   5.698   4.203   8.166  0.1261  0.4110  0.1563
 3593TIP3    H132414   5.786   4.170   8.148  0.5157  1.4441  0.1561
 3593TIP3    H232415   5.671   4.156   8.245  0.7303  0.1777  0.2291
 3594TIP3   OH232416   3.514   5.380   8.478  0.7801 -0.0895 -0.2958
 3594TIP3    H132417   3.467   5.315   8.425 -0.3790 -1.0280  1.8361
 3594TIP3    H232418   3.457   5.457   8.477 -1.2314 -1.4263  2.7923
 3595TIP3   OH232419   6.642   5.680   6.452 -0.2419  0.2967 -1.1673
 3595TIP3    H132420   6.572   5.682   6.387  0.0286 -1.7415 -1.5441
 3595TIP3    H232421   6.703   5.748   6.423 -1.9281  1.9450 -0.9568
 3596TIP3   OH232422   0.589   5.532   0.552  0.2075 -0.1734 -0.3166
 3596TIP3    H132423   0.568   5.468   0.620 -1.1116  0.0771 -0.4717
 3596TIP3    H232424   0.654   5.488   0.497 -0.2693 -1.1617 -0.0977
 3597TIP3   OH232425   6.742   0.018   7.092  0.4354 -0.6442  0.0631
 3597TIP3    H132426   6.761  -0.018   7.006  2.0469 -2.1612  1.0057
 3597TIP3    H232427   6.828   0.026   7.134 -0.1360  1.8648  0.8603
 3598TIP3   OH232428   4.932   3.743   1.416  0.0445  0.1056 -0.2162
 3598TIP3    H132429   4.960   3.653   1.427 -3.8246 -1.0935  0.5064
 3598TIP3    H232430   4.930   3.779   1.505 -1.3277 -0.0424 -0.1795
 3599TIP3   OH232431   5.740   1.160   0.049  0.0270 -0.1073 -0.6261
 3599TIP3    H132432   5.681   1.222   0.006 -0.6128 -1.0571 -1.1326
 3599TIP3    H232433   5.731   1.180   0.143 -1.6661 -0.7297 -0.6343
 3600TIP3   OH232434   5.502   5.837   7.436  0.2315 -0.5421  0.2455
 3600TIP3    H132435   5.471   5.761   7.386  0.9711 -0.9983  0.4662
 3600TIP3    H232436   5.523   5.902   7.369  1.0588 -1.0916 -0.0397
 3601TIP3   OH232437   5.264   2.922   0.928 -0.1163 -0.3828 -0.5177
 3601TIP3    H132438   5.307   3.007   0.942 -1.3826  0.7063 -2.9435
 3601TIP3    H232439   5.194   2.920   0.993 -0.0362  0.3984 -0.4020
 3602TIP3   OH232440   3.005   1.363   2.046 -0.2501 -0.3373 -0.3665
 3602TIP3    H132441   3.077   1.308   2.076 -0.6138 -0.0645  1.0314
 3602TIP3    H232442   3.027   1.451   2.078 -2.3940 -0.6911  2.2180
 3603TIP3   OH232443   7.251   5.898   6.447 -0.2982 -0.1419  0.8718
 3603TIP3    H132444   7.313   5.850   6.502  0.2205  0.3819  0.7525
 3603TIP3    H232445   7.175   5.841   6.441  1.0692 -1.8480 -0.9226
 3604TIP3   OH232446   0.229   5.381   7.814 -0.4148 -0.1093 -0.1384
 3604TIP3    H132447   0.226   5.293   7.777  2.7158  0.1627 -1.2506
 3604TIP3    H232448   0.297   5.377   7.881  0.1919  1.5810 -0.6122
 3605TIP3   OH232449   6.462   6.652   0.100  0.0800  0.0417  0.1747
 3605TIP3    H132450   6.552   6.620   0.093  0.1999  0.3517  0.2644
 3605TIP3    H232451   6.448   6.665   0.194 -0.0662 -0.0242  0.1633
 3606TIP3   OH232452   0.240   2.194   1.884 -0.6140  0.0755 -0.0198
 3606TIP3    H132453   0.272   2.186   1.794 -2.0407 -0.1005 -0.5116
 3606TIP3    H232454   0.301   2.255   1.926 -0.2472  0.5505 -1.2417
 3607TIP3   OH232455   2.260   3.912   7.636 -0.1814  0.3842 -0.0653
 3607TIP3    H132456   2.166   3.901   7.621 -0.5092 -0.2651  2.2370
 3607TIP3    H232457   2.280   3.850   7.707  1.9789  0.5339 -0.5200
 3608TIP3   OH232458   5.675   6.809   8.410  0.1691  0.3643  0.0452
 3608TIP3    H132459   5.720   6.759   8.479  0.0686 -0.6003 -0.5715
 3608TIP3    H232460   5.732   6.799   8.333 -1.1484 -0.9860 -0.7849
 3609TIP3   OH232461   5.466   4.524   0.795  0.0324  0.4552 -0.5869
 3609TIP3    H132462   5.419   4.505   0.876  2.3160 -2.0148  0.2542
 3609TIP3    H232463   5.502   4.611   0.807 -1.5879  1.0513  0.0761
 3610TIP3   OH232464   7.285   7.016   6.206  0.2960 -0.3907  0.1357
 3610TIP3    H132465   7.276   7.024   6.301 -1.3907 -1.5665  0.0991
 3610TIP3    H232466   7.234   7.089   6.171 -1.0212 -1.2960  0.1148
 3611TIP3   OH232467   1.781   0.452   0.205 -0.4147  0.1567 -0.4418
 3611TIP3    H132468   1.739   0.500   0.276  1.9975  0.4152  0.8702
 3611TIP3    H232469   1.757   0.361   0.219 -0.8037  0.3402  0.0861
 3612TIP3   OH232470   7.206   6.671   6.782  0.3037 -0.1616 -0.0765
 3612TIP3    H132471   7.223   6.720   6.863 -1.8287 -0.1882  0.4233
 3612TIP3    H232472   7.137   6.720   6.738 -0.8826 -1.9011 -0.2533
 3613TIP3   OH232473   6.760   4.808   6.929 -0.1791  0.4868  0.6787
 3613TIP3    H132474   6.748   4.793   7.023 -0.9452 -0.1417  0.4868
 3613TIP3    H232475   6.716   4.734   6.887 -1.6594  1.8403 -0.2168
 3614TIP3   OH232476   0.449   2.479   6.543 -0.2261 -0.3450  0.0830
 3614TIP3    H132477   0.533   2.514   6.515  0.7650 -3.4612 -1.1270
 3614TIP3    H232478   0.402   2.462   6.461 -1.5169  0.1629  0.7030
 3615TIP3   OH232479   5.232   6.387   0.005  0.1955 -0.5100  0.4136
 3615TIP3    H132480   5.194   6.383  -0.083 -1.0707 -2.4608  1.0081
 3615TIP3    H232481   5.301   6.453  -0.001 -1.5157  1.1772 -1.4021
 3616TIP3   OH232482   2.504   1.149   0.446  0.2988  0.1633  0.3287
 3616TIP3    H132483   2.457   1.074   0.481  1.6355 -0.8709 -0.0541
 3616TIP3    H232484   2.435   1.210   0.418 -0.7784 -0.0537  2.4456
 3617TIP3   OH232485   2.799   4.977   2.211 -0.1831  0.0007  0.0472
 3617TIP3    H132486   2.757   4.960   2.295  0.6801 -0.4216  0.4068
 3617TIP3    H232487   2.874   5.032   2.232 -0.7030  0.9636 -0.6170
 3618TIP3   OH232488   1.520   4.565   0.050 -0.0606  0.3531 -0.3692
 3618TIP3    H132489   1.477   4.650   0.056 -0.6878 -0.0157  0.4811
 3618TIP3    H232490   1.542   4.543   0.141  2.2286  0.6866 -0.8277
 3619TIP3   OH232491   3.038   2.030   1.161 -0.2176 -0.2607  0.0586
 3619TIP3    H132492   3.053   2.089   1.235  1.8322  2.3207 -2.2950
 3619TIP3    H232493   3.094   1.954   1.179  0.9734  0.7560  0.7415
 3620TIP3   OH232494   1.639   4.924   7.004 -0.2873 -0.1326 -0.1149
 3620TIP3    H132495   1.703   4.855   7.022 -0.9586 -0.7798 -0.1682
 3620TIP3    H232496   1.665   4.996   7.061  1.0890 -0.0164 -0.8851
 3621TIP3   OH232497   6.318   4.847   0.015  0.2436  0.0529  0.1089
 3621TIP3    H132498   6.226   4.869   0.026  0.0567  0.0413 -1.3369
 3621TIP3    H232499   6.363   4.897   0.084 -0.7676  0.5976  0.3811
 3622TIP3   OH232500   4.312   0.530   1.626  0.4084  0.5984 -0.0367
 3622TIP3    H132501   4.330   0.488   1.710  0.6824 -1.2498 -0.9832
 3622TIP3    H232502   4.362   0.612   1.629  0.9824  0.2164  1.3168
 3623TIP3   OH232503   0.628   0.812   6.688 -0.1541 -0.3124 -0.1459
 3623TIP3    H132504   0.683   0.741   6.657  0.0112  0.5374 -1.8905
 3623TIP3    H232505   0.539   0.787   6.662 -0.1968 -0.2744 -0.0368
 3624TIP3   OH232506   7.061   7.005   6.409  0.1516  0.5043  0.1002
 3624TIP3    H132507   7.088   7.079   6.354  2.7847 -1.2603 -1.1254
 3624TIP3    H232508   7.023   6.942   6.347  1.1615 -0.6038  0.5756
 3625TIP3   OH232509   0.953   5.012   7.326  0.1513 -0.5047 -0.2561
 3625TIP3    H132510   0.912   5.094   7.352  0.5067 -0.0192 -1.2173
 3625TIP3    H232511   0.933   4.951   7.398  1.5106  0.9406  1.3852
 3626TIP3   OH232512   5.508   6.214   0.515 -0.1455 -0.1159 -0.4846
 3626TIP3    H132513   5.502   6.243   0.424  2.2900 -0.4998 -0.8071
 3626TIP3    H232514   5.543   6.291   0.562 -3.3347  0.7879  0.5542
 3627TIP3   OH232515   3.589   0.295   7.883 -0.0048 -0.2060  0.6625
 3627TIP3    H132516   3.684   0.295   7.897 -0.0027  0.6396  0.7030
 3627TIP3    H232517   3.552   0.325   7.966 -0.2280  0.7130  0.2501
 3628TIP3   OH232518   1.389   7.046   7.832 -1.0077  0.2239  0.4602
 3628TIP3    H132519   1.402   7.139   7.811  0.8935 -0.4961 -1.8732
 3628TIP3    H232520   1.400   7.041   7.927 -0.6178  2.3172  0.5561
 3629TIP3   OH232521   3.065   1.150   6.705 -0.0193  0.5507  0.0470
 3629TIP3    H132522   2.980   1.140   6.749  0.2888  2.3332  1.0777
 3629TIP3    H232523   3.051   1.111   6.618 -2.0704  1.3670 -0.0241
 3630TIP3   OH232524   6.283   3.505   2.407 -0.3760 -0.1340 -0.0015
 3630TIP3    H132525   6.192   3.475   2.408  0.0218 -1.3810  2.5990
 3630TIP3    H232526   6.277   3.596   2.379 -2.3567 -0.3754 -0.4897
 3631TIP3   OH232527   5.117   5.682   1.243  0.6324 -0.1988  0.0435
 3631TIP3    H132528   5.097   5.770   1.275 -1.8565  0.0333 -2.0072
 3631TIP3    H232529   5.067   5.624   1.301  0.6767 -0.1372  0.1434
 3632TIP3   OH232530   0.860   5.760   6.619  0.8068  0.0659 -0.3313
 3632TIP3    H132531   0.905   5.742   6.536  2.1138 -1.7392  0.7466
 3632TIP3    H232532   0.773   5.721   6.608  0.0139  2.1159 -1.7934
 3633TIP3   OH232533   2.317   6.740   7.743 -0.5062  0.1319  0.2928
 3633TIP3    H132534   2.272   6.782   7.816 -1.7487 -1.4222  0.4474
 3633TIP3    H232535   2.361   6.664   7.783 -1.2548 -0.7644 -0.5766
 3634TIP3   OH232536   6.659   2.209   6.907 -0.2885  0.2603 -0.9534
 3634TIP3    H132537   6.690   2.174   6.824 -0.7848 -1.2583 -0.5080
 3634TIP3    H232538   6.614   2.136   6.950  1.9570  0.3439  1.6887
 3635TIP3   OH232539   6.573   6.747   1.359  0.1690 -0.2143 -0.0697
 3635TIP3    H132540   6.503   6.812   1.364 -0.2819 -0.7032 -0.0074
 3635TIP3    H232541   6.598   6.732   1.450 -0.5233 -0.9828  0.0022
 3636TIP3   OH232542   0.023   0.829   1.867  0.8197  0.0199  0.1926
 3636TIP3    H132543  -0.061   0.815   1.910  0.0984 -1.7589 -1.7093
 3636TIP3    H232544   0.061   0.904   1.912 -1.5681  0.5457  1.3909
 3637TIP3   OH232545   0.606   3.764   1.899 -0.0332  0.2035 -0.2117
 3637TIP3    H132546   0.669   3.774   1.827 -1.2250  4.6094 -0.8329
 3637TIP3    H232547   0.655   3.790   1.977  0.6138 -2.4144  0.3042
 3638TIP3   OH232548   3.184   0.370   6.914 -0.1902  0.1425  0.1172
 3638TIP3    H132549   3.124   0.307   6.875  1.0269 -0.6993 -0.4284
 3638TIP3    H232550   3.221   0.324   6.990  2.1637 -0.5751 -1.3949
 3639TIP3   OH232551   7.320   6.424   8.324 -0.2967  0.0236 -0.2154
 3639TIP3    H132552   7.375   6.498   8.298  0.4181 -1.0852 -1.9490
 3639TIP3    H232553   7.235   6.464   8.345  0.7903  1.6025  1.3116
 3640TIP3   OH232554   1.911   4.349   1.400 -0.3111  0.1920 -0.4962
 3640TIP3    H132555   1.870   4.436   1.397 -0.6311  0.0817  0.5975
 3640TIP3    H232556   1.980   4.353   1.334  1.2001  2.0530  1.1364
 3641TIP3   OH232557   6.053   5.102   6.785 -0.2472 -0.4946 -0.2660
 3641TIP3    H132558   6.042   5.111   6.690  0.3610  1.9772 -0.1377
 3641TIP3    H232559   5.967   5.074   6.817 -1.3354  1.6517 -1.2246
 3642TIP3   OH232560   3.331   7.195   6.734 -0.3516  0.5122  0.7435
 3642TIP3    H132561   3.407   7.237   6.773  0.5432 -0.3261 -0.0568
 3642TIP3    H232562   3.284   7.156   6.808 -0.4173  1.6663  1.3190
 3643TIP3   OH232563   4.348   4.846   6.646 -0.0442  0.2369  0.2718
 3643TIP3    H132564   4.355   4.930   6.602 -0.3678 -1.7629 -3.7733
 3643TIP3    H232565   4.438   4.823   6.670  0.0785  1.5365  1.1286
 3644TIP3   OH232566   3.892   3.722   6.525 -0.0300 -0.0797 -0.1023
 3644TIP3    H132567   3.898   3.626   6.520  0.3692  0.0073 -1.6450
 3644TIP3    H232568   3.810   3.742   6.480  0.3543  0.3528 -0.6216
 3645TIP3   OH232569   3.901   4.812   7.025 -0.0105  0.2170  0.3061
 3645TIP3    H132570   3.840   4.843   7.091 -0.6312  0.6171 -0.4492
 3645TIP3    H232571   3.881   4.719   7.014  0.4268  0.0331  1.0337
 3646TIP3   OH232572   5.820   4.653   1.000 -0.2323  0.1631 -0.1053
 3646TIP3    H132573   5.843   4.685   1.087 -0.7876 -1.0302  0.4870
 3646TIP3    H232574   5.761   4.720   0.965 -0.3914  0.4126  0.6287
 3647TIP3   OH232575   2.594   4.594   8.350  0.0694  0.3945  0.1922
 3647TIP3    H132576   2.674   4.544   8.365  0.8868  1.6307  0.1030
 3647TIP3    H232577   2.594   4.611   8.256 -0.4351  0.1612  0.1524
 3648TIP3   OH232578   3.466   6.746   7.741 -0.6103  1.0267  0.6899
 3648TIP3    H132579   3.400   6.793   7.690  0.1602  0.7822 -0.5562
 3648TIP3    H232580   3.549   6.790   7.719 -0.1602  0.3877  1.0867
 3649TIP3   OH232581   1.539   5.765   8.366 -0.6548  0.2006  0.2410
 3649TIP3    H132582   1.523   5.679   8.327 -4.3697  1.1986 -0.6574
 3649TIP3    H232583   1.594   5.810   8.302  1.6946 -1.6237  0.9279
 3650TIP3   OH232584   3.239   7.039   6.963  0.4391 -0.0819 -0.0954
 3650TIP3    H132585   3.189   6.963   6.992  1.0241 -0.6634 -0.6010
 3650TIP3    H232586   3.325   7.029   7.005  0.5628  0.2320 -0.2713
 3651TIP3   OH232587   2.982   6.945   6.708 -0.1420  0.1255 -0.0169
 3651TIP3    H132588   2.926   7.011   6.668 -0.2224  0.5339  0.7728
 3651TIP3    H232589   3.038   6.915   6.637 -2.0101 -0.9976 -1.0833
 3652TIP3   OH232590   3.257   6.501   6.990 -0.4294  0.1432 -0.3186
 3652TIP3    H132591   3.196   6.474   6.920 -0.9665  1.2361 -0.2785
 3652TIP3    H232592   3.217   6.468   7.070  1.0965 -2.7127 -0.6638
 3653TIP3   OH232593   0.401   5.682   7.831  0.1098 -0.3339  0.5738
 3653TIP3    H132594   0.389   5.644   7.744 -0.7123  0.5378  0.3041
 3653TIP3    H232595   0.426   5.773   7.815 -0.4850 -0.0434  1.2544
 3654TIP3   OH232596   3.555   5.610   6.978  0.8996 -0.0255 -0.6414
 3654TIP3    H132597   3.482   5.612   7.041  1.1890  1.2657 -0.3361
 3654TIP3    H232598   3.516   5.576   6.897  0.1289 -0.0453 -0.2694
 3655TIP3   OH232599   6.574   7.254   8.227 -0.0442 -0.0273  0.6554
 3655TIP3    H132600   6.543   7.172   8.266 -1.1263  0.4613  0.8278
 3655TIP3    H232601   6.494   7.299   8.200  0.4326  1.8282  2.2543
 3656TIP3   OH232602   4.676   5.148   2.125  0.4450 -0.2879  0.2264
 3656TIP3    H132603   4.718   5.189   2.201 -0.0871  1.5615 -0.4474
 3656TIP3    H232604   4.731   5.175   2.051 -1.4811  1.5609 -0.5740
 3657TIP3   OH232605   0.435   7.321   7.962 -1.3385  0.5237  0.1690
 3657TIP3    H132606   0.517   7.325   7.914 -0.6743  0.1808  1.2782
 3657TIP3    H232607   0.410   7.412   7.976 -1.3436  0.6248 -0.4953
 3658TIP3   OH232608   3.691   6.806   7.465 -0.0153  0.8859 -0.3217
 3658TIP3    H132609   3.636   6.884   7.459 -2.0909 -0.5501 -0.6057
 3658TIP3    H232610   3.750   6.812   7.390 -0.0086  2.2938 -0.2039
 3659TIP3   OH232611   3.480   1.441   7.760 -0.5610  0.0345 -0.3763
 3659TIP3    H132612   3.490   1.409   7.671  2.1381 -1.9520  0.5826
 3659TIP3    H232613   3.565   1.479   7.782 -0.6292 -1.0166  1.8923
 3660TIP3   OH232614   0.249   4.004   7.613  0.2439  0.0085  0.4863
 3660TIP3    H132615   0.192   4.023   7.539 -0.3486  0.8420  1.1492
 3660TIP3    H232616   0.327   4.057   7.598  0.0773  0.2613  0.5117
 3661TIP3   OH232617   3.802   6.428   1.112  0.6093  0.3277  0.3094
 3661TIP3    H132618   3.787   6.467   1.026 -1.4652 -0.8988  0.0810
 3661TIP3    H232619   3.880   6.374   1.100 -0.5595 -1.0795 -1.2600
 3662TIP3   OH232620   1.877   5.888   7.982  0.2020  0.0338  0.5335
 3662TIP3    H132621   1.929   5.836   7.920 -2.0774 -3.1359  1.1517
 3662TIP3    H232622   1.935   5.901   8.057  0.7392 -1.9000  0.4741
 3663TIP3   OH232623   1.807   0.352   8.440  0.6163 -0.0600 -0.0093
 3663TIP3    H132624   1.852   0.411   8.380  0.9050 -0.8006 -0.5325
 3663TIP3    H232625   1.820   0.391   8.527  1.9485 -0.0546 -0.1980
 3664TIP3   OH232626   1.231   0.007   7.948 -0.3090  0.3550 -0.1622
 3664TIP3    H132627   1.140   0.006   7.976 -1.0226 -0.7786 -2.3689
 3664TIP3    H232628   1.281  -0.016   8.026 -2.0379 -0.4837  0.7193
 3665TIP3   OH232629   2.358   0.346   6.567 -0.3468  0.8343  0.2640
 3665TIP3    H132630   2.358   0.417   6.502  1.0372 -0.8851 -1.6660
 3665TIP3    H232631   2.301   0.279   6.530 -0.1180  0.1189  1.1731
 3666TIP3   OH232632   2.110   6.520   7.910 -0.4056  0.2631  0.1901
 3666TIP3    H132633   2.091   6.427   7.902 -0.8618  0.5179 -2.1440
 3666TIP3    H232634   2.044   6.562   7.854  0.4028  1.9103  0.4563
 3667TIP3   OH232635   4.627   6.614   8.238  0.6605 -0.3795  0.0639
 3667TIP3    H132636   4.679   6.596   8.160  0.3003  0.6775 -0.4447
 3667TIP3    H232637   4.580   6.533   8.256  1.0289 -0.7390 -0.6000
 3668TIP3   OH232638   3.017   3.604   6.796 -0.7708  0.3109 -0.3539
 3668TIP3    H132639   3.015   3.654   6.714  0.9604  0.7819 -0.1299
 3668TIP3    H232640   2.989   3.516   6.772 -0.6035  0.5348 -1.3749
 3669TIP3   OH232641   3.084   3.926   8.314 -0.2844 -0.2082 -0.0471
 3669TIP3    H132642   2.998   3.927   8.270  0.6672 -0.5513 -1.9938
 3669TIP3    H232643   3.137   3.988   8.264  0.7281 -0.3002  0.8939
 3670TIP3   OH232644   1.898   2.637   6.818 -1.0281  0.0002  0.3240
 3670TIP3    H132645   1.815   2.684   6.805 -0.4181  0.8017 -0.8061
 3670TIP3    H232646   1.932   2.624   6.729  0.2354  0.0008  0.7915
 3671TIP3   OH232647   1.972   1.713   6.711 -0.3897 -0.2745 -0.0830
 3671TIP3    H132648   1.897   1.725   6.769  0.5776  1.1538  0.8889
 3671TIP3    H232649   1.935   1.722   6.623 -1.3981  0.1326  0.3694
 3672TIP3   OH232650   1.769   6.416   0.825 -0.1296  0.3179  0.2443
 3672TIP3    H132651   1.738   6.492   0.873 -0.4284  0.3801 -0.0372
 3672TIP3    H232652   1.811   6.453   0.747  1.6253  0.2769  1.1522
 3673TIP3   OH232653   0.576   4.434   0.086  0.1177 -0.3292  0.8460
 3673TIP3    H132654   0.546   4.461  -0.001  0.1679  0.8718  1.1884
 3673TIP3    H232655   0.538   4.347   0.099 -1.1636  0.1296  0.2545
 3674TIP3   OH232656   3.114   4.287   7.065 -0.2652  0.1731 -0.1830
 3674TIP3    H132657   3.056   4.277   7.140 -2.2302 -0.5833 -1.7429
 3674TIP3    H232658   3.084   4.368   7.023  2.1508  1.6981  0.9421
 3675TIP3   OH232659   6.660   4.984   1.183 -0.3559  0.2081 -0.3181
 3675TIP3    H132660   6.664   4.957   1.091  0.9876  2.7265 -1.0278
 3675TIP3    H232661   6.601   5.059   1.184 -0.5061  0.0868  0.9246
 3676TIP3   OH232662   4.347   2.260   0.929 -0.5247  0.5071  0.1716
 3676TIP3    H132663   4.433   2.254   0.971 -0.3405 -2.7421 -0.5630
 3676TIP3    H232664   4.323   2.352   0.937  2.2797  1.1450  1.8639
 3677TIP3   OH232665   0.118   4.591   6.905  0.3441  0.1980 -0.0180
 3677TIP3    H132666   0.151   4.558   6.821 -0.2321 -0.3645 -0.0292
 3677TIP3    H232667   0.099   4.683   6.889  1.3478  0.3821 -0.1752
 3678TIP3   OH232668   0.325   5.566   0.795 -0.6082  0.0273 -0.2474
 3678TIP3    H132669   0.271   5.493   0.826  1.3732 -1.2418  0.3664
 3678TIP3    H232670   0.357   5.608   0.876  0.7430 -0.3487 -0.5714
 3679TIP3   OH232671   3.365   2.996   7.642 -0.2276 -0.0944 -0.1745
 3679TIP3    H132672   3.403   2.986   7.555  1.1045 -2.0020  0.5955
 3679TIP3    H232673   3.341   2.908   7.669 -1.9558  0.6562  0.8214
 3680TIP3   OH232674   5.321   0.273   1.107  0.1491  0.3676 -0.3028
 3680TIP3    H132675   5.282   0.207   1.163 -0.2740  0.6026 -0.3214
 3680TIP3    H232676   5.414   0.251   1.105  0.0111 -0.2226 -0.3017
 3681TIP3   OH232677   5.103   4.036   0.955 -0.0231 -0.4229  0.6747
 3681TIP3    H132678   5.190   4.024   0.993 -0.9325  0.5869  3.1914
 3681TIP3    H232679   5.066   3.947   0.952  0.6848 -0.7169  0.5864
 3682TIP3   OH232680   5.387   6.150   8.295  0.9304 -0.2920  0.3194
 3682TIP3    H132681   5.351   6.231   8.261 -0.1524 -0.8365  0.1400
 3682TIP3    H232682   5.450   6.177   8.361  0.4326  0.6963  0.3947
 3683TIP3   OH232683   2.253   0.806   1.125 -0.4568 -0.5434 -0.4158
 3683TIP3    H132684   2.318   0.871   1.099  0.0715 -0.9074 -0.0148
 3683TIP3    H232685   2.249   0.745   1.052  0.4865 -1.1554  0.0380
 3684TIP3   OH232686   4.410   5.371   1.948 -0.2373  0.0881 -0.2223
 3684TIP3    H132687   4.501   5.400   1.957 -0.8673  2.3524 -0.7275
 3684TIP3    H232688   4.402   5.299   2.010  1.6424  0.4915  0.5374
 3685TIP3   OH232689   3.823   6.749   6.173  0.9401  0.4217 -0.2279
 3685TIP3    H132690   3.908   6.731   6.134  1.7303  1.6185  0.8983
 3685TIP3    H232691   3.768   6.775   6.099  1.0690 -1.9061 -1.1961
 3686TIP3   OH232692   2.974   5.078   0.239 -0.0070  0.1435 -0.4404
 3686TIP3    H132693   2.890   5.040   0.212  0.3833 -0.6965 -0.4770
 3686TIP3    H232694   2.950   5.159   0.284 -0.8318 -0.0586 -0.5063
 3687TIP3   OH232695   0.222   6.810   0.096 -0.4038  0.1179 -0.1286
 3687TIP3    H132696   0.133   6.835   0.072 -0.6389 -0.1157  0.4938
 3687TIP3    H232697   0.244   6.865   0.171 -0.3671 -0.4717  0.2983
 3688TIP3   OH232698   6.276   6.203   8.256  0.5723 -0.5466  0.0486
 3688TIP3    H132699   6.318   6.212   8.341 -1.0166  0.5498  0.7397
 3688TIP3    H232700   6.255   6.293   8.230 -0.5994 -0.9999 -0.6401
 3689TIP3   OH232701   5.396   5.184   7.920  0.2468  0.0651  0.1124
 3689TIP3    H132702   5.491   5.195   7.915  0.2595  0.9662  2.1651
 3689TIP3    H232703   5.364   5.225   7.840  1.5390  0.2177 -0.3444
 3690TIP3   OH232704   3.882   7.145   7.890 -0.1196 -0.1971  0.5773
 3690TIP3    H132705   3.929   7.081   7.943  2.3118  1.3800  0.4119
 3690TIP3    H232706   3.930   7.146   7.807 -1.4012  0.3225 -0.1631
 3691TIP3   OH232707   4.761   5.673   6.949 -0.1810  0.9344  0.0004
 3691TIP3    H132708   4.710   5.655   7.028 -0.0460  0.8771  0.0763
 3691TIP3    H232709   4.742   5.600   6.891  1.0012  0.1152  0.6219
 3692TIP3   OH232710   5.733   5.249   0.017 -0.1553  0.0079 -0.2753
 3692TIP3    H132711   5.796   5.321   0.018 -0.7215  0.4931  0.7827
 3692TIP3    H232712   5.708   5.237   0.108 -1.2722 -0.4663 -0.6345
 3693TIP3   OH232713   6.042   4.465   0.971  0.5256 -0.5077 -0.2684
 3693TIP3    H132714   6.102   4.539   0.964  0.3864 -0.3129  0.5304
 3693TIP3    H232715   5.981   4.477   0.899  0.0915  0.5421  0.2600
 3694TIP3   OH232716   3.886   6.383   0.146  0.2477 -0.1498  0.0080
 3694TIP3    H132717   3.911   6.456   0.203  0.1389 -0.6609  0.7086
 3694TIP3    H232718   3.794   6.367   0.165  0.3569 -0.6885  0.1121
 3695TIP3   OH232719   4.904   1.584   0.324 -0.5187 -0.3088 -0.2853
 3695TIP3    H132720   4.941   1.672   0.322 -1.2154  0.0083  0.6809
 3695TIP3    H232721   4.919   1.550   0.235 -1.8865  1.4781 -1.2454
 3696TIP3   OH232722   2.309   4.426   0.436 -0.8049  0.2180 -0.2626
 3696TIP3    H132723   2.249   4.358   0.404  0.3966 -1.7564  1.5484
 3696TIP3    H232724   2.264   4.464   0.511  0.3477 -1.5952  1.3958
 3697TIP3   OH232725   0.872   5.571   0.375  0.3352  0.0384 -0.0737
 3697TIP3    H132726   0.917   5.554   0.457 -0.3244  0.7683  0.4513
 3697TIP3    H232727   0.919   5.645   0.337  0.6237 -0.2816 -0.3428
 3698TIP3   OH232728   5.462   7.186   7.430  0.2350 -0.7689 -0.4113
 3698TIP3    H132729   5.405   7.112   7.406  0.4372 -1.0574  0.0027
 3698TIP3    H232730   5.406   7.244   7.481 -0.3391  0.0827 -1.9560
 3699TIP3   OH232731   4.949   2.897   2.535  0.1860 -0.3655  0.3910
 3699TIP3    H132732   4.955   2.821   2.594 -1.6294 -0.6486  0.2574
 3699TIP3    H232733   4.932   2.971   2.593  2.2031 -0.0002  0.5438
 3700TIP3   OH232734   3.913   6.481   7.687 -0.0233  0.0816 -0.1306
 3700TIP3    H132735   3.901   6.501   7.594 -1.3154  1.8822  0.4046
 3700TIP3    H232736   4.005   6.455   7.694  0.1973  0.3684 -1.8296
 3701TIP3   OH232737   3.390   5.587   1.359  0.1029 -0.4640  0.0741
 3701TIP3    H132738   3.409   5.520   1.293  0.6973  0.8524 -1.1274
 3701TIP3    H232739   3.460   5.652   1.347  1.1625 -0.9835  3.1142
 3702TIP3   OH232740   1.783   3.737   0.079  0.6095 -0.3779  0.6851
 3702TIP3    H132741   1.726   3.723   0.003 -1.0225 -1.1486  2.0213
 3702TIP3    H232742   1.753   3.820   0.117  0.8650 -0.4135  0.9683
 3703TIP3   OH232743   6.504   0.809   7.572  0.0632 -0.2222  0.0788
 3703TIP3    H132744   6.570   0.769   7.516 -1.3602 -1.0082 -1.0622
 3703TIP3    H232745   6.492   0.746   7.644 -1.9795 -1.7910 -1.5724
 3704TIP3   OH232746   3.795   7.051   6.651  0.0719 -0.2327 -0.0054
 3704TIP3    H132747   3.843   7.123   6.691 -2.0757  0.0874  2.0674
 3704TIP3    H232748   3.854   7.018   6.584  1.4963  2.7829 -0.3067
 3705TIP3   OH232749   7.144   6.316   7.830 -0.3234  0.2209 -0.8619
 3705TIP3    H132750   7.213   6.303   7.766  0.6419 -1.4552  0.4959
 3705TIP3    H232751   7.176   6.388   7.885 -0.6242  0.8692 -1.5280
 3706TIP3   OH232752   1.418   6.755   7.755 -0.3254 -0.4852  0.4820
 3706TIP3    H132753   1.414   6.851   7.761  1.0615 -0.3379 -0.6394
 3706TIP3    H232754   1.338   6.730   7.710  0.0831  0.3050 -0.7116
 3707TIP3   OH232755   5.916   7.272   8.150 -0.2133 -0.1155  0.1116
 3707TIP3    H132756   5.890   7.266   8.242  0.1870  0.2722  0.2457
 3707TIP3    H232757   5.931   7.365   8.135 -1.7621  0.0089 -0.7527
 3708TIP3   OH232758   7.300   5.978   8.027  0.1804  0.0150 -0.4856
 3708TIP3    H132759   7.327   5.955   7.938 -0.6579  0.0655 -0.7622
 3708TIP3    H232760   7.289   6.073   8.024 -0.1098 -0.0152 -0.4074
 3709TIP3   OH232761   3.847   6.697   8.121  0.5198  0.0269  0.5123
 3709TIP3    H132762   3.833   6.603   8.109  3.0176 -0.6116  2.2135
 3709TIP3    H232763   3.778   6.724   8.180  0.3547 -0.9475  0.7813
 3710TIP3   OH232764   1.205   3.590   1.698 -0.1882  0.4885  0.1848
 3710TIP3    H132765   1.259   3.511   1.700  1.1228  1.3916  0.8630
 3710TIP3    H232766   1.193   3.613   1.790 -1.5013  0.4612  0.0304
 3711TIP3   OH232767   5.779   3.201   0.984  0.0705  0.5680  0.5818
 3711TIP3    H132768   5.810   3.259   0.914  0.9746  1.7540  1.9500
 3711TIP3    H232769   5.687   3.187   0.963  0.5181  0.2573 -1.3005
 3712TIP3   OH232770   3.672   7.228   1.846  0.0493  0.7057 -0.0464
 3712TIP3    H132771   3.581   7.201   1.855  0.6223 -1.0049  0.9600
 3712TIP3    H232772   3.669   7.309   1.796 -2.1306  1.5755  1.4611
 3713TIP3   OH232773   6.122   0.084   6.709  0.9015  0.1710  0.2970
 3713TIP3    H132774   6.062   0.158   6.717 -0.4629 -0.8744 -0.1542
 3713TIP3    H232775   6.095   0.039   6.630  1.1594 -1.3083  1.0368
 3714TIP3   OH232776   4.853   6.568   1.698 -0.2512  0.5907 -0.6679
 3714TIP3    H132777   4.895   6.537   1.617 -0.5396 -0.5751 -0.3894
 3714TIP3    H232778   4.774   6.613   1.668  0.4345  1.4989 -1.1172
 3715TIP3   OH232779   4.301   2.663   6.656  0.7374  0.0229 -0.2785
 3715TIP3    H132780   4.246   2.665   6.578 -1.0489  1.8945  0.9589
 3715TIP3    H232781   4.241   2.639   6.727  1.1792  3.2661  1.2921
 3716TIP3   OH232782   5.174   7.076   6.295 -0.1091 -0.1992 -0.3328
 3716TIP3    H132783   5.245   7.012   6.291  0.7480  0.7597 -0.7174
 3716TIP3    H232784   5.213   7.157   6.261 -1.7307  0.0416 -1.6447
 3717TIP3   OH232785   0.998   0.434   6.414  0.0415 -1.0845  0.2659
 3717TIP3    H132786   0.948   0.456   6.335  0.3422 -2.2030 -0.2452
 3717TIP3    H232787   1.057   0.508   6.426 -2.7472  1.0029  1.7370
 3718TIP3   OH232788   6.043   5.689   8.137  0.3679 -0.4101  0.0880
 3718TIP3    H132789   6.039   5.768   8.083 -0.3196  0.3115  1.1735
 3718TIP3    H232790   6.006   5.620   8.082  0.7776  0.0644 -0.7905
 3719TIP3   OH232791   6.930   6.515   6.637  0.3801  0.0896  0.0967
 3719TIP3    H132792   7.002   6.480   6.689 -0.2965  0.3480  1.2005
 3719TIP3    H232793   6.858   6.524   6.698 -0.7385 -0.5863 -1.1057
 3720TIP3   OH232794   1.325   0.028   7.206 -0.2426  0.1784 -0.0120
 3720TIP3    H132795   1.282   0.114   7.197 -1.0171 -0.4869 -3.6637
 3720TIP3    H232796   1.274  -0.017   7.273 -1.4548  1.6579  0.1123
 3721TIP3   OH232797   7.051   5.378   7.541  0.4519 -0.3834  0.1957
 3721TIP3    H132798   7.136   5.384   7.497  0.7017 -1.7750  0.4644
 3721TIP3    H232799   7.015   5.466   7.535  0.5668 -0.4864 -2.6161
 3722TIP3   OH232800   6.667   7.002   1.843  0.3418 -0.0131 -0.0096
 3722TIP3    H132801   6.760   6.989   1.822  0.9084 -2.1856  3.3282
 3722TIP3    H232802   6.632   6.913   1.849 -1.3504  0.7010  1.1495
 3723TIP3   OH232803   6.870   7.172   6.615  0.2226  0.8421 -0.3484
 3723TIP3    H132804   6.828   7.234   6.556  0.2306  0.3239 -0.9050
 3723TIP3    H232805   6.880   7.092   6.563  2.3606  1.1089 -0.4104
 3724TIP3   OH232806   6.616   5.785   1.780  0.1327 -0.2363  0.2355
 3724TIP3    H132807   6.612   5.753   1.870  1.1012 -2.1294 -0.3580
 3724TIP3    H232808   6.527   5.771   1.746 -0.0064 -0.3223  0.6281
 3725TIP3   OH232809   5.705   7.158   1.908  1.0109 -0.2759 -0.1835
 3725TIP3    H132810   5.674   7.102   1.980  0.6154  1.9033  1.3948
 3725TIP3    H232811   5.719   7.097   1.835 -0.7560 -2.2308  1.0387
 3726TIP3   OH232812   2.932   0.787   7.359 -0.2723 -0.4848  0.2337
 3726TIP3    H132813   3.021   0.759   7.334 -0.7362  0.1183 -2.2549
 3726TIP3    H232814   2.883   0.705   7.368  0.2444 -0.7704  0.4763
 3727TIP3   OH232815   1.548   0.576   6.562 -0.2062 -0.5326 -0.0450
 3727TIP3    H132816   1.623   0.518   6.579 -0.8166 -1.8716 -1.7687
 3727TIP3    H232817   1.586   0.653   6.521  0.3072 -0.9454 -0.3516
 3728TIP3   OH232818   6.562   4.675   8.274  0.3211 -0.2635  0.0158
 3728TIP3    H132819   6.481   4.684   8.223 -1.2524 -0.0788  2.4688
 3728TIP3    H232820   6.547   4.598   8.329  1.5300  0.2191  1.0280
 3729TIP3   OH232821   6.425   7.290   0.223  0.1939 -0.2414 -0.5797
 3729TIP3    H132822   6.379   7.230   0.164 -1.2887  1.2585 -1.0147
 3729TIP3    H232823   6.356   7.348   0.257  1.5453  1.1415 -0.1164
 3730TIP3   OH232824   6.498   4.687   7.107  0.2030  0.6848  0.2364
 3730TIP3    H132825   6.479   4.760   7.167 -0.0514  0.1117  0.8558
 3730TIP3    H232826   6.592   4.670   7.120  0.2989  0.9985 -0.0252
 3731TIP3   OH232827   6.215   4.861   7.691  0.6824  0.1022 -0.0243
 3731TIP3    H132828   6.270   4.814   7.753  0.7510 -0.8735 -0.8172
 3731TIP3    H232829   6.260   4.945   7.677  2.0582 -0.7325 -0.7675
 3732TIP3   OH232830   0.501   6.798   0.657 -0.6347  0.3045 -0.3882
 3732TIP3    H132831   0.589   6.799   0.696 -0.5954 -0.3164 -0.4596
 3732TIP3    H232832   0.481   6.890   0.641 -0.5787  0.5594  0.9591
 3733TIP3   OH232833   4.618   0.472   1.590 -0.5160  0.0143 -0.4290
 3733TIP3    H132834   4.565   0.533   1.539 -0.5614  0.0350 -0.3576
 3733TIP3    H232835   4.553   0.415   1.632 -0.5537  1.0920  1.0028
 3734TIP3   OH232836   0.275   6.674   0.725  0.2174 -0.7575  0.4945
 3734TIP3    H132837   0.265   6.739   0.794  0.8194  0.0989 -0.2149
 3734TIP3    H232838   0.355   6.700   0.679  0.3282 -1.8551  0.0542
 3735TIP3   OH232839   6.215   0.795   2.088  0.7568  0.0428 -0.1269
 3735TIP3    H132840   6.239   0.769   2.177  0.3135 -0.8029 -0.2436
 3735TIP3    H232841   6.119   0.787   2.086  0.7810 -0.1482 -0.7384
 3736TIP3   OH232842   4.614   3.798   0.144  0.4193 -0.3250  0.6160
 3736TIP3    H132843   4.543   3.845   0.187  0.0024 -0.5031  0.1347
 3736TIP3    H232844   4.581   3.708   0.137  0.1687 -0.1385 -0.7380
 3737TIP3   OH232845   4.608   0.965   1.216 -0.3185  0.3566  0.2749
 3737TIP3    H132846   4.534   0.945   1.158 -0.6487  1.7247  0.2132
 3737TIP3    H232847   4.568   1.011   1.290  0.0552 -1.6699  1.7875
 3738TIP3   OH232848   4.412   0.360   7.039 -0.0462 -1.1079  0.2752
 3738TIP3    H132849   4.365   0.297   7.094  2.6292 -2.0182  1.5661
 3738TIP3    H232850   4.487   0.312   7.005  1.8955  1.2455  1.0443
 3739TIP3   OH232851   5.233   3.365   0.870  0.0909 -0.0237 -0.4836
 3739TIP3    H132852   5.228   3.359   0.966  1.1279 -1.5062 -0.5038
 3739TIP3    H232853   5.174   3.296   0.839  1.4519 -1.0228 -0.8879
 3740TIP3   OH232854   7.028   0.120   7.791 -0.2307 -0.2760 -0.0578
 3740TIP3    H132855   7.067   0.097   7.707 -0.0718  0.2704 -0.1393
 3740TIP3    H232856   7.100   0.109   7.854  0.0737  0.7379 -0.2086
 3741TIP3   OH232857   7.207   5.298   7.121 -0.1294  0.1142 -0.2002
 3741TIP3    H132858   7.300   5.309   7.106  0.0007 -0.0510  0.4698
 3741TIP3    H232859   7.192   5.204   7.114 -0.1280  0.0722  0.3434
 3742TIP3   OH232860   7.134   3.266   1.359 -0.0220 -0.6030 -0.0137
 3742TIP3    H132861   7.111   3.339   1.416 -0.7067  0.4449 -1.5864
 3742TIP3    H232862   7.212   3.228   1.399  3.2526  3.9379 -1.6902
 3743TIP3   OH232863   5.312   5.407   7.332  0.0755 -0.2697 -0.0991
 3743TIP3    H132864   5.317   5.461   7.253 -2.5668 -1.1135 -0.8928
 3743TIP3    H232865   5.244   5.449   7.385  1.1931 -0.2361  1.3244
 3744TIP3   OH232866   6.835   6.370   6.217  0.7175 -0.0301  0.3754
 3744TIP3    H132867   6.858   6.321   6.138 -1.4266  1.2489 -1.1190
 3744TIP3    H232868   6.839   6.306   6.288  1.0987 -1.5762 -1.0122
 3745TIP3   OH232869   0.408   1.379   6.580 -0.0941 -0.2988  0.0872
 3745TIP3    H132870   0.367   1.335   6.505  2.4318  0.8646 -2.0785
 3745TIP3    H232871   0.338   1.434   6.616 -1.3329 -0.8030 -1.4816
 3746TIP3   OH232872   4.139   5.169   1.892 -0.5806 -0.0700  0.3839
 3746TIP3    H132873   4.098   5.144   1.809  0.8738  1.2669 -0.7817
 3746TIP3    H232874   4.115   5.261   1.903  1.0013  0.3518  0.3498
 3747TIP3   OH232875   6.523   3.065   6.903  0.2136 -0.0529 -0.3713
 3747TIP3    H132876   6.558   3.050   6.991  0.5535 -1.7681 -0.7705
 3747TIP3    H232877   6.575   3.138   6.869 -0.4435  1.1487  1.1149
 3748TIP3   OH232878   0.501   1.311   2.377 -0.3590 -0.0856  0.1469
 3748TIP3    H132879   0.409   1.300   2.353 -0.7630  1.4708  0.9044
 3748TIP3    H232880   0.498   1.348   2.465  0.9984 -0.1309  0.2115
 3749TIP3   OH232881   1.176   1.598   2.376  0.1305  0.4160 -0.5562
 3749TIP3    H132882   1.153   1.672   2.320 -1.0360  0.5972  0.1243
 3749TIP3    H232883   1.193   1.637   2.462  1.1202  0.0643 -0.5888
 3750TIP3   OH232884   4.862   7.114   8.167  0.4826 -0.3688 -0.5806
 3750TIP3    H132885   4.951   7.080   8.174 -0.2276 -2.5715 -1.5165
 3750TIP3    H232886   4.806   7.039   8.188 -1.1531  1.2554  1.0572
 3751TIP3   OH232887   2.782   2.758   8.374  0.2419  0.3718 -0.5947
 3751TIP3    H132888   2.807   2.727   8.461 -1.5291  0.6558  0.0259
 3751TIP3    H232889   2.703   2.709   8.353  0.3009  0.7775 -1.7790
 3752TIP3   OH232890   0.902   5.791   7.928  0.4755  0.7028  0.0143
 3752TIP3    H132891   0.895   5.758   7.839 -0.6454  0.6340  0.1277
 3752TIP3    H232892   0.946   5.721   7.977 -2.2557 -0.8680  0.3576
 3753TIP3   OH232893   6.134   6.859   8.314  0.1645 -0.3796  0.0976
 3753TIP3    H132894   6.210   6.801   8.322  0.7444  0.2449 -0.7402
 3753TIP3    H232895   6.170   6.947   8.319 -0.6035 -0.0852  0.4882
 3754TIP3   OH232896   3.777   2.201   1.820 -1.1087 -0.2543 -0.6163
 3754TIP3    H132897   3.735   2.276   1.777 -0.2259  0.4643 -0.2636
 3754TIP3    H232898   3.714   2.171   1.885 -1.2029  0.6173 -0.3006
 3755TIP3   OH232899   5.182   1.750   7.796 -0.0044  0.5391 -0.1395
 3755TIP3    H132900   5.149   1.727   7.883 -0.3327  1.4540 -0.0164
 3755TIP3    H232901   5.106   1.790   7.752  0.3949  0.8463 -0.5481
 3756TIP3   OH232902   1.131   0.381   0.991 -0.2166  0.1682  0.0679
 3756TIP3    H132903   1.169   0.330   1.063 -0.3517 -0.4098 -0.2727
 3756TIP3    H232904   1.125   0.320   0.918  1.0160  1.0625 -0.8064
 3757TIP3   OH232905   3.771   5.253   8.451  0.3236 -0.1074 -0.3355
 3757TIP3    H132906   3.688   5.295   8.428  0.2167 -0.7245 -1.1087
 3757TIP3    H232907   3.762   5.230   8.543 -0.4763 -0.4162 -0.4892
 3758TIP3   OH232908   1.332   4.562   1.607 -0.7524  0.0524 -0.0141
 3758TIP3    H132909   1.385   4.496   1.653 -0.3973  1.6002  1.8705
 3758TIP3    H232910   1.243   4.529   1.612 -0.4517 -0.7582  0.0743
 3759TIP3   OH232911   5.569   0.706   2.077  0.7776 -0.7606  0.0143
 3759TIP3    H132912   5.487   0.695   2.125  0.8647  0.3170  0.4166
 3759TIP3    H232913   5.637   0.699   2.144  0.8948  0.8430  0.0697
 3760TIP3   OH232914   5.030   6.458   1.874  0.3496 -0.3757  0.1167
 3760TIP3    H132915   4.982   6.499   1.802  1.0273 -0.0667 -0.1681
 3760TIP3    H232916   5.007   6.509   1.951  0.3887 -0.0983 -0.0560
 3761TIP3   OH232917   3.286   0.373   2.068  0.4263 -0.0630  0.0133
 3761TIP3    H132918   3.266   0.462   2.098 -1.4378 -0.0619 -1.2009
 3761TIP3    H232919   3.232   0.317   2.124  1.7693 -0.4619  0.9292
 3762TIP3   OH232920   2.518   6.948   6.918  0.5565 -0.2218 -0.3664
 3762TIP3    H132921   2.598   6.989   6.951  0.4202 -0.1291 -0.1530
 3762TIP3    H232922   2.506   6.870   6.973  0.8274 -0.5646 -0.7835
 3763TIP3   OH232923   4.490   0.309   1.331 -0.3388  0.3234  0.2934
 3763TIP3    H132924   4.520   0.388   1.286  1.3294 -0.4497 -0.0110
 3763TIP3    H232925   4.398   0.325   1.349 -1.0470  0.7189 -3.3099
 3764TIP3   OH232926   4.565   1.750   0.649 -1.0282  0.0881 -0.2982
 3764TIP3    H132927   4.504   1.823   0.661  0.2437  0.9410  1.2401
 3764TIP3    H232928   4.576   1.744   0.554 -0.5922  2.4035 -0.4335
 3765TIP3   OH232929   1.312   4.409   7.401  0.0719  0.1076 -0.2735
 3765TIP3    H132930   1.223   4.394   7.434  0.1067 -0.8063 -0.5839
 3765TIP3    H232931   1.335   4.496   7.434 -0.2480 -0.3851  1.3046
 3766TIP3   OH232932   0.237   1.232   2.350 -0.3203 -0.0653 -0.4025
 3766TIP3    H132933   0.264   1.141   2.344 -0.6964 -0.1575 -0.7198
 3766TIP3    H232934   0.185   1.237   2.430  2.8699  0.6926  1.6851
 3767TIP3   OH232935   2.891   6.170   1.968  0.0433  0.2730 -0.5993
 3767TIP3    H132936   2.827   6.178   2.038  1.4543 -0.3333  0.7934
 3767TIP3    H232937   2.903   6.259   1.935 -1.9211  0.3067 -1.2619
 3768TIP3   OH232938   0.793   5.297   0.250  0.3897 -0.1605  0.3617
 3768TIP3    H132939   0.816   5.274   0.160 -0.3319 -0.7186  0.3133
 3768TIP3    H232940   0.791   5.392   0.251 -2.3895 -0.1474 -0.9536
 3769TIP3   OH232941   4.594   3.896   1.771  0.2110  0.2894 -0.0166
 3769TIP3    H132942   4.591   3.962   1.702  1.7149 -0.2860 -0.6514
 3769TIP3    H232943   4.507   3.901   1.813  0.3545  2.7716  0.0689
 3770TIP3   OH232944   4.106   1.265   0.635  0.4517  0.3614  0.7910
 3770TIP3    H132945   4.017   1.297   0.650  0.4478  1.1502 -0.7803
 3770TIP3    H232946   4.098   1.170   0.633 -1.0614  0.4874 -3.2386
 3771TIP3   OH232947   5.706   2.057   1.262 -0.2210 -0.1940  0.2538
 3771TIP3    H132948   5.637   2.065   1.328  0.2021  0.0087  0.6753
 3771TIP3    H232949   5.788   2.061   1.313  0.0977 -0.5926 -0.2210
 3772TIP3   OH232950   5.234   2.175   6.881  0.9669 -0.3099  0.4428
 3772TIP3    H132951   5.232   2.183   6.977  1.2155  0.8673  0.3533
 3772TIP3    H232952   5.166   2.235   6.850  1.2529 -0.2848 -0.1412
 3773TIP3   OH232953   0.985   6.289   1.028 -0.0363 -0.2092  0.1677
 3773TIP3    H132954   1.017   6.213   1.076 -2.0578 -1.2462 -0.0671
 3773TIP3    H232955   0.950   6.347   1.095  0.9967  0.2717  0.2979
 3774TIP3   OH232956   4.893   5.794   7.794 -0.1965 -0.1263 -0.0355
 3774TIP3    H132957   4.823   5.860   7.790 -0.5899 -0.5542 -0.2580
 3774TIP3    H232958   4.953   5.827   7.861 -1.2494 -0.3754  1.0533
 3775TIP3   OH232959   1.446   5.750   0.424 -0.1577 -0.0520  0.7848
 3775TIP3    H132960   1.510   5.753   0.495  0.1920  0.7144  0.4424
 3775TIP3    H232961   1.492   5.787   0.348 -0.7899 -0.1064  0.3669
 3776TIP3   OH232962   6.830   2.103   1.662 -0.5575  0.1429  0.1007
 3776TIP3    H132963   6.920   2.110   1.693 -0.3815  0.0291 -0.3667
 3776TIP3    H232964   6.777   2.140   1.732  0.0528  2.9081 -0.8271
 3777TIP3   OH232965   0.559   6.894   2.087  0.4589 -0.0333  0.3677
 3777TIP3    H132966   0.636   6.929   2.042  0.8867 -1.9771 -0.4746
 3777TIP3    H232967   0.591   6.869   2.174  0.7325 -0.6791  0.0792
 3778TIP3   OH232968   3.037   2.279   0.015  0.4502  0.1902  0.6018
 3778TIP3    H132969   3.094   2.206  -0.007  0.4794  0.4289 -0.1638
 3778TIP3    H232970   2.949   2.242   0.015  0.2149  0.6208 -2.1848
 3779TIP3   OH232971   3.531   2.477   7.073 -0.0417  0.2622 -0.1135
 3779TIP3    H132972   3.589   2.461   7.148 -0.5953  0.0577  0.2713
 3779TIP3    H232973   3.444   2.490   7.112 -1.1835 -4.0122 -0.9674
 3780TIP3   OH232974   4.391   4.378   8.226  0.0916 -0.3926  0.0964
 3780TIP3    H132975   4.333   4.422   8.164  0.0531 -0.3541  0.1601
 3780TIP3    H232976   4.431   4.449   8.277 -1.1820 -0.4942  1.2771
 3781TIP3   OH232977   4.190   2.072   0.794 -0.1962 -0.3592  0.1570
 3781TIP3    H132978   4.133   2.135   0.749  0.2762 -1.0433 -1.4054
 3781TIP3    H232979   4.247   2.127   0.848 -0.1866  0.5228 -0.7276
 3782TIP3   OH232980   1.277   6.779   0.122  0.5997  0.3900  0.4249
 3782TIP3    H132981   1.193   6.740   0.146  0.6537  0.0584  0.0897
 3782TIP3    H232982   1.338   6.746   0.187  0.5009  0.5108  0.5800
 3783TIP3   OH232983   3.212   3.127   1.845 -0.3815  0.0269 -0.4683
 3783TIP3    H132984   3.160   3.187   1.898 -0.5447 -1.7759  1.4705
 3783TIP3    H232985   3.152   3.095   1.778 -1.6569 -1.6036  1.4054
 3784TIP3   OH232986   0.895   6.008   0.108 -0.1387  0.0894 -0.0775
 3784TIP3    H132987   0.802   5.986   0.117 -0.8451  1.9915 -2.0607
 3784TIP3    H232988   0.930   5.941   0.050 -0.4537 -0.2318  0.1027
 3785TIP3   OH232989   0.241   2.781   2.739 -0.1778  0.0434  0.0057
 3785TIP3    H132990   0.280   2.859   2.780  0.7085  0.2297 -1.1668
 3785TIP3    H232991   0.217   2.810   2.651  2.7746 -1.7325 -1.4632
 3786TIP3   OH232992   5.916   0.826   1.658 -0.3443  0.1259  0.0064
 3786TIP3    H132993   5.868   0.885   1.716 -1.4359 -0.1892 -0.5752
 3786TIP3    H232994   6.008   0.851   1.670 -0.7595  1.6382  0.1137
 3787TIP3   OH232995   1.927   6.051   1.290  0.6542  0.1781 -0.2267
 3787TIP3    H132996   2.010   6.005   1.302 -0.7205 -3.2435 -2.9724
 3787TIP3    H232997   1.949   6.127   1.237  2.1580 -0.1226 -0.0610
 3788TIP3   OH232998   5.817   6.506   1.200  0.2350  0.0054 -0.5841
 3788TIP3    H132999   5.783   6.425   1.164  0.2561  0.1310 -0.8842
 3788TIP3    H233000   5.837   6.485   1.292 -0.1029 -0.2234 -0.5648
 3789TIP3   OH233001   0.846   7.249   1.976 -0.5626 -0.0071 -0.0384
 3789TIP3    H133002   0.822   7.324   1.921 -0.4635  0.0336 -0.0262
 3789TIP3    H233003   0.881   7.288   2.056 -0.9287 -0.0688  0.1517
 3790TIP3   OH233004   0.637   2.942   2.266 -0.4210  0.5952 -0.5604
 3790TIP3    H133005   0.647   3.037   2.254 -0.3937  0.6657 -0.0026
 3790TIP3    H233006   0.553   2.933   2.310 -0.0650  0.4108  0.0790
 3791TIP3   OH233007   3.592   5.390   1.249 -0.0718  0.4350 -0.5509
 3791TIP3    H133008   3.677   5.345   1.243  0.2887  1.0103  0.1124
 3791TIP3    H233009   3.615   5.483   1.254 -0.7270  0.5734 -0.0328
 3792TIP3   OH233010   2.831   6.302   6.940  0.4538  0.1062 -0.1877
 3792TIP3    H133011   2.920   6.290   6.907  0.9238 -0.9441  1.4131
 3792TIP3    H233012   2.787   6.354   6.872  2.3328  0.8184 -0.8895
 3793TIP3   OH233013   3.647   3.939   1.987  0.3303 -0.0139 -0.3130
 3793TIP3    H133014   3.702   4.001   2.035  0.8562 -1.7789  1.4011
 3793TIP3    H233015   3.701   3.911   1.914  0.8983 -0.0708  0.1220
 3794TIP3   OH233016   6.287   0.922   0.051 -0.0891 -0.5880  0.2091
 3794TIP3    H133017   6.357   0.863   0.079 -0.3291 -0.9351  0.0660
 3794TIP3    H233018   6.206   0.878   0.076 -0.3015 -0.7590 -0.7694
 3795TIP3   OH233019   0.341   5.554   0.357 -0.3915 -0.6695 -0.4140
 3795TIP3    H133020   0.258   5.558   0.310 -0.0693  0.6259 -0.8973
 3795TIP3    H233021   0.322   5.503   0.436 -1.0317 -2.5784 -1.7432
 3796TIP3   OH233022   6.105   7.024   7.732 -0.2509 -0.0071  0.8581
 3796TIP3    H133023   6.017   7.060   7.740 -0.4563 -0.5551  1.1264
 3796TIP3    H233024   6.156   7.093   7.691 -0.9257  0.1310  0.2395
 3797TIP3   OH233025   6.369   6.540   1.250  0.0313  0.2139  0.0317
 3797TIP3    H133026   6.456   6.565   1.280 -0.1982  0.7006  0.3114
 3797TIP3    H233027   6.309   6.591   1.305 -0.4625 -1.3436  0.9690
 3798TIP3   OH233028   2.133   4.845   1.814 -0.3154 -0.3687  0.4949
 3798TIP3    H133029   2.184   4.784   1.762  0.0138 -0.0446  0.4356
 3798TIP3    H233030   2.141   4.813   1.904  0.1265 -0.2235  0.5064
 3799TIP3   OH233031   6.586   4.654   0.173 -0.0410 -0.0219  0.0554
 3799TIP3    H133032   6.600   4.560   0.177  1.7262  0.2755  1.4691
 3799TIP3    H233033   6.641   4.684   0.100 -1.0333 -0.1327 -0.7571
 3800TIP3   OH233034   4.044   2.963   7.180  0.3918 -0.0058 -0.2118
 3800TIP3    H133035   4.018   3.036   7.123  0.6255 -2.0210 -2.9512
 3800TIP3    H233036   4.130   2.988   7.213 -0.5884  2.0742  0.8667
 3801TIP3   OH233037   3.292   0.106   0.545 -1.0772  0.6905 -0.4882
 3801TIP3    H133038   3.205   0.096   0.585  0.1710  1.0928  2.4694
 3801TIP3    H233039   3.337   0.168   0.602  2.0871 -1.6197 -0.3815
 3802TIP3   OH233040   1.702   1.472   2.570 -0.8245  0.4427  0.1562
 3802TIP3    H133041   1.763   1.469   2.644  0.5771  0.5576 -0.9623
 3802TIP3    H233042   1.745   1.420   2.502 -3.0406 -1.3703  0.0963
 3803TIP3   OH233043   1.425   0.696   1.600 -0.3845  0.0217 -0.5861
 3803TIP3    H133044   1.344   0.746   1.594 -0.4877 -0.0194  0.2953
 3803TIP3    H233045   1.435   0.655   1.515 -0.5608  1.1443 -1.1591
 3804TIP3   OH233046   3.562   7.084   7.772  0.0525 -0.2779 -0.1479
 3804TIP3    H133047   3.508   7.163   7.765 -0.9938 -0.8904  0.8572
 3804TIP3    H233048   3.597   7.071   7.684 -1.1356  0.3478 -0.7313
 3805TIP3   OH233049   0.344   5.952   2.305  0.4874 -0.2299 -0.6515
 3805TIP3    H133050   0.331   5.886   2.373  1.1119  1.5262  1.2541
 3805TIP3    H233051   0.435   5.979   2.316  0.6510 -0.0827 -2.3523
 3806TIP3   OH233052   1.781   7.114   7.899  0.7337  0.2244 -0.3084
 3806TIP3    H133053   1.850   7.180   7.890  1.6576 -0.6015  0.5939
 3806TIP3    H233054   1.779   7.095   7.993 -2.3953  2.0014  0.0400
 3807TIP3   OH233055   2.442   0.961   7.218 -0.2634 -0.5172 -0.7847
 3807TIP3    H133056   2.371   0.903   7.245 -2.4865  1.5261 -2.0625
 3807TIP3    H233057   2.448   0.949   7.123  1.3295 -0.8949 -0.6513
 3808TIP3   OH233058   0.551   6.499   6.799 -0.0089  0.4338 -0.4111
 3808TIP3    H133059   0.517   6.584   6.771 -0.6774 -0.5075 -2.4954
 3808TIP3    H233060   0.643   6.500   6.773 -0.1542  0.3004 -0.9255
 3809TIP3   OH233061   2.208   2.343   1.353 -0.3995 -0.3732  0.6651
 3809TIP3    H133062   2.112   2.336   1.353 -0.2794 -2.3942 -0.4468
 3809TIP3    H233063   2.235   2.294   1.430 -0.2241 -0.2165  0.7026
 3810TIP3   OH233064   2.506   0.675   7.021 -0.2960  0.0765 -0.0109
 3810TIP3    H133065   2.564   0.750   7.035 -1.5396  1.3450 -1.4955
 3810TIP3    H233066   2.499   0.668   6.925  0.3435 -2.3700  0.0805
 3811TIP3   OH233067   4.915   1.121   0.791 -0.3117  0.1277  0.6191
 3811TIP3    H133068   4.916   1.061   0.865  1.0888 -0.7748 -0.1239
 3811TIP3    H233069   4.851   1.084   0.730  2.6859 -2.2705 -1.1691
 3812TIP3   OH233070   5.484   2.281   6.875 -0.3293 -0.0026  0.5972
 3812TIP3    H133071   5.404   2.228   6.883 -1.0565  0.9756 -0.0444
 3812TIP3    H233072   5.546   2.224   6.831 -0.1753 -1.3026  2.4647
 3813TIP3   OH233073   1.955   4.852   8.260 -0.0315 -0.2271  0.3326
 3813TIP3    H133074   1.992   4.882   8.178  0.2362 -0.1217  0.4912
 3813TIP3    H233075   1.864   4.830   8.239  0.2381 -0.9012 -0.1549
 3814TIP3   OH233076   2.403   5.102   7.675 -0.1076 -0.4852  0.3996
 3814TIP3    H133077   2.428   5.083   7.765  0.0866  0.0401  0.4605
 3814TIP3    H233078   2.311   5.130   7.681 -0.3803 -1.3438  0.3158
 3815TIP3   OH233079   7.118   6.285   6.108 -0.0911 -0.1105  0.0970
 3815TIP3    H133080   7.081   6.363   6.150 -0.4776 -0.3580  0.2176
 3815TIP3    H233081   7.135   6.225   6.181 -1.0738 -0.6726 -0.1176
 3816TIP3   OH233082   7.103   0.812   1.937  0.2479 -0.9866 -0.2265
 3816TIP3    H133083   7.069   0.722   1.934  0.1602 -0.9589 -0.0640
 3816TIP3    H233084   7.055   0.858   1.868 -0.4211 -0.8179  0.3494
 3817TIP3   OH233085   0.660   5.852   0.546 -0.1661  0.2755  0.1525
 3817TIP3    H133086   0.666   5.859   0.641 -0.1074  0.9163  0.1010
 3817TIP3    H233087   0.637   5.940   0.516  0.7777  0.3077 -0.4976
 3818TIP3   OH233088   1.773   7.243   1.812  0.3871 -0.0243 -0.1781
 3818TIP3    H133089   1.856   7.195   1.815  0.0367 -0.7553 -1.9857
 3818TIP3    H233090   1.787   7.319   1.869  1.6652 -1.1139  1.0053
 3819TIP3   OH233091   0.040   4.425   8.355  0.5075 -0.2785  0.0078
 3819TIP3    H133092   0.016   4.333   8.361  1.7060 -0.5872  0.1117
 3819TIP3    H233093  -0.043   4.472   8.363  0.0071 -1.3099  1.0028
 3820TIP3   OH233094   6.431   6.897   8.003 -0.1685 -0.0888 -0.2776
 3820TIP3    H133095   6.398   6.968   7.949  1.6016  1.0287  0.0532
 3820TIP3    H233096   6.521   6.923   8.025 -0.3032 -1.2752  1.8621
 3821TIP3   OH233097   2.464   6.099   0.982  0.3347  0.3465 -0.2223
 3821TIP3    H133098   2.533   6.043   0.944  0.1420  0.5708 -0.9024
 3821TIP3    H233099   2.501   6.128   1.066  1.2291  0.7728 -0.7523
 3822TIP3   OH233100   6.551   7.191   2.263  0.2875 -0.5048 -0.0418
 3822TIP3    H133101   6.594   7.250   2.325  2.9204 -1.6045 -0.7505
 3822TIP3    H233102   6.498   7.133   2.318  0.1751  0.4940  0.9100
 3823TIP3   OH233103   7.197   6.578   7.302  0.1249  0.0928  0.4399
 3823TIP3    H133104   7.283   6.560   7.262  0.2836  1.8104 -0.0328
 3823TIP3    H233105   7.134   6.557   7.233  0.3554  2.1819 -0.4327
 3824TIP3   OH233106   2.748   3.109   1.686  0.1977 -0.0976 -0.1042
 3824TIP3    H133107   2.752   3.088   1.779  1.5569  0.1896 -0.0864
 3824TIP3    H233108   2.709   3.032   1.645 -0.9135  0.0006  0.7655
 3825TIP3   OH233109   0.913   0.502   1.081 -0.5225  0.3704 -0.8459
 3825TIP3    H133110   0.985   0.464   1.031 -0.2790  1.3668 -1.2636
 3825TIP3    H233111   0.867   0.426   1.118  0.2404 -0.3044 -1.2607
 3826TIP3   OH233112   4.656   0.945   7.305  0.6490  0.5308 -0.1912
 3826TIP3    H133113   4.648   0.944   7.400 -0.5940 -0.7669 -0.2902
 3826TIP3    H233114   4.627   1.033   7.279 -0.5474  0.3446  0.5117
 3827TIP3   OH233115   6.302   0.837   1.384 -0.0128  0.5439 -0.1258
 3827TIP3    H133116   6.277   0.782   1.458  1.7524 -0.5033 -0.2575
 3827TIP3    H233117   6.262   0.794   1.308  0.6381 -0.0882 -0.1217
 3828TIP3   OH233118   2.592   6.751   0.492  0.1506 -0.2247  0.3166
 3828TIP3    H133119   2.531   6.724   0.560 -0.2875  0.5965  0.2503
 3828TIP3    H233120   2.671   6.698   0.508  0.1010  0.0620  1.5325
 3829TIP3   OH233121   1.517   1.691   2.570 -0.0171 -0.8745  0.5019
 3829TIP3    H133122   1.582   1.760   2.558  0.5215 -1.5767 -0.7327
 3829TIP3    H233123   1.568   1.610   2.568 -0.4607 -1.2881  3.2362
 3830TIP3   OH233124   2.489   6.452   7.496  0.5145 -0.5695 -0.2217
 3830TIP3    H133125   2.584   6.461   7.489  0.5626 -0.0180  0.9768
 3830TIP3    H233126   2.455   6.492   7.416  1.3175 -1.2937 -0.9257
 3831TIP3   OH233127   2.119   1.979   2.073 -0.0835  0.2714 -0.2505
 3831TIP3    H133128   2.109   1.976   2.168 -0.0326  0.6474 -0.2302
 3831TIP3    H233129   2.135   1.889   2.047  1.2300  0.3517  0.2505
 3832TIP3   OH233130   0.767   2.807   2.086  0.2882 -0.1583  0.1373
 3832TIP3    H133131   0.730   2.875   2.142 -1.4953  0.2479 -1.4744
 3832TIP3    H233132   0.728   2.725   2.119  1.0648 -0.2081  0.9542
 3833TIP3   OH233133   1.404   6.932   8.076  0.3824 -0.4539 -0.4540
 3833TIP3    H133134   1.440   6.845   8.063  1.0970 -0.5259  1.6888
 3833TIP3    H233135   1.316   6.916   8.109  0.1562 -0.3494 -1.0087
 3834TIP3   OH233136   5.358   6.811   8.056 -0.1255 -0.1512  0.4697
 3834TIP3    H133137   5.316   6.889   8.091  0.9391 -0.0456  1.5611
 3834TIP3    H233138   5.411   6.843   7.983 -2.1389 -0.3283 -1.0817
 3835TIP3   OH233139   1.383   6.641   6.606 -0.2690 -0.6078 -0.0792
 3835TIP3    H133140   1.460   6.634   6.548 -0.5965 -3.3039 -0.2618
 3835TIP3    H233141   1.314   6.676   6.550  0.4480  0.4900 -0.2901
 3836TIP3   OH233142   7.124   6.102   1.346 -0.6175 -0.0326  0.2000
 3836TIP3    H133143   7.190   6.069   1.407 -1.2013 -0.2375  0.7264
 3836TIP3    H233144   7.062   6.150   1.401 -0.0098  1.5796 -0.5028
 3837TIP3   OH233145   6.874   1.059   1.440 -0.0118  0.0136 -0.0643
 3837TIP3    H133146   6.907   1.131   1.494  0.7433 -0.6945  0.4134
 3837TIP3    H233147   6.852   1.101   1.357  0.5758  0.7741  0.1570
 3838TIP3   OH233148   2.435   4.021   0.016 -0.3853 -0.0069  0.1981
 3838TIP3    H133149   2.503   3.988   0.075 -1.3455 -0.7942  0.8789
 3838TIP3    H233150   2.370   4.060   0.074  1.3349  4.3775 -0.6337
 3839TIP3   OH233151   1.234   6.582   1.015  0.5340 -0.1235  0.1604
 3839TIP3    H133152   1.234   6.502   1.067 -0.6008 -0.3846 -0.2208
 3839TIP3    H233153   1.159   6.632   1.049 -0.2437 -0.3088 -1.2302
 3840TIP3   OH233154   1.179   1.141   2.392  0.0064  0.0430 -0.4648
 3840TIP3    H133155   1.208   1.094   2.314  0.3716  0.8312 -0.8105
 3840TIP3    H233156   1.152   1.072   2.453  0.1089 -0.5913 -1.1300
 3841TIP3   OH233157   3.640   2.314   6.887  0.2385 -0.4394 -0.3618
 3841TIP3    H133158   3.589   2.394   6.899 -0.7666 -0.9171 -1.3555
 3841TIP3    H233159   3.731   2.341   6.901 -0.0853  0.8884 -0.7960
 3842TIP3   OH233160   3.598   6.691   1.128  0.0262 -0.3812 -0.3612
 3842TIP3    H133161   3.680   6.642   1.127 -0.1792 -0.7304 -0.0084
 3842TIP3    H233162   3.622   6.779   1.096  0.6821 -0.2478  0.4877
 3843TIP3   OH233163   2.875   6.772   1.412  0.6306 -0.0606  0.0675
 3843TIP3    H133164   2.912   6.793   1.499 -0.9496  1.5763  0.3713
 3843TIP3    H233165   2.909   6.841   1.355 -2.1943  1.6805  0.4267
 3844TIP3   OH233166   1.503   4.022   0.569  0.5817  0.6663  0.2169
 3844TIP3    H133167   1.443   4.096   0.581  0.6431  0.5386  1.3365
 3844TIP3    H233168   1.528   3.996   0.658 -0.6405 -1.6921 -0.1098
 3845TIP3   OH233169   0.633   2.610   2.217  0.8056  0.5279  0.1873
 3845TIP3    H133170   0.620   2.571   2.303 -1.1013  0.9831  0.1278
 3845TIP3    H233171   0.545   2.625   2.184  1.5201  0.2683 -1.8960
 3846TIP3   OH233172   6.821   4.749   0.775 -0.1637 -0.2161 -0.6966
 3846TIP3    H133173   6.812   4.699   0.856 -1.0954  0.1107 -0.5940
 3846TIP3    H233174   6.731   4.770   0.750  0.2144  1.8092 -0.4717
 3847TIP3   OH233175   0.516   1.664   2.155  0.1561  0.4348 -0.4773
 3847TIP3    H133176   0.423   1.645   2.160  0.0892  0.2655 -2.0197
 3847TIP3    H233177   0.559   1.579   2.163  0.1159  0.3482 -1.1597
 3848TIP3   OH233178   2.183   0.715   1.562  0.1561  0.1817 -0.6391
 3848TIP3    H133179   2.090   0.701   1.583  0.5677 -0.6003  0.7015
 3848TIP3    H233180   2.224   0.630   1.580  1.3908  0.9526  0.2098
 3849TIP3   OH233181   6.675   3.702   0.740 -0.1504  0.4138 -0.7364
 3849TIP3    H133182   6.604   3.734   0.796  0.4796  0.5025  0.0242
 3849TIP3    H233183   6.649   3.727   0.651 -2.1731 -1.5715 -0.7327
 3850TIP3   OH233184   0.825   2.866   1.446 -0.1846  0.1930 -0.0206
 3850TIP3    H133185   0.847   2.941   1.391 -0.1003  0.1087 -0.1019
 3850TIP3    H233186   0.736   2.884   1.477  0.4225  1.0790  1.2375
 3851TIP3   OH233187   4.786   0.291   7.057 -0.0501 -0.3922 -0.2311
 3851TIP3    H133188   4.702   0.258   7.026 -0.1951  0.4986 -0.8101
 3851TIP3    H233189   4.802   0.244   7.138 -1.3484 -0.2072  0.1402
 3852TIP3   OH233190   3.602   6.908   0.384  0.0839 -0.6043  0.5042
 3852TIP3    H133191   3.669   6.916   0.451  0.8712 -1.1511 -0.2073
 3852TIP3    H233192   3.538   6.847   0.422  0.7958 -1.3387  0.5549
 3853TIP3   OH233193   3.095   2.595   0.607  0.9915 -0.6262 -0.4159
 3853TIP3    H133194   3.118   2.570   0.696  1.4045  0.9372 -0.0579
 3853TIP3    H233195   3.154   2.545   0.551  0.8530 -1.4782  0.1931
 3854TIP3   OH233196   6.172   1.219   2.013 -0.2262 -0.1842  0.3694
 3854TIP3    H133197   6.091   1.169   2.013  0.4321 -1.2789 -1.3515
 3854TIP3    H233198   6.228   1.173   2.076 -0.2349 -0.5752  0.0892
 3855TIP3   OH233199   1.357   0.057   1.770  0.5109 -0.0076  0.6570
 3855TIP3    H133200   1.358   0.070   1.675  1.5957  1.3328  0.8337
 3855TIP3    H233201   1.266   0.069   1.795  0.3875  0.6259 -0.0876
 3856TIP3   OH233202   2.639   5.964   8.204  0.4652  0.1293 -0.3450
 3856TIP3    H133203   2.715   5.961   8.263  0.6003 -1.9935 -0.6059
 3856TIP3    H233204   2.592   5.882   8.220 -0.6008  0.4435 -1.7345
 3857TIP3   OH233205   2.416   2.520   1.243  0.1110 -0.5944 -0.3843
 3857TIP3    H133206   2.346   2.477   1.293 -0.4709 -1.6008 -1.9842
 3857TIP3    H233207   2.475   2.449   1.219  1.5802  0.2306  0.7796
 3858TIP3   OH233208   6.433   3.659   8.275 -0.4698  0.0433 -0.5086
 3858TIP3    H133209   6.379   3.614   8.210  2.2153 -0.8274 -2.1940
 3858TIP3    H233210   6.483   3.589   8.317 -0.0786  0.9156  0.5173
 3859TIP3   OH233211   0.734   7.204   6.762 -0.0187  0.1795 -0.0277
 3859TIP3    H133212   0.756   7.255   6.840  1.0135 -0.4569  0.0991
 3859TIP3    H233213   0.712   7.270   6.695 -1.2354  0.7162  0.8830
 3860TIP3   OH233214   1.988   0.166   0.528 -0.0647 -0.2421 -0.0679
 3860TIP3    H133215   1.916   0.217   0.564  0.5711  1.1886 -0.7775
 3860TIP3    H233216   1.947   0.106   0.466 -0.6995  0.1807 -0.0623
 3861TIP3   OH233217   1.051   6.123   1.569 -0.4548 -0.3444  0.5947
 3861TIP3    H133218   0.986   6.180   1.609 -0.2132  0.0513  0.4285
 3861TIP3    H233219   1.135   6.164   1.591 -0.3538  0.5068 -1.2585
 3862TIP3   OH233220   0.011   2.686   1.507  0.6725 -0.5876  0.3398
 3862TIP3    H133221  -0.029   2.615   1.457 -0.4535 -0.2313  0.7127
 3862TIP3    H233222  -0.057   2.712   1.570  1.6003 -0.1769  1.1931
 3863TIP3   OH233223   6.599   2.504   1.636 -0.1468  0.2792  0.6977
 3863TIP3    H133224   6.506   2.522   1.623  0.0231  1.0006  0.4679
 3863TIP3    H233225   6.615   2.528   1.727 -0.1493  0.3060  0.6912
 3864TIP3   OH233226   5.529   5.703   6.613 -0.3004  0.4545 -0.1795
 3864TIP3    H133227   5.619   5.723   6.640  0.2686  0.1214 -1.7290
 3864TIP3    H233228   5.495   5.786   6.579 -0.0572  0.2492 -0.9446
 3865TIP3   OH233229   0.452   6.146   1.212 -0.4883 -0.0984  0.1744
 3865TIP3    H133230   0.495   6.066   1.181 -1.5573  0.2043 -2.2558
 3865TIP3    H233231   0.434   6.130   1.304  1.6389 -1.6191  0.3611
 3866TIP3   OH233232   3.922   4.498   7.641 -0.1691 -0.3396 -0.2424
 3866TIP3    H133233   3.877   4.545   7.572 -0.2980 -0.1828 -0.0529
 3866TIP3    H233234   3.979   4.436   7.595 -0.6666 -0.6240 -0.4849
 3867TIP3   OH233235   1.049   6.133   1.278 -0.2350  0.3279 -0.0270
 3867TIP3    H133236   1.029   6.141   1.371  0.1690  0.6567  0.0333
 3867TIP3    H233237   1.130   6.082   1.276  0.4785  1.4509 -0.1359
 3868TIP3   OH233238   2.036   3.279   1.339 -0.2045 -0.0079  0.1328
 3868TIP3    H133239   2.090   3.254   1.264 -1.5251  0.0029 -0.8377
 3868TIP3    H233240   1.946   3.263   1.310 -0.6879 -1.0705  2.1145
 3869TIP3   OH233241   1.791   1.606   1.627 -0.6602  0.4334  0.1003
 3869TIP3    H133242   1.785   1.648   1.713  0.3680 -0.0069  0.3988
 3869TIP3    H233243   1.701   1.582   1.606 -1.0074  1.1382  0.7557
 3870TIP3   OH233244   7.149   4.525   1.531  0.6254  0.3605  0.4368
 3870TIP3    H133245   7.226   4.468   1.526  0.8358  0.6899 -0.1109
 3870TIP3    H233246   7.075   4.464   1.534  0.7821  0.0406 -1.2491
 3871TIP3   OH233247   3.579   3.994   0.506 -0.1958 -0.6345 -0.0131
 3871TIP3    H133248   3.591   4.075   0.457  0.3143  0.8183  2.4247
 3871TIP3    H233249   3.490   3.966   0.485 -1.0708  1.5880  0.5657
 3872TIP3   OH233250   5.719   1.310   2.546 -0.5632  0.5758  0.0537
 3872TIP3    H133251   5.728   1.375   2.616  2.1848 -0.3486  0.6036
 3872TIP3    H233252   5.765   1.233   2.579  0.6455  0.0625 -2.7185
 3873TIP3   OH233253   0.142   5.936   0.363 -0.1879  0.4154 -0.9874
 3873TIP3    H133254   0.058   5.910   0.325 -1.1214  0.7018  0.8522
 3873TIP3    H233255   0.139   6.031   0.367  1.2585  0.5857 -3.2167
 3874TIP3   OH233256   0.191   0.928   2.458  0.2879 -0.4465  0.4313
 3874TIP3    H133257   0.182   0.833   2.456  2.6973 -0.6977 -0.2316
 3874TIP3    H233258   0.280   0.943   2.491 -1.1356  1.6544  3.4949
 3875TIP3   OH233259   1.548   4.490   1.789  0.2546  0.3349 -1.0247
 3875TIP3    H133260   1.635   4.477   1.828  0.3802 -0.2434 -1.5019
 3875TIP3    H233261   1.506   4.554   1.847  0.8163  0.2454 -0.5100
 3876TIP3   OH233262   6.341   2.561   1.761 -0.1899  0.3542  0.2518
 3876TIP3    H133263   6.250   2.534   1.766 -0.5410  1.4373 -0.0435
 3876TIP3    H233264   6.340   2.653   1.786  0.8659  0.2957  0.5409
 3877TIP3   OH233265   0.406   6.177   0.145  0.7516 -0.0866 -0.2435
 3877TIP3    H133266   0.391   6.231   0.223 -0.5878  1.0545 -1.2805
 3877TIP3    H233267   0.321   6.137   0.126  1.0305 -0.2082 -1.2383
 3878TIP3   OH233268   6.697   7.291   1.384 -0.1787  0.2323  0.6492
 3878TIP3    H133269   6.737   7.377   1.369 -1.3822  0.8185  0.6922
 3878TIP3    H233270   6.760   7.229   1.348  0.7140  1.1271  0.6123
 3879TIP3   OH233271   1.651   5.834   8.104  0.3536  0.1330  0.4198
 3879TIP3    H133272   1.634   5.784   8.024  1.5247  0.8948 -0.3229
 3879TIP3    H233273   1.736   5.875   8.089 -0.3429  1.9196  1.2409
 3880TIP3   OH233274   2.248   6.417   7.124 -0.1225  0.4475  0.4388
 3880TIP3    H133275   2.225   6.341   7.070 -3.2992  1.9978 -0.4910
 3880TIP3    H233276   2.208   6.398   7.209 -0.4841  0.8583  0.3584
 3881TIP3   OH233277   2.927   6.359   0.533  0.1151  0.0055  0.0239
 3881TIP3    H133278   3.017   6.354   0.563 -0.3158  2.2165  1.7324
 3881TIP3    H233279   2.882   6.288   0.579  0.6546 -0.1260  0.3446
 3882TIP3   OH233280   4.035   3.625   1.919 -0.6931  0.3688 -0.0741
 3882TIP3    H133281   3.955   3.673   1.944 -0.5319  0.9767 -0.6901
 3882TIP3    H233282   4.035   3.629   1.823  0.2108  0.5992 -0.0656
 3883TIP3   OH233283   0.781   0.151   1.790  0.3329 -0.5193 -0.0155
 3883TIP3    H133284   0.734   0.220   1.744 -0.6718 -1.3350 -0.2083
 3883TIP3    H233285   0.873   0.179   1.788  0.0345  0.3899 -0.8208
 3884TIP3   OH233286   3.293   3.080   8.427  0.3114  0.2486 -0.4539
 3884TIP3    H133287   3.355   3.107   8.360 -0.0697  1.4694 -0.3321
 3884TIP3    H233288   3.212   3.127   8.405  0.5068  1.5487  1.4728
 3885TIP3   OH233289   2.100   3.014   1.967 -0.2298  0.1333 -0.2982
 3885TIP3    H133290   2.028   3.058   2.013 -0.1695 -0.3323  0.2585
 3885TIP3    H233291   2.164   2.997   2.036 -0.2505 -0.8110 -0.5068
 3886TIP3   OH233292   4.210   5.570   0.374 -0.0371 -0.0070  0.0732
 3886TIP3    H133293   4.127   5.521   0.371  0.1596 -0.4687  1.5591
 3886TIP3    H233294   4.184   5.658   0.400 -0.4341  0.8111 -2.9815
 3887TIP3   OH233295   0.380   0.538   1.925  0.5204  0.1992  0.4735
 3887TIP3    H133296   0.463   0.585   1.924  0.2895  0.6548  2.0385
 3887TIP3    H233297   0.378   0.495   2.011 -0.1187 -1.1416 -0.2001
 3888TIP3   OH233298   5.008   3.455   1.342  0.2195  0.2615  0.5128
 3888TIP3    H133299   4.922   3.418   1.365  0.2917  0.4215  1.0532
 3888TIP3    H233300   5.058   3.449   1.423  0.5897  0.5376  0.3013
 3889TIP3   OH233301   1.286   0.851   0.994  0.5035 -0.6606  0.6801
 3889TIP3    H133302   1.211   0.828   1.049  0.0044 -0.7411 -0.0255
 3889TIP3    H233303   1.248   0.896   0.919  1.1016 -1.2039  0.0398
 3890TIP3   OH233304   0.545   7.164   7.360 -0.2824 -0.0923 -0.2026
 3890TIP3    H133305   0.499   7.121   7.288  2.7833  0.7136 -2.7811
 3890TIP3    H233306   0.577   7.246   7.322 -1.9217  2.2748  3.2629
 3891TIP3   OH233307   6.024   0.869   0.606 -0.3913 -0.1303 -0.4569
 3891TIP3    H133308   6.062   0.856   0.519 -0.3202  0.9342 -0.5929
 3891TIP3    H233309   5.930   0.877   0.590 -0.4768 -0.8763 -0.3301
 3892TIP3   OH233310   6.697   6.040   7.872  0.3795  0.5202  0.0191
 3892TIP3    H133311   6.784   6.071   7.896 -0.0005  1.9615 -0.4019
 3892TIP3    H233312   6.637   6.096   7.922 -0.3397  1.2004 -1.5774
 3893TIP3   OH233313   4.221   6.683   1.342  0.2674  0.1950 -0.7684
 3893TIP3    H133314   4.207   6.589   1.353 -1.0402  0.2778 -1.5018
 3893TIP3    H233315   4.314   6.692   1.321  1.1578 -0.6073  2.6001
 3894TIP3   OH233316   2.806   1.764   1.429  0.3466 -0.1083  0.2572
 3894TIP3    H133317   2.862   1.741   1.355  0.9445  0.1615  0.6146
 3894TIP3    H233318   2.727   1.800   1.390  0.7851  0.3253 -0.2479
 3895TIP3   OH233319   2.270   7.029   2.200 -0.0739 -0.4112 -0.4810
 3895TIP3    H133320   2.313   6.990   2.276  2.2024  0.2116 -1.3858
 3895TIP3    H233321   2.326   7.103   2.177 -1.7787  0.5392 -1.6028
 3896TIP3   OH233322   5.250   5.871   0.421  0.4397 -0.3904  0.6538
 3896TIP3    H133323   5.271   5.925   0.497 -1.9136  0.5031  0.7141
 3896TIP3    H233324   5.204   5.795   0.457  0.4273 -0.5846  0.2309
 3897TIP3   OH233325   7.012   6.867   8.325 -0.6533  0.2278 -0.3688
 3897TIP3    H133326   6.988   6.887   8.415 -0.4109  1.8905 -0.6473
 3897TIP3    H233327   6.929   6.869   8.277 -0.9785 -2.1597  0.0624
 3898TIP3   OH233328   3.825   2.414   8.391 -0.3939 -0.2701 -0.6532
 3898TIP3    H133329   3.841   2.504   8.422 -0.4050 -0.5641  0.2343
 3898TIP3    H233330   3.734   2.396   8.416 -0.0336 -0.9340  0.2335
 3899TIP3   OH233331   5.458   2.180   8.027  0.4552 -0.1959 -0.2828
 3899TIP3    H133332   5.427   2.270   8.035 -0.8637 -0.5969 -0.8279
 3899TIP3    H233333   5.454   2.144   8.115  0.0654 -0.0205 -0.2306
 3900TIP3   OH233334   2.645   0.867   1.898  0.1390 -0.3196 -0.1157
 3900TIP3    H133335   2.571   0.857   1.958 -1.1739 -1.1378 -1.8476
 3900TIP3    H233336   2.610   0.919   1.825  1.9862  1.5364  0.2520
 3901TIP3   OH233337   4.371   4.984   0.529  0.0971  0.1623  0.1624
 3901TIP3    H133338   4.342   5.075   0.542  0.7941  0.4322 -0.1354
 3901TIP3    H233339   4.449   4.992   0.473  0.4151 -0.5882  0.4951
 3902TIP3   OH233340   2.627   2.960   0.934  1.3201 -0.3793 -0.0830
 3902TIP3    H133341   2.699   2.899   0.949  2.0010  0.3356 -0.3855
 3902TIP3    H233342   2.615   2.960   0.839 -0.4284 -2.0058  0.1098
 3903TIP3   OH233343   3.592   0.652   0.442  0.0112 -0.4600 -0.3069
 3903TIP3    H133344   3.670   0.670   0.495  0.5594 -1.0283 -0.9138
 3903TIP3    H233345   3.618   0.579   0.386 -0.3424  0.5991 -1.8584
 3904TIP3   OH233346   2.674   5.613   7.796 -0.1502  0.3176  0.2605
 3904TIP3    H133347   2.764   5.636   7.772 -0.1028 -0.2398 -0.0959
 3904TIP3    H233348   2.635   5.696   7.822  0.5639  0.5129  0.7291
 3905TIP3   OH233349   1.255   1.740   2.603 -0.5416  0.1023 -0.1158
 3905TIP3    H133350   1.258   1.800   2.678  0.0209 -0.2241  0.1305
 3905TIP3    H233351   1.347   1.722   2.584 -0.6186  1.6368 -2.0773
 3906TIP3   OH233352   6.102   1.251   1.531  0.1418 -0.0297  0.1940
 3906TIP3    H133353   6.165   1.231   1.462 -0.3659 -0.3996 -0.1736
 3906TIP3    H233354   6.031   1.296   1.486 -1.3457 -2.4495  0.0033
 3907TIP3   OH233355   3.993   4.691   0.486  0.2691  0.0709  0.1048
 3907TIP3    H133356   4.051   4.616   0.495  0.3357  0.1301  0.1707
 3907TIP3    H233357   3.965   4.712   0.575 -1.4164 -1.1807 -0.0985
 3908TIP3   OH233358   0.833   6.766   7.682 -0.3204  0.3522  0.0461
 3908TIP3    H133359   0.839   6.811   7.598  0.2616  0.1924  0.0004
 3908TIP3    H233360   0.808   6.676   7.659  0.0904  0.2422  0.0226
 3909TIP3   OH233361   7.008   5.614   1.144  0.8249  0.3086  0.3095
 3909TIP3    H133362   7.006   5.584   1.235 -1.1879  1.9950  0.8562
 3909TIP3    H233363   7.047   5.701   1.148  0.6816  0.4154 -0.4528
 3910TIP3   OH233364   6.612   4.374   0.279 -0.2798 -0.2071  0.1234
 3910TIP3    H133365   6.676   4.373   0.351 -0.4772 -0.4235  0.2986
 3910TIP3    H233366   6.558   4.297   0.295  0.0823 -0.6202 -0.6310
 3911TIP3   OH233367   3.068   2.971   1.160 -0.1320  0.1706 -0.0539
 3911TIP3    H133368   3.151   3.017   1.175  0.3798 -1.0223  0.8654
 3911TIP3    H233369   3.002   3.027   1.200  0.4430  0.2769  0.7688
 3912TIP3   OH233370   1.167   0.802   1.563 -0.1971 -0.2143  0.3546
 3912TIP3    H133371   1.130   0.777   1.648 -0.2438  0.2259  0.4677
 3912TIP3    H233372   1.118   0.751   1.499 -0.5286 -0.1489  0.5567
 3913TIP3   OH233373   4.900   0.435   8.290 -0.1085  0.1206 -0.3976
 3913TIP3    H133374   4.968   0.403   8.349 -0.1490  3.1430  1.4003
 3913TIP3    H233375   4.939   0.431   8.203  1.6594  0.0188  0.3900
 3914TIP3   OH233376   2.700   0.945   6.729  0.3562 -0.0153 -0.3258
 3914TIP3    H133377   2.753   0.916   6.655  2.2728 -0.0178  1.0129
 3914TIP3    H233378   2.693   1.040   6.717  1.3448  0.0963 -0.1033
 3915TIP3   OH233379   1.617   2.379   2.041  0.5411 -0.0310  0.0582
 3915TIP3    H133380   1.638   2.471   2.028 -2.9445  0.7277 -0.8737
 3915TIP3    H233381   1.577   2.375   2.128  0.6770 -0.6364  0.0981
 3916TIP3   OH233382   1.611   3.595   1.147  0.0725 -0.2518  0.0901
 3916TIP3    H133383   1.619   3.597   1.243  0.0797  1.0263  0.0777
 3916TIP3    H233384   1.523   3.628   1.130  0.7123  1.2620 -0.3948
 3917TIP3   OH233385   7.185   0.457   2.197 -0.5012 -0.2439  0.4941
 3917TIP3    H133386   7.141   0.416   2.122 -1.5369 -0.8166  1.3981
 3917TIP3    H233387   7.192   0.387   2.261 -0.6395  0.5228  1.3595
 3918TIP3   OH233388   2.372   0.247   1.396 -0.3021 -0.0532  0.3439
 3918TIP3    H133389   2.312   0.306   1.351  0.5679 -0.6457 -1.6123
 3918TIP3    H233390   2.319   0.170   1.417 -0.6475  0.1307  0.1506
 3919TIP3   OH233391   2.790   5.249   2.289 -0.4251 -0.6914  0.3679
 3919TIP3    H133392   2.819   5.283   2.373 -2.0360 -1.1749  1.1587
 3919TIP3    H233393   2.749   5.324   2.245 -0.4584 -0.6742  0.4291
 3920TIP3   OH233394   5.259   6.112   0.558  0.2989 -0.2863 -0.5674
 3920TIP3    H133395   5.339   6.163   0.565  0.0015  0.3244 -1.5295
 3920TIP3    H233396   5.191   6.170   0.594 -0.0417  0.0222 -1.6796
 3921TIP3   OH233397   5.822   3.008   1.583 -0.0883 -0.0463 -0.1027
 3921TIP3    H133398   5.894   3.035   1.641 -0.3088 -0.6121  0.4404
 3921TIP3    H233399   5.745   3.051   1.620  0.1698  1.5950 -1.4320
 3922TIP3   OH233400   1.167   7.306   0.858  0.3552  0.3916 -0.0775
 3922TIP3    H133401   1.229   7.369   0.821  0.0155  0.8644  0.1548
 3922TIP3    H233402   1.205   7.283   0.942  1.0850 -0.6197 -0.6750
 3923TIP3   OH233403   1.245   5.855   7.856 -0.0237  0.4175  0.1936
 3923TIP3    H133404   1.178   5.922   7.866 -0.4733  0.1395 -0.9420
 3923TIP3    H233405   1.226   5.812   7.772  0.2193 -1.1790  0.9258
 3924TIP3   OH233406   6.536   7.063   1.569 -0.4881  0.1088  0.1478
 3924TIP3    H133407   6.559   7.046   1.660  2.2318 -3.0112 -1.0113
 3924TIP3    H233408   6.607   7.120   1.537  0.2263 -1.3013 -0.8031
 3925TIP3   OH233409   7.259   2.415   2.782  0.7894  0.6363  0.3840
 3925TIP3    H133410   7.341   2.416   2.830  1.7255 -0.3992 -1.1651
 3925TIP3    H233411   7.254   2.327   2.744 -0.9026  0.7681  0.2513
 3926TIP3   OH233412   0.681   4.550   0.761 -0.2467 -0.3032 -0.1867
 3926TIP3    H133413   0.629   4.544   0.842 -0.3836  0.5769 -0.1968
 3926TIP3    H233414   0.645   4.627   0.716  1.6167  0.8079  0.1935
 3927TIP3   OH233415   1.286   1.587   2.077 -0.3636 -0.0054 -0.5972
 3927TIP3    H133416   1.196   1.612   2.057  0.4551  2.6669 -1.0671
 3927TIP3    H233417   1.305   1.630   2.160  0.7406  0.1258 -0.9097
 3928TIP3   OH233418   2.620   2.353   1.176 -0.4170 -0.0526 -0.5351
 3928TIP3    H133419   2.685   2.361   1.106 -0.3656 -1.2262 -0.6385
 3928TIP3    H233420   2.655   2.285   1.234 -0.8736  0.3016  0.1752
 3929TIP3   OH233421   2.649   0.067   0.735  0.5183  0.9494  0.5820
 3929TIP3    H133422   2.606   0.048   0.651  2.2646  1.1555 -0.3753
 3929TIP3    H233423   2.592   0.131   0.777  0.2038  1.7139 -0.9608
 3930TIP3   OH233424   5.069   0.201   1.713 -0.9175 -0.1058  0.2494
 3930TIP3    H133425   5.155   0.185   1.674 -0.5368  0.0647  1.0087
 3930TIP3    H233426   5.075   0.160   1.800 -1.2853  0.7055  0.6586
 3931TIP3   OH233427   1.675   0.276   1.657  0.1787  0.7917  0.0944
 3931TIP3    H133428   1.627   0.317   1.729 -0.2048 -1.0682  0.9256
 3931TIP3    H233429   1.731   0.211   1.700  1.7644  1.3559 -1.0730
 3932TIP3   OH233430   1.006   0.607   1.419 -0.1037  0.0813  0.0722
 3932TIP3    H133431   0.998   0.548   1.345 -2.2029 -0.8565  1.0057
 3932TIP3    H233432   1.006   0.550   1.496 -2.4450  1.2476  1.0086
 3933TIP3   OH233433   6.138   2.396   2.282  0.3518 -1.4349  0.2938
 3933TIP3    H133434   6.140   2.426   2.372 -0.5797 -0.7765  0.1025
 3933TIP3    H233435   6.103   2.308   2.286 -0.2475 -1.1859  0.5204
 3934TIP3   OH233436   2.519   3.566   7.659 -0.4768  0.0864  0.0594
 3934TIP3    H133437   2.488   3.636   7.603 -1.1011  0.5317  0.9420
 3934TIP3    H233438   2.570   3.509   7.602 -1.4296  0.3186 -1.0191
 3935TIP3   OH233439   7.046   2.523   2.195 -0.4138 -0.7065  0.4825
 3935TIP3    H133440   7.038   2.569   2.278 -0.2456 -0.8833  0.5983
 3935TIP3    H233441   7.079   2.436   2.218 -0.5085 -0.8071  0.2454
 3936TIP3   OH233442   4.129   1.822   0.159 -0.6592  0.1352  0.3759
 3936TIP3    H133443   4.098   1.732   0.169 -0.3957 -0.1075 -0.8654
 3936TIP3    H233444   4.173   1.822   0.074 -2.9652  2.0743 -0.8878
 3937TIP3   OH233445   5.320   6.894   7.707  0.1024  0.2848  0.7425
 3937TIP3    H133446   5.284   6.806   7.719  2.3802 -0.5543  1.7410
 3937TIP3    H233447   5.293   6.942   7.785 -2.4411  0.9736 -0.5067
 3938TIP3   OH233448   5.654   3.907   2.421  0.3386 -0.5368 -0.3188
 3938TIP3    H133449   5.574   3.866   2.452 -0.1678  0.8501  0.2252
 3938TIP3    H233450   5.686   3.959   2.495  1.6750 -0.9728 -0.5617
 3939TIP3   OH233451   2.360   3.393   0.199  0.7288 -0.1865 -0.1097
 3939TIP3    H133452   2.307   3.378   0.120  1.1730  0.6070 -0.5622
 3939TIP3    H233453   2.439   3.341   0.184  0.3096 -0.9819  0.3512
 3940TIP3   OH233454   2.728   0.449   7.721  0.5249 -0.4970  1.2243
 3940TIP3    H133455   2.637   0.430   7.697  0.5470 -0.4221  1.0863
 3940TIP3    H233456   2.722   0.524   7.779  0.7716  1.6475 -1.4281
 3941TIP3   OH233457   0.537   6.802   7.074  0.1532  0.6741  0.1140
 3941TIP3    H133458   0.451   6.824   7.111  0.0678 -0.5418  0.6648
 3941TIP3    H233459   0.548   6.862   7.001 -0.8331  1.3595  0.5182
 3942TIP3   OH233460   1.716   3.775   7.700  0.8362  0.2779  0.0625
 3942TIP3    H133461   1.651   3.826   7.749  1.1331  0.9823 -0.2677
 3942TIP3    H233462   1.679   3.769   7.612 -0.3517 -2.1595  0.6962
 3943TIP3   OH233463   6.049   6.298   1.725 -0.3971  0.3836 -0.4066
 3943TIP3    H133464   6.135   6.286   1.683  0.2344 -0.4131  1.0665
 3943TIP3    H233465   6.064   6.370   1.787  0.3238 -2.3510  2.7220
 3944TIP3   OH233466   6.875   6.447   0.023  0.0960  0.3267  0.4744
 3944TIP3    H133467   6.940   6.410  -0.037 -0.1422 -0.3001  0.6006
 3944TIP3    H233468   6.882   6.394   0.102 -0.8496 -0.0133  0.3435
 3945TIP3   OH233469   5.811   4.028   2.600 -0.3469 -0.3622 -0.1215
 3945TIP3    H133470   5.881   4.082   2.637 -1.1393 -0.6438  1.8264
 3945TIP3    H233471   5.847   3.939   2.602 -1.4157 -0.7925  2.6742
 3946TIP3   OH233472   1.030   0.789   1.813  0.0043  0.3504  0.2552
 3946TIP3    H133473   1.079   0.781   1.895 -0.7912  1.5462  0.8528
 3946TIP3    H233474   0.938   0.791   1.840 -0.2441  1.2203 -0.6324
 3947TIP3   OH233475   2.417   1.044   1.816 -0.3444 -0.0091  0.2333
 3947TIP3    H133476   2.350   0.986   1.780  0.5927 -0.3092 -1.0453
 3947TIP3    H233477   2.443   1.100   1.742  1.4605 -0.5053  0.4776
 3948TIP3   OH233478   7.112   1.619   2.373  0.7658  0.0711 -0.1313
 3948TIP3    H133479   7.059   1.543   2.351  0.0755  1.0029 -1.7898
 3948TIP3    H233480   7.189   1.611   2.318  0.5269  0.7537 -0.5654
 3949TIP3   OH233481   6.715   6.414   7.321 -0.9537  0.1482  0.2366
 3949TIP3    H133482   6.655   6.488   7.333  1.7309  2.1500  1.7851
 3949TIP3    H233483   6.734   6.385   7.410  0.3164 -0.5248 -0.2568
 3950TIP3   OH233484   2.713   1.201   0.663 -0.1923 -1.0953  0.1128
 3950TIP3    H133485   2.650   1.197   0.591 -1.5223 -1.2963  1.2610
 3950TIP3    H233486   2.799   1.189   0.621 -0.9857 -1.7692 -1.3556
 3951TIP3   OH233487   1.912   0.545   8.225  0.3208 -0.1805 -0.1317
 3951TIP3    H133488   1.981   0.599   8.263 -0.0279  0.2200 -0.0519
 3951TIP3    H233489   1.890   0.589   8.143 -0.3749  0.1349  0.2183
 3952TIP3   OH233490   0.506   2.956   1.500 -0.2631  0.0520  0.4766
 3952TIP3    H133491   0.510   2.933   1.593  2.0409 -0.6449  0.2276
 3952TIP3    H233492   0.414   2.978   1.485 -0.3981  1.7105  3.2767
 3953TIP3   OH233493   7.145   5.982   0.766 -0.3384  0.3088 -0.8526
 3953TIP3    H133494   7.092   5.925   0.711 -0.2091  0.8584 -1.5470
 3953TIP3    H233495   7.169   6.055   0.710  1.4579 -0.1038 -0.6659
 3954TIP3   OH233496   1.951   6.600   1.934  0.5078  0.0902 -0.2612
 3954TIP3    H133497   1.874   6.656   1.932  0.6334  0.2507 -0.5826
 3954TIP3    H233498   1.917   6.512   1.945  0.2940  0.1930 -0.0926
 3955TIP3   OH233499   5.284   6.219   6.647 -0.4815 -1.0979 -0.1478
 3955TIP3    H133500   5.281   6.275   6.724  0.2118 -0.7206 -0.3889
 3955TIP3    H233501   5.237   6.267   6.579 -1.2749 -1.5235  0.1017
 3956TIP3   OH233502   2.950   4.217   0.786 -0.1650  0.0200  0.2666
 3956TIP3    H133503   3.038   4.188   0.762 -0.7273 -0.8911 -0.7821
 3956TIP3    H233504   2.897   4.199   0.708 -1.6069 -0.9949  1.4326
 3957TIP3   OH233505   2.809   1.533   7.562 -0.2919 -0.3724  0.6276
 3957TIP3    H133506   2.903   1.517   7.572 -0.6256 -2.4512  0.6355
 3957TIP3    H233507   2.780   1.465   7.501 -1.5276  1.1972 -0.5677
 3958TIP3   OH233508   4.031   1.697   1.595  0.0345  0.4103 -0.1476
 3958TIP3    H133509   3.981   1.760   1.543 -0.4075  0.6549  0.5573
 3958TIP3    H233510   4.068   1.750   1.666 -0.1940 -0.0929  0.3483
 3959TIP3   OH233511   2.652   1.975   0.779 -0.5355 -0.4688  0.3343
 3959TIP3    H133512   2.583   1.947   0.838 -0.0601  0.5548  1.4105
 3959TIP3    H233513   2.730   1.981   0.835 -0.3926  1.8669 -0.0554
 3960TIP3   OH233514   1.267   2.893   1.975 -0.1031  0.2956 -0.0066
 3960TIP3    H133515   1.215   2.933   1.905  0.0846  0.4249 -0.0712
 3960TIP3    H233516   1.298   2.967   2.027 -0.6865  0.1746  0.5289
 3961TIP3   OH233517   5.013   2.905   8.192  0.3595  0.3907 -0.1563
 3961TIP3    H133518   5.001   2.999   8.206  0.2440  0.4755 -0.7884
 3961TIP3    H233519   4.927   2.874   8.165  0.2074 -0.0437  0.8028
 3962TIP3   OH233520   2.124   5.000   1.498 -0.4600 -0.1845 -0.6121
 3962TIP3    H133521   2.041   4.971   1.535 -0.1884  0.9180  0.8790
 3962TIP3    H233522   2.131   4.951   1.416 -0.7768 -3.1115  1.0342
 3963TIP3   OH233523   7.029   6.622   1.119 -0.9835  0.7087  0.3501
 3963TIP3    H133524   6.997   6.535   1.093 -0.9742  1.1528 -1.1871
 3963TIP3    H233525   6.992   6.636   1.205 -0.6288 -1.0189  0.8054
 3964TIP3   OH233526   2.403   0.430   1.048 -0.3438  0.5482  0.1262
 3964TIP3    H133527   2.347   0.499   1.012 -1.6722 -0.7509 -0.3670
 3964TIP3    H233528   2.389   0.435   1.142 -1.4387  0.1369 -0.0025
 3965TIP3   OH233529   4.224   2.215   2.109 -0.0635 -0.4822  0.3300
 3965TIP3    H133530   4.242   2.259   2.192  0.2919  0.5027 -0.2600
 3965TIP3    H233531   4.310   2.192   2.075 -0.2384 -1.4945  0.5468
 3966TIP3   OH233532   3.158   1.748   1.033  0.6996  0.4665  0.1238
 3966TIP3    H133533   3.217   1.810   0.991 -1.3885  1.8038 -0.9235
 3966TIP3    H233534   3.141   1.682   0.966  1.1882 -0.0488  0.5041
 3967TIP3   OH233535   4.589   1.353   8.091 -0.0657 -0.0549 -0.4300
 3967TIP3    H133536   4.509   1.315   8.055  0.1771 -1.5526  0.5597
 3967TIP3    H233537   4.659   1.301   8.052  0.3253 -0.0058  0.2118
 3968TIP3   OH233538   1.931   0.167   1.218 -0.3765 -0.2331  0.1663
 3968TIP3    H133539   2.024   0.177   1.200 -1.0349  2.4182 -2.0857
 3968TIP3    H233540   1.896   0.125   1.140 -1.4920  1.3525 -0.2151
 3969TIP3   OH233541   3.749   1.826   8.254  1.1420 -0.0680  0.3224
 3969TIP3    H133542   3.776   1.894   8.315  4.3214  0.5597 -1.7144
 3969TIP3    H233543   3.798   1.748   8.281 -0.6531 -0.9659  1.1293
 3970TIP3   OH233544   2.815   1.279   1.892  0.1700  0.1025  0.9719
 3970TIP3    H133545   2.866   1.345   1.940  0.5178  0.4691  0.1077
 3970TIP3    H233546   2.785   1.219   1.960  3.0872 -1.0013  1.3532
 3971TIP3   OH233547   2.414   4.850   1.134 -0.1502 -0.3070  0.4225
 3971TIP3    H133548   2.473   4.894   1.194 -0.2215 -0.8087  0.8594
 3971TIP3    H233549   2.433   4.888   1.048 -0.2555  0.6185  0.8119
 3972TIP3   OH233550   4.007   3.273   0.405  0.5867  0.1585  1.2550
 3972TIP3    H133551   3.916   3.290   0.430 -0.7042 -2.1457 -1.4603
 3972TIP3    H233552   4.049   3.242   0.485 -1.4672 -0.2697  2.1857
 3973TIP3   OH233553   4.864   2.484   7.962  0.1153  0.1033  0.2230
 3973TIP3    H133554   4.928   2.413   7.972 -0.7023 -0.7966 -0.7512
 3973TIP3    H233555   4.903   2.542   7.896  0.8895  0.6931  1.1874
 3974TIP3   OH233556   2.144   4.044   8.329  0.2784 -0.0532 -0.1699
 3974TIP3    H133557   2.180   4.088   8.252 -1.0167  0.7693 -0.3008
 3974TIP3    H233558   2.190   3.959   8.331  2.2157  0.9652 -0.3370
 3975TIP3   OH233559   2.580   3.003   0.663  0.2540 -0.1906  0.6869
 3975TIP3    H133560   2.525   3.081   0.675 -0.7820 -0.8488  0.2970
 3975TIP3    H233561   2.662   3.037   0.629 -0.1719  0.7410  0.5634
 3976TIP3   OH233562   3.716   4.077   7.342  0.4036  0.0007  0.0978
 3976TIP3    H133563   3.771   4.032   7.405  0.5713  0.6180  0.3928
 3976TIP3    H233564   3.694   4.160   7.384 -1.7409 -0.7384  0.4994
 3977TIP3   OH233565   3.157   5.758   1.434 -0.1416 -0.2253 -0.2324
 3977TIP3    H133566   3.229   5.707   1.395  0.0665 -0.1819  0.0969
 3977TIP3    H233567   3.103   5.692   1.477 -0.4142 -0.2823 -0.6590
 3978TIP3   OH233568   2.277   6.000   0.753 -0.1029 -0.0270  0.2718
 3978TIP3    H133569   2.311   6.071   0.808 -0.9946  1.9178 -1.6430
 3978TIP3    H233570   2.355   5.952   0.725  0.5292  0.4107  1.2545
 3979TIP3   OH233571   2.034   3.397   1.928 -0.0731  0.3186  0.5807
 3979TIP3    H133572   2.033   3.471   1.989  1.8538  0.2952  0.6762
 3979TIP3    H233573   2.056   3.321   1.982  1.0963  0.2047 -0.0430
 3980TIP3   OH233574   1.079   1.695   1.906  0.3048  0.0839  0.1370
 3980TIP3    H133575   0.997   1.745   1.906  0.0184 -0.3766  0.0739
 3980TIP3    H233576   1.147   1.760   1.893 -0.0293  0.5151  0.5489
 3981TIP3   OH233577   2.839   2.793   0.780 -0.6514 -0.0427 -0.0389
 3981TIP3    H133578   2.907   2.783   0.846  0.1456 -0.3845 -0.9076
 3981TIP3    H233579   2.809   2.704   0.762 -1.7086  0.1485  0.7252
 3982TIP3   OH233580   2.207   6.965   1.944  0.0069  1.0479 -0.0971
 3982TIP3    H133581   2.287   6.970   1.891  0.8412 -2.9792  0.5896
 3982TIP3    H233582   2.236   6.985   2.033  0.4921 -1.1285  0.2782
 3983TIP3   OH233583   1.357   5.007   1.520 -0.4026 -0.2363 -0.2620
 3983TIP3    H133584   1.262   4.995   1.519 -0.0973 -3.2029  2.1533
 3983TIP3    H233585   1.370   5.092   1.563 -1.8948 -0.6833  1.1138
 3984TIP3   OH233586   2.788   2.504   0.686  0.6914  0.1348 -0.5481
 3984TIP3    H133587   2.847   2.447   0.638  0.0180 -0.1453 -1.0507
 3984TIP3    H233588   2.718   2.446   0.717  1.5150  0.1532  1.4592
 3985TIP3   OH233589   1.718   4.454   0.855 -0.1142  0.2915  0.9378
 3985TIP3    H133590   1.630   4.418   0.864 -0.0321 -0.3773 -0.7251
 3985TIP3    H233591   1.705   4.549   0.851 -0.9804  0.0959 -1.4103
 3986TIP3   OH233592   3.103   4.835   1.107 -0.2461 -0.3070  0.0998
 3986TIP3    H133593   3.052   4.779   1.166  0.6378 -1.5577 -0.3070
 3986TIP3    H233594   3.130   4.777   1.036 -1.2922  1.1833 -1.5627
 3987TIP3   OH233595   4.493   1.136   1.397 -0.0773  0.3674 -0.4408
 3987TIP3    H133596   4.409   1.140   1.351  0.0764  2.1312 -0.5876
 3987TIP3    H233597   4.505   1.223   1.434  1.8625  0.2429 -0.7126
 3988TIP3   OH233598   2.397   4.323   7.176 -0.0194  0.2897 -1.1400
 3988TIP3    H133599   2.307   4.291   7.163  0.4066 -0.9098 -1.1829
 3988TIP3    H233600   2.386   4.411   7.212 -1.2187 -0.0768 -0.5819
 3989TIP3   OH233601   3.940   1.930   1.038 -0.2075  0.7328 -0.4353
 3989TIP3    H133602   4.003   1.891   0.977  1.7176  1.5248  0.9746
 3989TIP3    H233603   3.949   1.878   1.118 -0.9875  1.1581 -0.0655
 3990TIP3   OH233604   2.536   0.673   0.635  0.0584 -0.1431 -0.0501
 3990TIP3    H133605   2.554   0.700   0.725 -1.4523 -1.9237  0.8265
 3990TIP3    H233606   2.606   0.713   0.583  1.4751  0.1626  2.0356
 3991TIP3   OH233607   0.993   5.437   6.964 -0.0551  0.2585 -0.2745
 3991TIP3    H133608   0.969   5.497   7.035  1.4343  0.1894  0.3127
 3991TIP3    H233609   1.087   5.423   6.976 -0.1956 -1.3989 -1.0114
 3992TIP3   OH233610   3.564   3.737   0.711  0.5977  0.3161  0.3060
 3992TIP3    H133611   3.656   3.725   0.688  0.7397  0.6838  0.6631
 3992TIP3    H233612   3.515   3.700   0.638  1.0051 -1.8912  1.1179
 3993TIP3   OH233613   2.431   7.300   1.634  0.2185 -0.4915  0.1819
 3993TIP3    H133614   2.353   7.356   1.635  0.3790 -0.2635 -0.4076
 3993TIP3    H233615   2.504   7.359   1.653  0.1850 -0.8107  1.3494
 3994TIP3   OH233616   4.595   1.908   6.142  0.7943  0.1484 -0.5491
 3994TIP3    H133617   4.525   1.923   6.078  1.4089 -0.4081 -1.3589
 3994TIP3    H233618   4.647   1.989   6.139 -1.0060  1.4501  1.6109
 3995TIP3   OH233619   2.369   0.907   0.555  0.9387  0.5897  0.4262
 3995TIP3    H133620   2.329   0.941   0.635 -0.6335  0.2710 -0.2091
 3995TIP3    H233621   2.384   0.814   0.573  2.7569  1.0109  1.1861
 3996TIP3   OH233622   5.102   5.599   0.971 -0.7639  0.0087 -0.3425
 3996TIP3    H133623   5.050   5.519   0.970  1.8882 -1.7846 -1.9573
 3996TIP3    H233624   5.104   5.626   1.063 -0.8844 -2.3073  0.3586
 3997TIP3   OH233625   2.502   7.305   1.320  0.3520  0.3539  0.5528
 3997TIP3    H133626   2.453   7.320   1.401  0.3447  0.2363  0.5698
 3997TIP3    H233627   2.438   7.265   1.260 -0.6212  3.5287 -0.6698
 3998TIP3   OH233628   2.037   6.901   8.370  0.1703 -0.6880 -0.5782
 3998TIP3    H133629   2.015   6.981   8.321  1.2957 -0.7976 -1.2826
 3998TIP3    H233630   2.112   6.865   8.323  0.7041 -1.2791  0.7183
 3999TIP3   OH233631   2.873   6.876   0.426 -1.0111 -0.2811 -0.0128
 3999TIP3    H133632   2.873   6.785   0.457  1.3594  0.4510  2.2868
 3999TIP3    H233633   2.781   6.896   0.409 -1.7216 -2.6005  0.9223
 4000TIP3   OH233634   5.415   6.621   1.352 -0.5377  0.4840  0.2752
 4000TIP3    H133635   5.396   6.706   1.311  0.6727  1.2386  1.2204
 4000TIP3    H233636   5.429   6.642   1.445 -0.6249 -0.8088  0.5833
 4001TIP3   OH233637   3.745   1.121   1.570  0.7651  0.4103  0.6295
 4001TIP3    H133638   3.797   1.084   1.499 -1.4851  1.5154 -1.7018
 4001TIP3    H233639   3.695   1.047   1.604  0.6870  0.1585 -0.0204
 4002TIP3   OH233640   5.949   4.690   0.630 -0.4620 -0.5605  0.5005
 4002TIP3    H133641   6.044   4.686   0.644 -0.5005  1.0394  1.3075
 4002TIP3    H233642   5.919   4.601   0.645  0.3652 -0.2308  4.5031
 4003TIP3   OH233643   1.026   4.249   1.289  0.3834  0.6304 -0.3328
 4003TIP3    H133644   1.076   4.214   1.363 -1.0435 -0.6345  0.0538
 4003TIP3    H233645   1.077   4.324   1.260  0.9517  1.1804  1.9692
 4004TIP3   OH233646   2.465   3.499   7.032 -0.5187 -0.3486  0.1232
 4004TIP3    H133647   2.508   3.567   6.980  0.8286 -1.6684 -0.4956
 4004TIP3    H233648   2.378   3.490   6.992 -0.7761  1.1156  0.3220
 4005TIP3   OH233649   1.539   2.027   1.493  0.2061  0.3011  0.5949
 4005TIP3    H133650   1.515   1.934   1.489  0.9753  0.1332 -0.2869
 4005TIP3    H233651   1.458   2.073   1.475  0.0649 -0.2208 -0.1109
 4006TIP3   OH233652   4.044   1.110   0.119  0.1015  0.1411 -0.6406
 4006TIP3    H133653   3.997   1.115   0.202 -1.4749  0.3807 -1.5042
 4006TIP3    H233654   3.977   1.082   0.056  1.1398  0.4680 -1.9166
 4007TIP3   OH233655   2.376   4.253   7.800  0.2089 -0.0848  0.0522
 4007TIP3    H133656   2.385   4.163   7.831 -2.8217 -0.0808  1.0812
 4007TIP3    H233657   2.414   4.307   7.869 -4.2226 -0.2263  2.7586
 4008TIP3   OH233658   3.251   0.679   0.761 -0.3859 -0.6980 -0.2391
 4008TIP3    H133659   3.268   0.657   0.670 -1.7676  0.7328 -0.8737
 4008TIP3    H233660   3.316   0.630   0.811  0.6808 -1.1201 -2.0257
 4009TIP3   OH233661   3.843   1.275   8.403 -0.0091  0.3624  0.3994
 4009TIP3    H133662   3.921   1.234   8.365  0.7331  0.5361  1.7141
 4009TIP3    H233663   3.792   1.201   8.437  0.8940  0.4304  1.9557
 4010TIP3   OH233664   2.404   3.906   1.755  0.0572 -0.4237  0.0769
 4010TIP3    H133665   2.362   3.828   1.720  0.3655 -0.4596 -0.2133
 4010TIP3    H233666   2.481   3.874   1.801  0.7864 -0.2034 -0.9661
 4011TIP3   OH233667   4.387   1.001   0.628  0.3902  0.0625  0.5555
 4011TIP3    H133668   4.303   1.044   0.641  0.7964  1.1580 -0.4523
 4011TIP3    H233669   4.437   1.060   0.573  0.3524 -2.4680 -2.3043
 4012TIP3   OH233670   1.199   2.678   2.380 -0.0605 -0.0860 -0.4916
 4012TIP3    H133671   1.176   2.762   2.421  0.9086 -0.2832  0.4697
 4012TIP3    H233672   1.266   2.700   2.316  0.6939 -0.2093  0.2433
 4013TIP3   OH233673   2.030   4.456   0.286 -0.2004  0.4001  0.0687
 4013TIP3    H133674   1.967   4.523   0.259 -0.8553 -0.2823 -0.1060
 4013TIP3    H233675   1.999   4.427   0.372  1.3900  1.9503  1.2052
 4014TIP3   OH233676   1.797   0.191   1.877  0.4591 -0.1214  0.7571
 4014TIP3    H133677   1.795   0.242   1.958 -0.8630 -1.4330  1.5704
 4014TIP3    H233678   1.872   0.226   1.828  1.8140  0.0946  2.9295
 4015TIP3   OH233679   2.174   1.155   7.892 -0.2357  0.1306  0.2883
 4015TIP3    H133680   2.091   1.108   7.897  0.0838 -0.3182  1.8286
 4015TIP3    H233681   2.185   1.193   7.979  0.6750  1.0419 -0.2199
 4016TIP3   OH233682   4.803   7.243   7.563 -0.0112 -0.1345  0.3815
 4016TIP3    H133683   4.897   7.243   7.577  0.1321 -0.1164 -0.5370
 4016TIP3    H233684   4.790   7.188   7.485 -0.7631 -0.2139  0.5558
 4017TIP3   OH233685   2.504   5.818   0.693 -0.4686  0.2641  0.0670
 4017TIP3    H133686   2.570   5.881   0.723 -0.6396  0.5095 -0.0694
 4017TIP3    H233687   2.549   5.766   0.626 -0.9810  1.6857 -1.3936
 4018TIP3   OH233688   4.453   6.812   1.891 -0.3453 -0.2538  0.9524
 4018TIP3    H133689   4.516   6.884   1.880 -0.1144 -0.8259 -1.8306
 4018TIP3    H233690   4.507   6.733   1.896 -0.7107 -0.4642  1.6654
 4019TIP3   OH233691   2.214   6.065   7.369 -0.3983  0.2791  0.0947
 4019TIP3    H133692   2.128   6.035   7.397 -0.0341  0.2207  1.1778
 4019TIP3    H233693   2.200   6.156   7.341 -0.5357  0.7580  1.6829
 4020TIP3   OH233694   5.031   7.298   1.937  0.3870  0.2242 -0.1197
 4020TIP3    H133695   4.997   7.362   2.000  1.2291  0.7472 -0.1834
 4020TIP3    H233696   4.960   7.235   1.927 -0.2213  0.8014  0.4283
 4021TIP3   OH233697   2.274   0.028   1.937  0.3246 -0.0784  0.3762
 4021TIP3    H133698   2.331   0.078   1.878 -2.4427  1.1238 -1.3885
 4021TIP3    H233699   2.225   0.094   1.985 -2.1073 -1.0435 -0.6944
 4022TIP3   OH233700   4.813   0.115   0.194 -0.1981  0.6678 -0.5424
 4022TIP3    H133701   4.873   0.155   0.256  2.2109 -0.5505 -2.0396
 4022TIP3    H233702   4.726   0.132   0.231  1.0965  1.2959  2.3577
 4023TIP3   OH233703   2.052   5.748   1.745  0.5588  0.1829 -0.1819
 4023TIP3    H133704   2.078   5.681   1.809  0.3077  0.4239  0.1805
 4023TIP3    H233705   2.037   5.826   1.799 -0.2747  0.2200 -0.4585
 4024TIP3   OH233706   5.359   5.949   8.104  0.2028 -0.3096  0.4019
 4024TIP3    H133707   5.409   5.883   8.153  0.5411  0.3700  0.9755
 4024TIP3    H233708   5.353   6.024   8.164 -0.5376  0.0300 -0.0905
 4025TIP3   OH233709   3.616   4.327   1.062 -0.1176  0.1635 -0.1639
 4025TIP3    H133710   3.704   4.324   1.022  1.0723  1.6315  2.2542
 4025TIP3    H233711   3.569   4.254   1.021  1.9144 -0.0647 -2.2104
 4026TIP3   OH233712   5.516   2.578   7.467 -0.2653 -0.2284  0.5182
 4026TIP3    H133713   5.580   2.567   7.396  0.8954  0.5243  1.4087
 4026TIP3    H233714   5.569   2.607   7.541 -1.9024  2.2851  0.7524
 4027TIP3   OH233715   2.909   1.244   0.069  0.3408 -0.1593  0.1172
 4027TIP3    H133716   2.985   1.289   0.032 -1.3074  1.9352 -0.8037
 4027TIP3    H233717   2.919   1.254   0.164  0.8661  0.7150 -0.0237
 4028TIP3   OH233718   3.344   3.124   2.134 -0.3052  0.2011  0.2035
 4028TIP3    H133719   3.369   3.071   2.210 -0.2413  1.8211  1.3476
 4028TIP3    H233720   3.254   3.150   2.152  0.3598  2.2671  0.7482
 4029TIP3   OH233721   3.309   7.117   8.332 -0.5104  0.0142 -0.0422
 4029TIP3    H133722   3.220   7.084   8.319 -1.1288  1.7382 -0.2787
 4029TIP3    H233723   3.308   7.156   8.420 -0.0652  0.2790 -0.1524
 4030TIP3   OH233724   2.614   2.471   1.508  0.1345 -0.0011 -0.2251
 4030TIP3    H133725   2.540   2.528   1.487  1.1596  0.8871 -1.4906
 4030TIP3    H233726   2.575   2.400   1.559 -1.6712  0.2155 -1.2332
 4031TIP3   OH233727   4.233   3.566   1.408  0.2852  0.0441  0.0613
 4031TIP3    H133728   4.197   3.500   1.349  0.7828  1.1947 -1.5697
 4031TIP3    H233729   4.159   3.622   1.429  0.1097 -0.3603  0.5240
 4032TIP3   OH233730   0.099   6.553   2.221 -0.2179 -0.1290 -0.2456
 4032TIP3    H133731   0.102   6.477   2.279  1.3566  0.8225  0.9762
 4032TIP3    H233732   0.006   6.569   2.208 -0.5790 -2.4104 -0.7466
 4033TIP3   OH233733   3.549   6.112   2.007 -0.4717  0.1043  0.1252
 4033TIP3    H133734   3.559   6.025   1.966 -2.8481  0.0396 -0.3515
 4033TIP3    H233735   3.597   6.104   2.089  0.7082 -1.1507 -0.6520
 4034TIP3   OH233736   2.239   1.121   0.223 -0.3242 -0.3867  0.0155
 4034TIP3    H133737   2.166   1.116   0.162  0.2103 -0.3036 -0.6467
 4034TIP3    H233738   2.276   1.033   0.224  0.1428 -0.2001 -0.3852
 4035TIP3   OH233739   5.728   3.216   7.483  0.0986  0.2189 -0.2569
 4035TIP3    H133740   5.746   3.215   7.389  0.6051 -0.0999 -0.1580
 4035TIP3    H233741   5.809   3.249   7.523  1.2707 -3.1440  0.3502
 4036TIP3   OH233742   2.529   2.969   0.358  0.1359 -0.7607 -0.4123
 4036TIP3    H133743   2.530   3.064   0.370  0.1816 -0.7143 -0.7962
 4036TIP3    H233744   2.547   2.935   0.446  0.7072 -0.4080 -0.3850
 4037TIP3   OH233745   1.004   7.223   8.014 -0.1756 -1.0576 -0.5676
 4037TIP3    H133746   0.946   7.204   8.088 -1.1201 -0.4372 -1.1407
 4037TIP3    H233747   1.021   7.137   7.975  0.0797 -1.3552  0.1880
 4038TIP3   OH233748   2.276   2.733   8.196 -0.2704 -0.3986 -0.1035
 4038TIP3    H133749   2.314   2.751   8.282 -0.3905 -0.2504 -0.0803
 4038TIP3    H233750   2.295   2.640   8.181  1.3278  0.0151 -0.7125
 4039TIP3   OH233751   3.220   0.054   7.396  0.1325  0.0409  0.0382
 4039TIP3    H133752   3.131   0.081   7.420  0.0100 -0.4502  0.1523
 4039TIP3    H233753   3.209   0.011   7.311  0.2161 -0.2573  0.1758
 4040TIP3   OH233754   3.900   2.536   7.894  0.5774 -0.3645 -0.4819
 4040TIP3    H133755   3.878   2.591   7.969 -1.0957 -0.3647 -0.9577
 4040TIP3    H233756   3.893   2.595   7.819  0.9928 -0.6755 -0.7667
 4041TIP3   OH233757   2.487   0.791   2.131  0.5057 -0.5889  0.1822
 4041TIP3    H133758   2.417   0.781   2.195 -0.6270  1.1161 -0.7163
 4041TIP3    H233759   2.546   0.855   2.170 -0.3809  0.7363 -0.5838
 4042TIP3   OH233760   3.376   6.752   1.434  0.1925  0.1227 -0.0707
 4042TIP3    H133761   3.398   6.693   1.361  1.3403 -0.5261  0.7853
 4042TIP3    H233762   3.407   6.706   1.512  0.1143  1.3837  0.7173
 4043TIP3   OH233763   2.975   7.015   2.305  0.5406  0.4442 -1.2116
 4043TIP3    H133764   2.978   6.921   2.320 -2.5289  0.5336  0.2368
 4043TIP3    H233765   2.959   7.053   2.392  0.5613  2.2282 -1.9544
 4044TIP3   OH233766   4.691   3.474   8.461  0.0199  0.1247  0.0352
 4044TIP3    H133767   4.670   3.401   8.519  2.3292 -2.0584 -1.7311
 4044TIP3    H233768   4.784   3.492   8.477  0.5840 -0.2163 -2.5903
 4045TIP3   OH233769   4.332   0.719   1.904 -0.3848  0.2941 -0.2568
 4045TIP3    H133770   4.272   0.792   1.916 -0.0296  0.5218  0.1577
 4045TIP3    H233771   4.376   0.710   1.988 -0.3306 -0.3148 -0.3450
 4046TIP3   OH233772   3.269   1.168   0.721  0.2093  0.2222 -0.0012
 4046TIP3    H133773   3.285   1.260   0.697  0.0400  0.4783  0.8420
 4046TIP3    H233774   3.308   1.159   0.807 -2.5387  0.3652  1.3182
 4047TIP3   OH233775   2.349   6.905   6.331  0.4728 -1.1474 -0.0230
 4047TIP3    H133776   2.397   6.988   6.335  0.8701 -1.4264  1.2711
 4047TIP3    H233777   2.257   6.931   6.344  0.4914 -0.8243 -0.5038
 4048TIP3   OH233778   2.332   5.792   6.753  0.6215  0.0807 -0.1188
 4048TIP3    H133779   2.407   5.851   6.750  0.9112 -0.3122 -0.5255
 4048TIP3    H233780   2.341   5.737   6.675  0.2384 -0.3665  0.1516
 4049TIP3   OH233781   2.747   6.775   1.840  0.0371 -0.0828  0.1089
 4049TIP3    H133782   2.698   6.856   1.827 -0.9290 -0.7016 -0.1667
 4049TIP3    H233783   2.777   6.779   1.931 -0.0064  0.5771  0.0961
 4050TIP3   OH233784   2.140   0.410   7.726 -0.8386 -0.2943 -0.3634
 4050TIP3    H133785   2.138   0.498   7.766 -0.4762 -0.4402 -0.0214
 4050TIP3    H233786   2.201   0.418   7.654 -0.8569 -0.2478 -0.3741
 4051TIP3   OH233787   3.022   2.253   0.373  0.1509 -0.2174 -0.2088
 4051TIP3    H133788   3.113   2.260   0.400 -0.1386  0.6011  0.6062
 4051TIP3    H233789   3.010   2.322   0.308 -0.3112  0.7846  0.9245
 4052TIP3   OH233790   4.183   6.784   6.693  0.3587  0.2961  0.0398
 4052TIP3    H133791   4.138   6.836   6.760  0.5685  1.1698 -0.4896
 4052TIP3    H233792   4.237   6.848   6.646 -0.8040 -0.0706 -1.8352
 4053TIP3   OH233793   6.155   1.009   1.624 -0.1648 -0.0487 -0.5433
 4053TIP3    H133794   6.116   1.093   1.601  0.6531  0.1619 -1.1881
 4053TIP3    H233795   6.131   0.996   1.716  0.1470  1.1312 -0.2848
 4054TIP3   OH233796   3.846   2.468   2.526 -0.7004 -0.6015 -0.0755
 4054TIP3    H133797   3.817   2.550   2.564 -1.0576 -1.1810  0.9338
 4054TIP3    H233798   3.942   2.472   2.530 -0.6998  0.0116 -0.5897
 4055TIP3   OH233799   3.107   4.584   8.233 -0.0893  0.1230  0.3304
 4055TIP3    H133800   3.069   4.511   8.282 -0.6990  0.1510 -0.0852
 4055TIP3    H233801   3.054   4.588   8.153 -1.2331  2.1528  1.1543
 4056TIP3   OH233802   6.316   0.700   1.125 -0.1245 -0.7710  0.0714
 4056TIP3    H133803   6.303   0.643   1.049 -2.0525  0.1314 -0.3147
 4056TIP3    H233804   6.333   0.786   1.088  0.4938 -0.6433  0.6577
 4057TIP3   OH233805   5.997   0.941   6.810 -0.4070 -0.3421 -0.8667
 4057TIP3    H133806   6.091   0.960   6.811 -0.4330 -0.2126 -0.8745
 4057TIP3    H233807   5.965   0.980   6.729 -0.6625  0.5518 -0.3359
 4058TIP3   OH233808   4.462   4.465   7.275  0.6872  0.0085  0.1355
 4058TIP3    H133809   4.386   4.444   7.329  0.6532  0.3156  0.2110
 4058TIP3    H233810   4.428   4.521   7.205  0.8893  0.3839  0.3334
 4059TIP3   OH233811   2.977   1.671   1.240  0.4912  0.0648 -0.4799
 4059TIP3    H133812   2.923   1.596   1.215 -1.2677  1.4941 -1.0575
 4059TIP3    H233813   3.009   1.707   1.157 -1.0309  1.6577 -0.3922
 4060TIP3   OH233814   4.435   1.077   7.037  0.0732 -0.5198 -0.4034
 4060TIP3    H133815   4.472   1.164   7.057 -3.2850  0.5011  1.6810
 4060TIP3    H233816   4.371   1.094   6.968 -1.0630 -1.2402  0.4700
 4061TIP3   OH233817   1.171   6.359   6.507 -0.0400 -0.0397 -0.5387
 4061TIP3    H133818   1.111   6.284   6.503 -0.0178 -0.1459  0.7082
 4061TIP3    H233819   1.138   6.420   6.442 -3.3742  1.2171  2.1775
 4062TIP3   OH233820   1.772   5.115   7.121  0.1279  0.2469  0.0775
 4062TIP3    H133821   1.855   5.123   7.074  0.3045  1.1512  0.5197
 4062TIP3    H233822   1.797   5.095   7.211 -0.2303 -2.0354 -0.3017
 4063TIP3   OH233823   1.471   6.349   8.418  0.0657  0.3029  0.7324
 4063TIP3    H133824   1.410   6.277   8.400  0.7990 -0.2302  0.3579
 4063TIP3    H233825   1.535   6.312   8.478  0.0225  0.8700  1.1335
 4064TIP3   OH233826   3.016   7.161   7.243  0.0425  0.3442 -0.1121
 4064TIP3    H133827   2.953   7.199   7.182 -0.5173 -1.1268 -0.4860
 4064TIP3    H233828   2.982   7.181   7.330  1.4428  3.4507 -0.2415
 4065TIP3   OH233829   2.992   2.813   7.679 -0.4600  0.4200 -0.3322
 4065TIP3    H133830   3.086   2.832   7.680 -0.4315  0.3260 -0.9595
 4065TIP3    H233831   2.981   2.743   7.743 -0.0459  0.1655 -0.5407
 4066TIP3   OH233832   1.836   3.883   1.703  0.3742  0.4573 -0.1877
 4066TIP3    H133833   1.919   3.922   1.730 -1.4890  3.3840  1.4987
 4066TIP3    H233834   1.827   3.806   1.759  1.7545  0.2887 -0.1624
 4067TIP3   OH233835   3.228   1.169   7.157 -0.5614 -0.0757  0.6559
 4067TIP3    H133836   3.222   1.098   7.220  1.1168 -1.8505 -1.1206
 4067TIP3    H233837   3.261   1.128   7.077  2.1735  3.0003  0.1009
 4068TIP3   OH233838   0.592   6.617   0.101 -0.4369 -0.3299  0.2737
 4068TIP3    H133839   0.506   6.585   0.127  0.1450 -0.7252  1.7385
 4068TIP3    H233840   0.643   6.621   0.182  0.9156 -0.0552 -0.5596
 4069TIP3   OH233841   5.758   6.794   0.937  0.9003 -0.1309  0.2971
 4069TIP3    H133842   5.770   6.844   1.018 -2.1272  2.1154 -0.5446
 4069TIP3    H233843   5.805   6.844   0.871  0.6161 -0.1834  0.0562
 4070TIP3   OH233844   2.305   0.632   0.890 -0.0936 -0.3480 -0.1088
 4070TIP3    H133845   2.357   0.564   0.847  1.7301  0.6737  0.4112
 4070TIP3    H233846   2.314   0.708   0.833 -3.6969 -1.0084 -1.7020
 4071TIP3   OH233847   0.908   4.289   1.806 -0.2133  0.1478 -0.1379
 4071TIP3    H133848   0.932   4.314   1.895  0.3284 -0.4837 -0.0998
 4071TIP3    H233849   0.824   4.244   1.815 -0.2888  0.3235  0.0246
 4072TIP3   OH233850   2.598   2.793   2.201  0.2741  0.5864  0.3858
 4072TIP3    H133851   2.504   2.785   2.185  0.2866 -1.8499  1.2259
 4072TIP3    H233852   2.631   2.704   2.188  2.2349  1.1448  1.4761
 4073TIP3   OH233853   3.600   2.448   0.224 -0.1380 -0.1449  0.5143
 4073TIP3    H133854   3.673   2.447   0.286 -0.3843 -0.6898  0.7959
 4073TIP3    H233855   3.544   2.376   0.251 -0.7634  0.2438  0.2707
 4074TIP3   OH233856   0.818   5.200   0.518  0.0181 -0.1163 -0.0448
 4074TIP3    H133857   0.852   5.279   0.560  1.7011 -0.5653 -0.4970
 4074TIP3    H233858   0.831   5.216   0.424 -0.0451 -0.7381 -0.1628
 4075TIP3   OH233859   3.502   1.690   7.916  0.2984 -0.4291 -0.5094
 4075TIP3    H133860   3.488   1.750   7.843  3.1419  1.2712  0.2824
 4075TIP3    H233861   3.464   1.607   7.887 -0.2666  0.7224 -3.1593
 4076TIP3   OH233862   0.817   2.411   2.149  0.1601 -0.1465 -0.5139
 4076TIP3    H133863   0.802   2.395   2.056  0.1715 -0.1084 -0.5221
 4076TIP3    H233864   0.760   2.484   2.171  0.4634  0.1107 -0.5834
 4077TIP3   OH233865   2.378   1.846   2.756 -0.1292 -0.4983  0.3533
 4077TIP3    H133866   2.321   1.890   2.819 -0.3793 -0.5648  0.1734
 4077TIP3    H233867   2.399   1.913   2.691 -0.8058 -0.7441 -0.1189
 4078TIP3   OH233868   5.737   2.447   6.980 -0.9358 -0.1027  0.4202
 4078TIP3    H133869   5.821   2.491   6.994 -2.2927  2.7201  0.1864
 4078TIP3    H233870   5.734   2.429   6.886 -0.1841 -1.1285  0.5849
 4079TIP3   OH233871   3.973   0.713   7.129 -0.5006  0.3860  0.1902
 4079TIP3    H133872   3.954   0.626   7.093 -0.8890  0.4959  0.1298
 4079TIP3    H233873   3.982   0.698   7.223 -0.0294  0.1904  0.1139
 4080TIP3   OH233874   6.122   0.341   0.330  0.4596 -0.0631  0.2140
 4080TIP3    H133875   6.108   0.419   0.384  0.1753  0.2457 -0.3034
 4080TIP3    H233876   6.145   0.375   0.244  0.0069 -0.5486 -0.1032
 4081TIP3   OH233877   2.925   5.265   8.079  0.7963 -0.1708  0.3051
 4081TIP3    H133878   3.019   5.250   8.068  0.5483 -1.3815 -0.3271
 4081TIP3    H233879   2.914   5.289   8.171  1.6494 -0.6751  0.5427
 4082TIP3   OH233880   2.193   0.423   1.268 -0.0039  0.3795  0.0765
 4082TIP3    H133881   2.180   0.518   1.266  4.0396  1.0140 -0.5621
 4082TIP3    H233882   2.183   0.396   1.176  3.5892  1.0001 -0.5615
 4083TIP3   OH233883   4.032   2.212   0.646 -0.5026 -0.0848  0.4359
 4083TIP3    H133884   4.009   2.147   0.579 -1.6933 -0.0193  0.7746
 4083TIP3    H233885   3.948   2.240   0.682 -0.0246  1.9134  0.0544
 4084TIP3   OH233886   2.532   1.407   0.741  0.1288  0.3028  0.4297
 4084TIP3    H133887   2.609   1.351   0.732 -0.2636 -0.0152 -1.0990
 4084TIP3    H233888   2.465   1.349   0.777 -0.0010  0.0461 -0.2300
 4085TIP3   OH233889   4.228   7.305   0.688  0.3442 -0.4370  0.8018
 4085TIP3    H133890   4.181   7.248   0.749  0.4464 -0.9008  0.4477
 4085TIP3    H233891   4.163   7.327   0.622  0.1811  0.2204  1.1833
 4086TIP3   OH233892   3.961   5.500   1.296  0.2466  0.3138  0.1834
 4086TIP3    H133893   3.967   5.530   1.387 -0.2157  0.4690  0.1653
 4086TIP3    H233894   3.884   5.444   1.295 -1.2502  2.3256 -0.6644
 4087TIP3   OH233895   2.053   1.080   7.316  0.0225 -0.5146  0.1358
 4087TIP3    H133896   2.083   1.106   7.403 -0.9328 -0.5348  0.4756
 4087TIP3    H233897   2.093   0.995   7.300  0.8021 -0.1678  0.2413
 4088TIP3   OH233898   3.237   1.497   2.234 -0.0629  0.2083  0.8403
 4088TIP3    H133899   3.272   1.501   2.145  0.6178  0.7947  1.1320
 4088TIP3    H233900   3.235   1.404   2.255 -2.0146 -0.0863 -0.4922
 4089TIP3   OH233901   2.419   6.563   7.254  0.2105 -0.0866 -0.0258
 4089TIP3    H133902   2.354   6.632   7.271 -0.3118 -0.7878  0.8223
 4089TIP3    H233903   2.371   6.495   7.207  0.4396 -0.4174  0.2162
 4090TIP3   OH233904   4.756   2.619   7.443 -0.1296  0.8002  0.0433
 4090TIP3    H133905   4.671   2.611   7.398  0.2443 -2.2309 -0.2446
 4090TIP3    H233906   4.815   2.564   7.391  1.8748  2.3897  0.6034
 4091TIP3   OH233907   2.956   1.343   0.307  0.1981  0.6813 -0.4045
 4091TIP3    H133908   2.879   1.375   0.353 -0.2837 -1.8341  0.6202
 4091TIP3    H233909   3.025   1.342   0.374  0.5238  0.7837 -0.7370
 4092TIP3   OH233910   3.103   6.466   7.967  0.5940  0.3682  0.1689
 4092TIP3    H133911   3.013   6.462   7.999  0.8308  0.1630  0.8202
 4092TIP3    H233912   3.097   6.511   7.883 -0.3280 -1.0587 -0.5535
 4093TIP3   OH233913   1.623   6.693   7.093  0.5201 -0.3615  0.0174
 4093TIP3    H133914   1.536   6.725   7.115  1.4743  0.3309  3.0569
 4093TIP3    H233915   1.666   6.768   7.052  0.6581  0.2780  1.3040
 4094TIP3   OH233916   2.140   1.698   2.112 -0.0735  0.1116  0.4326
 4094TIP3    H133917   2.174   1.613   2.084  0.7146  0.9056 -1.0862
 4094TIP3    H233918   2.165   1.705   2.204  0.6237 -0.9204  0.3250
 4095TIP3   OH233919   3.054   4.719   1.366  0.5187 -0.1286 -0.1869
 4095TIP3    H133920   2.967   4.680   1.361  0.8042 -0.8484  0.3689
 4095TIP3    H233921   3.039   4.805   1.404 -0.0817  0.2038 -1.1492
 4096TIP3   OH233922   4.650   5.730   1.767  0.2752 -0.0428  0.6259
 4096TIP3    H133923   4.727   5.727   1.824  0.1838  0.5951  0.7960
 4096TIP3    H233924   4.642   5.823   1.744 -1.9184  0.3300  2.6738
 4097TIP3   OH233925   2.345   6.085   1.782  0.0753  0.1518 -0.2325
 4097TIP3    H133926   2.357   5.993   1.805 -0.2182  0.0430 -0.5059
 4097TIP3    H233927   2.433   6.123   1.789  0.3451 -0.3345 -0.9052
 4098TIP3   OH233928   1.368   0.340   1.641  0.7216 -0.3285  0.4014
 4098TIP3    H133929   1.387   0.374   1.728  0.2027  0.3642  0.2495
 4098TIP3    H233930   1.454   0.330   1.599  0.9353 -0.1639  0.8051
 4099TIP3   OH233931   2.845   5.767   0.635  0.0385 -0.2004 -0.4758
 4099TIP3    H133932   2.815   5.684   0.671  0.1992 -0.3024 -0.5777
 4099TIP3    H233933   2.859   5.750   0.542 -1.5311  0.3705 -0.8313
 4100TIP3   OH233934   6.132   0.400   1.889  0.2788 -0.3385 -0.1386
 4100TIP3    H133935   6.188   0.476   1.898  0.8370 -0.8604  0.8545
 4100TIP3    H233936   6.043   0.434   1.893  0.5295  0.2199  0.5501
 4101TIP3   OH233937   1.369   3.069   1.373  0.1318  0.0496 -0.1466
 4101TIP3    H133938   1.460   3.053   1.400  0.0849  1.5870  0.9967
 4101TIP3    H233939   1.329   2.982   1.370  1.1568 -0.4792  1.1134
 4102TIP3   OH233940   3.348   1.521   1.588  0.1943  0.1790  0.5050
 4102TIP3    H133941   3.362   1.601   1.638 -1.5833 -0.7418  2.5471
 4102TIP3    H233942   3.418   1.462   1.616  1.4963  0.9677 -0.9914
 4103TIP3   OH233943   2.029   3.499   1.679  0.2769  0.0424 -0.1225
 4103TIP3    H133944   1.997   3.562   1.743  0.3755 -0.0173 -0.0132
 4103TIP3    H233945   2.042   3.418   1.729  1.7274  0.3895  0.0959
 4104TIP3   OH233946   3.172   2.098   2.416 -0.0033 -0.4126  0.3442
 4104TIP3    H133947   3.188   2.080   2.324 -2.1106  0.4993 -0.2186
 4104TIP3    H233948   3.231   2.170   2.438 -0.1515 -0.0226 -0.5279
 4105TIP3   OH233949   3.310   6.061   6.710 -0.9635  0.0572 -0.2053
 4105TIP3    H133950   3.219   6.030   6.711 -0.4680 -1.3719  1.8408
 4105TIP3    H233951   3.361   5.988   6.746  0.7282  1.6826  0.7623
 4106TIP3   OH233952   2.452   0.000   8.209  0.0091 -0.2226  0.3084
 4106TIP3    H133953   2.415   0.063   8.270 -0.7411  0.2770 -0.6428
 4106TIP3    H233954   2.525   0.047   8.168  0.5548 -0.5794  0.8565
 4107TIP3   OH233955   5.654   6.112   0.016 -0.6810  0.1406  0.4367
 4107TIP3    H133956   5.717   6.162   0.069 -0.1534  0.2614 -0.3035
 4107TIP3    H233957   5.654   6.025   0.056  1.3857 -0.4192 -0.6954
 4108TIP3   OH233958   3.655   3.363   1.536  0.1018 -0.0395  0.3008
 4108TIP3    H133959   3.670   3.297   1.604 -0.2680  1.1703  1.5745
 4108TIP3    H233960   3.563   3.352   1.512  0.7903 -1.9551 -1.6332
 4109TIP3   OH233961   1.985   7.141   7.472 -0.4061 -0.5735  0.0548
 4109TIP3    H133962   1.905   7.192   7.485  0.5327  0.7768  0.6337
 4109TIP3    H233963   2.056   7.202   7.491  0.7322 -2.5654  2.5615
 4110TIP3   OH233964   2.601   0.631   1.416 -0.2065 -0.0230  0.0939
 4110TIP3    H133965   2.634   0.632   1.506  0.9597  0.4960 -0.3375
 4110TIP3    H233966   2.536   0.701   1.414  1.0662  1.1676  0.0491
 4111TIP3   OH233967   4.316   6.875   7.307 -0.5075 -0.4027 -0.0464
 4111TIP3    H133968   4.238   6.905   7.354 -0.6437 -0.3168 -0.3275
 4111TIP3    H233969   4.282   6.833   7.228 -0.2834 -0.6476 -0.0131
 4112TIP3   OH233970   0.265   5.825   7.529  0.5507 -0.1793 -0.7214
 4112TIP3    H133971   0.330   5.860   7.591 -0.9286  1.3073  0.0468
 4112TIP3    H233972   0.315   5.807   7.450  2.1202 -0.1580  0.2305
 4113TIP3   OH233973   3.199   1.479   0.933 -0.5562  0.1347  0.0999
 4113TIP3    H133974   3.251   1.450   0.858 -2.1343 -2.5344 -0.0537
 4113TIP3    H233975   3.142   1.404   0.952 -0.8401  1.1183  3.3732
 4114TIP3   OH233976   3.644   2.097   0.864 -0.4056  0.2074  0.3096
 4114TIP3    H133977   3.661   2.111   0.957 -1.6728 -0.2120  0.6108
 4114TIP3    H233978   3.679   2.011   0.845 -3.0096 -1.0913  1.1636
 4115TIP3   OH233979   1.505   7.165   1.835  0.0507  0.0100 -0.5337
 4115TIP3    H133980   1.596   7.190   1.816  0.2928 -0.9547 -0.6956
 4115TIP3    H233981   1.457   7.247   1.833  0.9451  0.5458 -0.3289
 4116TIP3   OH233982   5.333   4.823   7.700 -0.1556 -0.8035 -0.0697
 4116TIP3    H133983   5.301   4.739   7.667 -2.4502  0.2060 -0.5292
 4116TIP3    H233984   5.307   4.887   7.633  2.2874  0.1890 -0.1298
 4117TIP3   OH233985   2.992   1.275   7.784 -0.2795 -0.0353  0.5013
 4117TIP3    H133986   3.048   1.350   7.766  0.1098 -0.4293  0.0615
 4117TIP3    H233987   3.050   1.199   7.780 -0.6850 -0.3726  0.8583
 4118TIP3   OH233988   3.481   4.126   1.696  0.5263 -0.3559  0.7735
 4118TIP3    H133989   3.400   4.142   1.745 -0.4377 -0.5337 -0.7264
 4118TIP3    H233990   3.452   4.086   1.614  2.3961 -3.5338  1.6047
 4119TIP3   OH233991   2.958   1.335   1.597 -0.2604 -0.0781 -0.0227
 4119TIP3    H133992   2.871   1.372   1.580 -0.0419  1.4838  2.1078
 4119TIP3    H233993   2.947   1.287   1.679  0.3200 -1.9086 -0.9905
 4120TIP3   OH233994   2.075   6.726   0.454  0.1155 -0.5058 -0.5389
 4120TIP3    H133995   2.065   6.708   0.360  1.5503  3.2216 -1.5110
 4120TIP3    H233996   2.036   6.813   0.466  2.5478  0.3456  1.7062
 4121TIP3   OH233997   1.867   0.052   8.498  0.3393  0.5328  0.9071
 4121TIP3    H133998   1.909   0.097   8.425  1.1717  1.8828  2.1762
 4121TIP3    H233999   1.798   0.111   8.527  0.3770  0.2690  1.5537
 4122TIP3   OH234000   3.890   2.930   8.363 -0.1835  0.6113 -0.5897
 4122TIP3    H134001   3.880   3.024   8.376  0.7860  0.5473  0.7091
 4122TIP3    H234002   3.952   2.922   8.291  1.4954  0.9787  0.7835
 4123TIP3   OH234003   4.592   7.050   7.573 -0.0681  0.1177  0.3809
 4123TIP3    H134004   4.655   7.104   7.619 -2.3898  4.7991 -1.5969
 4123TIP3    H234005   4.520   7.039   7.634 -1.0019  2.1572 -0.2928
 4124TIP3   OH234006   5.050   6.916   8.454 -0.2055  0.3573  0.0399
 4124TIP3    H134007   5.080   6.849   8.392  0.0131  0.1359  0.3809
 4124TIP3    H234008   4.998   6.867   8.518 -0.6242  0.6197 -0.0945
 4125TIP3   OH234009   1.938   4.520   8.254 -0.3238  0.1056 -0.2240
 4125TIP3    H134010   1.986   4.492   8.332  2.5762  0.9948 -1.6031
 4125TIP3    H234011   1.930   4.615   8.263 -0.8256  0.0901 -0.5101
 4126TIP3   OH234012   3.348   0.873   1.365  0.2253 -0.6114  0.0007
 4126TIP3    H134013   3.341   0.952   1.418  1.5330 -0.6837  0.2939
 4126TIP3    H234014   3.257   0.844   1.352 -0.3948  1.8773 -1.5374
 4127TIP3   OH234015   3.883   7.103   0.025 -0.4782 -0.1598  0.2774
 4127TIP3    H134016   3.793   7.115  -0.004 -0.4552 -1.8720 -0.5844
 4127TIP3    H234017   3.932   7.173  -0.016 -0.8950 -1.0603 -1.8043
 4128TIP3   OH234018   1.701   6.896   1.078 -0.0267  1.0287  0.3186
 4128TIP3    H134019   1.776   6.912   1.134 -0.5260 -1.3311  1.7327
 4128TIP3    H234020   1.629   6.945   1.119  0.6658  3.2668 -1.0215
 4129TIP3   OH234021   4.965   6.800   1.439 -0.0428  0.0709 -0.1983
 4129TIP3    H134022   4.928   6.843   1.516  1.9502  0.8004  0.3691
 4129TIP3    H234023   4.976   6.708   1.466  1.7931  0.5779  0.8194
 4130TIP3   OH234024   4.625   0.069   2.140  0.3157  0.2658  0.3919
 4130TIP3    H134025   4.594   0.152   2.176 -0.8546 -0.2504  0.5854
 4130TIP3    H234026   4.552   0.008   2.152  0.9576 -0.6513 -0.2568
 4131TIP3   OH234027   3.442   2.285   1.537  0.4120  0.0420 -0.2926
 4131TIP3    H134028   3.375   2.246   1.481  0.2295  0.3547 -0.2915
 4131TIP3    H234029   3.485   2.350   1.481 -0.5072  1.1498  0.2632
 4132TIP3   OH234030   4.090   4.518   6.850  0.0835  0.0452 -0.0779
 4132TIP3    H134031   4.096   4.440   6.795  0.5201  0.3041 -0.3913
 4132TIP3    H234032   4.161   4.509   6.913 -1.3107 -0.9947  1.4037
 4133TIP3   OH234033   3.944   1.623   7.426 -0.0032 -0.4411  0.0475
 4133TIP3    H134034   3.919   1.666   7.508 -0.0312 -0.2032 -0.0851
 4133TIP3    H234035   4.039   1.635   7.421  0.0927 -1.0370  0.3760
 4134TIP3   OH234036   4.767   2.969   0.162 -0.2897  0.4814 -0.1906
 4134TIP3    H134037   4.769   2.910   0.087 -1.3619  1.1358 -0.7335
 4134TIP3    H234038   4.747   2.912   0.237  1.3703 -0.2661 -0.2786
 4135TIP3   OH234039   2.629   3.496   7.902 -0.2523  0.4900 -0.8662
 4135TIP3    H134040   2.697   3.552   7.940  1.1407 -0.6849 -1.5669
 4135TIP3    H234041   2.611   3.536   7.817  0.6073  0.0199 -1.2850
 4136TIP3   OH234042   1.933   2.348   1.400  0.5409 -0.3326 -0.3093
 4136TIP3    H134043   1.888   2.374   1.481  0.5083  0.2409 -0.5116
 4136TIP3    H234044   1.875   2.282   1.362 -0.0930  0.3345 -0.5193
 4137TIP3   OH234045   0.200   0.755   2.127 -0.0387  0.3360  0.1927
 4137TIP3    H134046   0.258   0.793   2.193 -0.5203  1.6590 -0.1235
 4137TIP3    H234047   0.123   0.728   2.177 -0.1492  0.7826  0.2678
 4138TIP3   OH234048   4.371   0.984   1.053  0.5678  0.7790  0.2666
 4138TIP3    H134049   4.350   1.072   1.082  0.7639  1.1217 -0.6182
 4138TIP3    H234050   4.380   0.991   0.957  0.7895 -0.1477  0.2106
 4139TIP3   OH234051   3.706   0.122   0.134 -0.2419 -0.1874  0.3913
 4139TIP3    H134052   3.798   0.144   0.151  0.6356 -2.8846 -0.6122
 4139TIP3    H234053   3.659   0.151   0.213  1.3400  1.8652  0.6116
 4140TIP3   OH234054   4.538   1.578   1.943 -0.2058  0.3552 -0.4382
 4140TIP3    H134055   4.533   1.555   1.850  1.7521  0.0667 -0.4813
 4140TIP3    H234056   4.509   1.499   1.988 -1.1531  0.4917 -0.7744
 4141TIP3   OH234057   4.836   1.566   1.938  0.1133 -0.2387 -0.1208
 4141TIP3    H134058   4.746   1.598   1.934  0.0085 -0.6265 -1.2351
 4141TIP3    H234059   4.872   1.602   2.019 -0.7027  0.8064 -0.2228
 4142TIP3   OH234060   1.822   7.009   0.860 -0.4001 -0.2359  0.0672
 4142TIP3    H134061   1.740   6.973   0.894 -1.0052 -0.2687 -1.4089
 4142TIP3    H234062   1.888   6.946   0.887 -0.9161 -0.4562  0.8593
 4143TIP3   OH234063   3.920   6.710   1.261 -0.2338 -0.3256 -0.5068
 4143TIP3    H134064   3.988   6.668   1.208  0.5133  1.9857 -1.4709
 4143TIP3    H234065   3.965   6.783   1.304 -1.9715  0.9206 -0.7304
 4144TIP3   OH234066   0.168   7.310   1.675 -0.7896 -0.2494 -0.2191
 4144TIP3    H134067   0.081   7.293   1.712 -0.1893 -2.0342  0.4552
 4144TIP3    H234068   0.213   7.361   1.742 -0.8236 -0.6060  0.0774
 4145TIP3   OH234069   2.455   0.553   0.402  0.5148 -0.5396  0.5620
 4145TIP3    H134070   2.470   0.591   0.489 -0.0078  0.6991  0.1225
 4145TIP3    H234071   2.361   0.537   0.398  0.1668  1.6388 -0.6512
 4146TIP3   OH234072   3.069   3.673   1.390  0.2704 -0.3839 -0.0168
 4146TIP3    H134073   3.018   3.595   1.409  1.0279 -0.5854  1.2702
 4146TIP3    H234074   3.105   3.699   1.475 -0.1648  1.5009 -0.3783
 4147TIP3   OH234075   4.409   5.857   1.534 -0.6644 -0.5249 -0.7402
 4147TIP3    H134076   4.457   5.900   1.604  0.7410  0.7800 -2.4792
 4147TIP3    H234077   4.322   5.841   1.571  0.1090 -0.0132  1.3424
 4148TIP3   OH234078   2.389   0.551   8.051  0.3401  0.4801  0.0492
 4148TIP3    H134079   2.398   0.489   7.978  1.2079 -2.0570  2.2336
 4148TIP3    H234080   2.438   0.511   8.123  0.3401  3.4004  1.7568
 4149TIP3   OH234081   6.698   0.867   1.636  0.4730  0.0401  0.4056
 4149TIP3    H134082   6.720   0.923   1.561 -1.2890 -0.3045 -0.4072
 4149TIP3    H234083   6.689   0.780   1.598  2.6022 -0.7058  1.5633
 4150TIP3   OH234084   1.396   4.255   1.759 -0.2139  0.8205  0.4797
 4150TIP3    H134085   1.453   4.332   1.756 -1.6850  1.8804 -1.0368
 4150TIP3    H234086   1.337   4.272   1.832  0.7029  0.2080  1.3816
 4151TIP3   OH234087   4.415   7.273   2.016  0.3795 -0.4141  0.0925
 4151TIP3    H134088   4.331   7.284   2.061  0.3686  0.4465 -0.1226
 4151TIP3    H234089   4.433   7.359   1.979  2.5154  0.0579  2.1237
 4152TIP3   OH234090   1.469   0.680   1.300  0.0239 -0.2372  0.5121
 4152TIP3    H134091   1.494   0.751   1.242  0.8675  0.9978  2.3312
 4152TIP3    H234092   1.453   0.605   1.242 -2.3153  1.7904 -1.5852
 4153TIP3   OH234093   2.705   0.299   2.316 -0.2735 -0.5657 -0.2435
 4153TIP3    H134094   2.796   0.321   2.297  0.0140 -0.5502  1.1002
 4153TIP3    H234095   2.704   0.203   2.316  0.5796 -0.6710  3.3013
 4154TIP3   OH234096   3.322   6.535   8.117 -0.0525  0.3523 -0.0288
 4154TIP3    H134097   3.239   6.524   8.070  0.1477  1.5102 -0.6689
 4154TIP3    H234098   3.335   6.629   8.121  0.9452  0.1981  0.6075
 4155TIP3   OH234099   1.641   4.994   8.239 -0.1193 -0.7017 -0.0675
 4155TIP3    H134100   1.572   4.972   8.176 -1.2014 -0.9980  1.1909
 4155TIP3    H234101   1.657   4.913   8.286 -0.7071 -0.0146  1.3477
 4156TIP3   OH234102   4.566   1.203   1.826  0.1703 -0.0652  0.1126
 4156TIP3    H134103   4.506   1.256   1.879  1.1417 -1.7097  2.9533
 4156TIP3    H234104   4.509   1.141   1.781 -0.5891  0.7321 -0.0385
 4157TIP3   OH234105   4.025   3.465   7.018 -0.0905 -0.1099 -0.2368
 4157TIP3    H134106   3.988   3.534   6.963 -0.5471 -0.1150  0.0585
 4157TIP3    H234107   4.102   3.505   7.058  0.3976 -0.1880 -1.0742
 4158TIP3   OH234108   6.584   6.508   1.766 -0.1080  0.3069 -0.2736
 4158TIP3    H134109   6.569   6.467   1.851 -0.9920 -0.9022 -1.0069
 4158TIP3    H234110   6.510   6.480   1.712  0.2623  1.3456 -1.3456
 4159TIP3   OH234111   1.498   6.325   0.375  0.6024  0.0687  0.2961
 4159TIP3    H134112   1.554   6.253   0.405  0.9696 -0.0544 -0.6515
 4159TIP3    H234113   1.452   6.354   0.453  0.9201 -0.7870  0.8085
 4160TIP3   OH234114   2.971   3.261   1.786 -0.3052  0.5533  0.1037
 4160TIP3    H134115   2.961   3.263   1.882  0.9702  0.3654  0.2429
 4160TIP3    H234116   2.882   3.243   1.754 -0.8696  1.2896  1.2197
 4161TIP3   OH234117   6.024   0.995   7.351  0.5304  0.6878  0.2934
 4161TIP3    H134118   6.119   0.984   7.348  0.4365 -0.2160  0.4700
 4161TIP3    H234119   5.993   0.967   7.265  0.3936  0.6372  0.3579
 4162TIP3   OH234120   1.762   5.230   8.351  0.5387 -0.3438 -0.1842
 4162TIP3    H134121   1.823   5.181   8.407  2.6731  0.3644 -1.7967
 4162TIP3    H234122   1.727   5.164   8.290  2.4825 -0.1498 -1.5672
 4163TIP3   OH234123   3.962   1.555   0.193  0.4130 -0.0730  0.2927
 4163TIP3    H134124   3.884   1.507   0.166 -0.8698  2.3531 -0.4799
 4163TIP3    H234125   4.035   1.500   0.164 -0.9594  0.2321 -4.1695
 4164TIP3   OH234126   3.750   2.897   1.801  0.0727  0.1805  0.2508
 4164TIP3    H134127   3.678   2.947   1.839  0.0630 -0.3246  0.9027
 4164TIP3    H234128   3.777   2.948   1.724 -0.9648  0.3864  0.0162
 4165TIP3   OH234129   6.847   6.244   0.231 -0.1443 -0.4533 -0.0736
 4165TIP3    H134130   6.766   6.217   0.274 -0.4377 -1.5687 -1.2840
 4165TIP3    H234131   6.917   6.201   0.281 -0.3842 -0.5784  0.1528
 4166TIP3   OH234132   4.622   2.528   0.157 -0.2136  0.0828 -0.4519
 4166TIP3    H134133   4.594   2.519   0.066  1.5206 -0.4628 -0.9356
 4166TIP3    H234134   4.664   2.445   0.178 -0.5967  0.2075  0.8478
 4167TIP3   OH234135   6.190   6.614   1.458  0.2608  0.1879  0.5896
 4167TIP3    H134136   6.133   6.663   1.399  0.9678  0.9383  0.5132
 4167TIP3    H234137   6.137   6.598   1.536 -0.3059  0.1873  0.1977
 4168TIP3   OH234138   4.146   2.779   1.764  0.2242 -0.7241 -0.1907
 4168TIP3    H134139   4.129   2.874   1.768 -0.0674 -0.7897  0.0925
 4168TIP3    H234140   4.069   2.739   1.804  0.6941 -1.0567  0.3866
 4169TIP3   OH234141   2.938   1.079   0.888 -0.6336  0.0387  0.3095
 4169TIP3    H134142   3.017   1.110   0.933  0.0366  0.7650 -1.3277
 4169TIP3    H234143   2.970   1.041   0.806 -2.0237  0.8303 -0.6208
 4170TIP3   OH234144   4.166   2.837   7.768  0.0061 -0.0225  0.1633
 4170TIP3    H134145   4.209   2.921   7.752  0.2477  0.5186  3.3797
 4170TIP3    H234146   4.236   2.772   7.766  0.5033  0.4364  2.0873
 4171TIP3   OH234147   5.580   1.936   7.394 -0.4615  0.1745 -0.1214
 4171TIP3    H134148   5.624   1.858   7.428 -1.1038 -1.0299 -1.9801
 4171TIP3    H234149   5.499   1.903   7.355 -1.6716  2.0210  0.7440
 4172TIP3   OH234150   3.541   0.066   1.413  0.2065 -0.0430  0.0805
 4172TIP3    H134151   3.479   0.050   1.342  0.8122 -0.3350 -0.3908
 4172TIP3    H234152   3.521   0.155   1.443 -0.5740 -0.2143  0.0738
 4173TIP3   OH234153   4.350   5.614   2.087 -0.1670 -0.4961 -0.0907
 4173TIP3    H134154   4.361   5.540   2.147  0.4617 -0.9434 -0.7600
 4173TIP3    H234155   4.272   5.660   2.120  0.1567 -0.7516  1.0586
 4174TIP3   OH234156   3.130   2.932   7.262 -0.1488  0.3007  0.0361
 4174TIP3    H134157   3.083   2.953   7.343  0.6496  0.9546  0.3416
 4174TIP3    H234158   3.063   2.896   7.204 -0.7696  0.0020  0.9216
 4175TIP3   OH234159   3.833   6.024   0.197 -0.0493  0.2199  0.1437
 4175TIP3    H134160   3.756   6.035   0.141  0.0040 -1.0278 -0.1979
 4175TIP3    H234161   3.907   6.034   0.137  0.0185 -0.5838  0.0918
 4176TIP3   OH234162   3.888   3.131   7.747 -0.1683  0.3396 -0.0374
 4176TIP3    H134163   3.884   3.162   7.837 -0.3170 -0.7960  0.3543
 4176TIP3    H234164   3.860   3.040   7.751 -0.3898  0.3327 -1.2656
 4177TIP3   OH234165   3.858   0.694   0.602  0.1514 -0.0720 -0.6059
 4177TIP3    H134166   3.933   0.656   0.647  0.2894  0.1613 -0.6373
 4177TIP3    H234167   3.882   0.693   0.510  0.8211  1.5465 -0.4712
 4178TIP3   OH234168   2.584   0.453   1.806 -0.1044 -0.4316  0.3893
 4178TIP3    H134169   2.615   0.492   1.888  3.3585 -2.0740 -0.0138
 4178TIP3    H234170   2.649   0.482   1.741 -1.8180 -0.6035 -1.4259
 4179TIP3   OH234171   5.729   6.552   7.858 -0.2195  0.3038  0.6091
 4179TIP3    H134172   5.771   6.638   7.869 -1.7239  0.9612  1.2515
 4179TIP3    H234173   5.679   6.539   7.938 -0.7071 -0.7812  0.1328
 4180TIP3   OH234174   4.277   3.604   7.401  0.1424  0.0769  0.3613
 4180TIP3    H134175   4.369   3.578   7.397 -0.2230 -1.8269  2.9103
 4180TIP3    H234176   4.246   3.597   7.311  2.2052 -0.2410 -0.3672
 4181TIP3   OH234177   0.489   0.576   1.602  0.6096 -0.1535  0.5546
 4181TIP3    H134178   0.516   0.615   1.685 -1.0222  0.1304  0.9800
 4181TIP3    H234179   0.547   0.615   1.537  0.1011  1.7361  1.1971
 4182TIP3   OH234180   3.937   2.006   1.660 -0.1192 -0.2390  0.0079
 4182TIP3    H134181   3.918   2.084   1.713 -0.2089  0.0444 -0.4381
 4182TIP3    H234182   3.997   2.037   1.593  0.5326 -0.7494  0.3529
 4183TIP3   OH234183   6.282   2.008   1.750  0.1809  0.3791  0.0935
 4183TIP3    H134184   6.321   2.081   1.798  1.1949  0.5815 -0.9888
 4183TIP3    H234185   6.287   1.934   1.810  0.8842  0.7699  0.5247
 4184TIP3   OH234186   5.481   2.497   2.103 -0.1091  0.2515 -0.5755
 4184TIP3    H134187   5.467   2.503   2.198  0.1098  0.3464 -0.5501
 4184TIP3    H234188   5.449   2.580   2.069  0.6232  0.5685 -0.4906
 4185TIP3   OH234189   4.457   0.780   2.135  0.3466  0.3334  0.1822
 4185TIP3    H134190   4.401   0.825   2.199 -0.4983 -0.8416  0.2944
 4185TIP3    H234191   4.535   0.835   2.128  0.1954  0.7623  1.7940
 4186TIP3   OH234192   6.227   0.153   0.706 -0.1735 -0.1850 -0.0887
 4186TIP3    H134193   6.319   0.151   0.680 -0.3834 -0.3427 -0.8020
 4186TIP3    H234194   6.215   0.240   0.745  0.0925  0.0938 -0.6384
 4187TIP3   OH234195   6.368   6.347   7.371  0.3477  0.3695 -0.5767
 4187TIP3    H134196   6.313   6.314   7.442 -0.4698  0.0956 -1.3188
 4187TIP3    H234197   6.367   6.442   7.381  0.1762  0.3322 -0.2530
 4188TIP3   OH234198   4.190   1.835   1.771  0.2615 -0.2516  0.2367
 4188TIP3    H134199   4.161   1.865   1.857  0.2073 -0.5401  0.3187
 4188TIP3    H234200   4.231   1.912   1.731 -3.5640  1.1468 -1.2226
 4189TIP3   OH234201   6.963   6.245   1.493 -0.0974  0.1047 -0.1492
 4189TIP3    H134202   6.975   6.310   1.562  0.9267  0.4465 -0.6452
 4189TIP3    H234203   6.958   6.296   1.413 -0.7308 -0.3308 -0.3888
 4190TIP3   OH234204   5.070   1.749   2.006  0.3391 -0.0424 -0.1550
 4190TIP3    H134205   5.090   1.826   2.058  1.6739 -0.8115  0.5091
 4190TIP3    H234206   5.040   1.684   2.070  1.6894 -0.8893 -0.3469
 4191TIP3   OH234207   2.444   3.168   6.296 -0.4125 -0.4475  0.1137
 4191TIP3    H134208   2.525   3.161   6.348  0.8775  0.4804 -1.7256
 4191TIP3    H234209   2.408   3.253   6.320  0.2424  0.0303 -0.5690
 4192TIP3   OH234210   1.824   2.104   6.544 -0.1112  0.8197  0.3665
 4192TIP3    H134211   1.839   2.069   6.632 -2.2383 -4.2163 -1.0642
 4192TIP3    H234212   1.874   2.047   6.486  0.4342  3.4129 -1.8355
 4193TIP3   OH234213   3.605   4.923   7.906  0.0408  0.5908  0.3218
 4193TIP3    H134214   3.652   4.863   7.964  2.1866  0.7259 -1.2285
 4193TIP3    H234215   3.673   4.975   7.864 -1.3274 -0.4758 -3.4294
 4194TIP3   OH234216   6.906   3.106   1.762  0.1849 -0.1961  0.8965
 4194TIP3    H134217   6.875   3.143   1.679 -0.3239 -1.1470  0.6597
 4194TIP3    H234218   6.999   3.092   1.748  0.2474  0.3584  0.7469
 4195TIP3   OH234219   4.602   1.517   0.413  0.0762  0.3187 -0.1398
 4195TIP3    H134220   4.681   1.534   0.361 -1.5793 -0.1550 -2.9641
 4195TIP3    H234221   4.631   1.461   0.484  2.3113  0.2303 -1.0789
 4196TIP3   OH234222   6.928   0.242   2.175  0.3247 -0.3375 -0.7975
 4196TIP3    H134223   6.835   0.245   2.151  0.4502 -0.2449 -1.2761
 4196TIP3    H234224   6.932   0.289   2.259  0.0427  0.2335 -1.1019
 4197TIP3   OH234225   3.765   1.181   0.810 -0.5394 -0.7689 -0.1370
 4197TIP3    H134226   3.775   1.086   0.816  0.5556 -0.6804 -0.4334
 4197TIP3    H234227   3.848   1.216   0.844  0.3902  0.0128 -3.0633
 4198TIP3   OH234228   6.098   0.399   0.035 -0.2553  0.3695 -0.3290
 4198TIP3    H134229   6.007   0.377   0.017 -0.7802  0.4011  2.1014
 4198TIP3    H234230   6.124   0.454  -0.039 -2.0446 -0.0659 -1.3168
 4199TIP3   OH234231   5.328   1.830   1.311 -0.1271 -1.0327  0.7611
 4199TIP3    H134232   5.335   1.788   1.397 -0.6035  1.4903  2.0868
 4199TIP3    H234233   5.296   1.919   1.330  0.9755 -0.0004 -1.9266
 4200TIP3   OH234234   5.495   3.610   7.068  0.0551  0.4224  0.0753
 4200TIP3    H134235   5.478   3.669   6.995 -1.2209 -1.1371 -0.9165
 4200TIP3    H234236   5.517   3.526   7.028 -0.1913 -0.3317  1.4598
 4201TIP3   OH234237   5.208   1.333   0.812 -0.2073 -0.0974 -0.2830
 4201TIP3    H134238   5.265   1.281   0.755 -0.4709 -0.0797 -0.5619
 4201TIP3    H234239   5.152   1.382   0.752 -2.3296 -2.0957  0.0019
 4202TIP3   OH234240   5.869   1.636   0.450 -0.1137 -0.2001  1.2978
 4202TIP3    H134241   5.819   1.714   0.475  0.9484  0.8400  0.2154
 4202TIP3    H234242   5.940   1.632   0.514  1.1842  1.0668 -0.0369
 4203TIP3   OH234243   3.715   3.242   2.202  0.0548 -0.2746 -0.2200
 4203TIP3    H134244   3.791   3.240   2.261 -0.8089 -0.2935  0.9033
 4203TIP3    H234245   3.642   3.267   2.258 -0.8495 -0.6773 -1.2151
 4204TIP3   OH234246   4.635   1.084   7.959  0.1676  0.1554 -0.2215
 4204TIP3    H134247   4.586   1.117   7.883 -0.9325 -0.8644  0.0272
 4204TIP3    H234248   4.574   1.024   8.002  1.4313 -0.6647  0.4481
 4205TIP3   OH234249   2.210   0.127   1.098 -0.4358  0.2189  0.0706
 4205TIP3    H134250   2.296   0.116   1.056 -0.7773  0.0224 -0.5829
 4205TIP3    H234251   2.209   0.060   1.167  0.2480  0.7471  0.6078
 4206TIP3   OH234252   4.840   1.266   1.993 -0.6309 -0.4003 -0.1504
 4206TIP3    H134253   4.795   1.347   1.969  0.1322 -0.7889 -3.1098
 4206TIP3    H234254   4.805   1.201   1.932  0.7131 -1.6892  0.4389
 4207TIP3   OH234255   6.225   5.835   0.611  0.3454 -0.0968  0.0178
 4207TIP3    H134256   6.147   5.791   0.578  0.4206  1.0690 -1.7986
 4207TIP3    H234257   6.295   5.805   0.553  0.6581  1.2474 -0.3278
 4208TIP3   OH234258   2.855   0.523   0.682  0.5896  0.2313 -0.1030
 4208TIP3    H134259   2.777   0.568   0.649  1.2967  0.3054 -1.7109
 4208TIP3    H234260   2.912   0.593   0.714  1.9223  0.5952 -3.0996
 4209TIP3   OH234261   3.648   1.644   1.602 -0.8445 -0.0821  0.1973
 4209TIP3    H134262   3.600   1.681   1.528  1.2910  0.6693 -0.8712
 4209TIP3    H234263   3.645   1.549   1.588  0.1679  0.0869 -1.2813
 4210TIP3   OH234264   5.241   4.833   7.991  0.0193  0.1002  0.3991
 4210TIP3    H134265   5.246   4.833   7.895  3.0455 -3.8515  0.4163
 4210TIP3    H234266   5.321   4.877   8.019  1.5108 -2.8725  1.0096
 4211TIP3   OH234267   7.193   7.264   2.239  0.2261 -0.1764 -0.2922
 4211TIP3    H134268   7.186   7.267   2.334 -1.5358  1.4217 -0.4501
 4211TIP3    H234269   7.167   7.174   2.216  2.2872 -1.1023  0.8000
 4212TIP3   OH234270   2.914   3.429   2.078 -0.3437 -0.3623  0.0771
 4212TIP3    H134271   2.911   3.469   2.165  2.3229 -0.0004  0.0678
 4212TIP3    H234272   2.915   3.503   2.018  1.4002 -0.4743 -0.0729
 4213TIP3   OH234273   4.515   0.180   1.867  0.1593  0.3124  0.0175
 4213TIP3    H134274   4.581   0.205   1.931  0.0847 -1.8815  0.9673
 4213TIP3    H234275   4.565   0.150   1.791  0.2396  1.0777 -0.2381
 4214TIP3   OH234276   2.050   0.636   0.350  0.0067  0.4185 -0.6646
 4214TIP3    H134277   2.051   0.663   0.441 -0.0803  0.1643 -0.5870
 4214TIP3    H234278   2.113   0.693   0.307  1.1887 -0.4772 -0.1556
 4215TIP3   OH234279   1.770   0.814   1.339  0.1294  0.0962 -0.5445
 4215TIP3    H134280   1.762   0.719   1.343 -1.4001  0.2740  0.8933
 4215TIP3    H234281   1.681   0.846   1.349  0.7371  1.7048 -0.1436
 4216TIP3   OH234282   5.001   0.856   0.286 -0.0398  0.8684 -0.7243
 4216TIP3    H134283   5.015   0.943   0.323  0.2481  1.9902 -3.3489
 4216TIP3    H234284   4.954   0.808   0.355  2.2917  2.1580  1.8552
 4217TIP3   OH234285   5.323   6.127   7.016  0.0095  0.2468 -0.6857
 4217TIP3    H134286   5.415   6.134   6.990  0.0771  2.4195  0.0388
 4217TIP3    H234287   5.322   6.155   7.107 -1.2248 -0.8550 -0.3438
 4218TIP3   OH234288   4.086   1.256   8.224 -0.3888  0.3733  0.1845
 4218TIP3    H134289   4.024   1.259   8.151 -0.3668 -1.4671  0.0672
 4218TIP3    H234290   4.167   1.225   8.185 -0.5505 -1.2541  1.0840
 4219TIP3   OH234291   3.989   1.170   6.958 -0.1701  0.4676  0.7922
 4219TIP3    H134292   3.948   1.120   6.887 -0.1847 -0.3713  1.3737
 4219TIP3    H234293   4.033   1.243   6.915 -2.0376  1.2279  0.1293
 4220TIP3   OH234294   5.787   1.881   0.639 -0.5875  0.2161 -0.3411
 4220TIP3    H134295   5.700   1.851   0.664 -1.1317  2.0433  0.0457
 4220TIP3    H234296   5.845   1.851   0.709 -0.7748 -1.5833 -0.9296
 4221TIP3   OH234297   3.273   0.410   8.385 -0.4803 -0.4012  0.0877
 4221TIP3    H134298   3.216   0.487   8.393  0.3900  0.2451  0.0305
 4221TIP3    H234299   3.302   0.393   8.475 -0.0026 -0.1631 -0.0241
 4222TIP3   OH234300   4.327   0.940   6.432  0.3311 -1.0630 -0.0305
 4222TIP3    H134301   4.348   0.868   6.373  1.8975 -0.7723  0.1510
 4222TIP3    H234302   4.411   0.980   6.453 -0.2122 -1.0148  2.2246
 4223TIP3   OH234303   5.265   7.098   1.086 -0.2195 -0.2222 -0.4052
 4223TIP3    H134304   5.229   7.170   1.035  0.8408 -0.7662 -1.9722
 4223TIP3    H234305   5.300   7.139   1.165  1.9222  1.2441 -2.0731
 4224TIP3   OH234306   6.700   0.633   1.503 -0.1185  0.4967  0.3289
 4224TIP3    H134307   6.677   0.555   1.554 -0.7956  1.0672  0.9146
 4224TIP3    H234308   6.786   0.613   1.466  0.6276  0.2585  2.1341
 4225TIP3   OH234309   4.491   5.956   7.219  0.8197  0.0705 -0.3672
 4225TIP3    H134310   4.487   6.045   7.185  1.2039  0.5397  0.7847
 4225TIP3    H234311   4.399   5.932   7.232  0.7594  0.9516  0.9523
 4226TIP3   OH234312   2.909   7.165   0.727  0.2178  0.0259 -0.5488
 4226TIP3    H134313   2.915   7.161   0.822 -1.1204 -1.7096 -0.5064
 4226TIP3    H234314   2.965   7.094   0.696  0.1286  0.1582 -1.0261
 4227TIP3   OH234315   5.324   4.845   0.687  0.2971  0.2940 -0.9974
 4227TIP3    H134316   5.382   4.853   0.762 -0.1249 -0.9488 -0.5297
 4227TIP3    H234317   5.350   4.763   0.644  1.0404  1.3589 -2.6432
 4228TIP3   OH234318   2.015   6.788   8.096 -0.1953  0.0338 -0.2016
 4228TIP3    H134319   1.972   6.874   8.097  0.6140  0.4402  1.1585
 4228TIP3    H234320   2.094   6.802   8.044  0.9055  0.6305  1.5650
 4229TIP3   OH234321   2.895   0.348   8.223 -0.0672  0.0775 -0.3709
 4229TIP3    H134322   2.918   0.440   8.204  1.4992 -0.0456  0.7929
 4229TIP3    H234323   2.888   0.345   8.318 -4.0532 -0.1544 -0.5903
 4230TIP3   OH234324   4.405   5.965   7.649 -0.7413  0.1589  0.2102
 4230TIP3    H134325   4.396   6.051   7.609 -0.9079  0.2446  0.4312
 4230TIP3    H234326   4.315   5.939   7.670 -1.1503 -1.8474 -3.5949
 4231TIP3   OH234327   7.037   7.175   1.381  0.4255 -0.2427  0.2105
 4231TIP3    H134328   7.037   7.174   1.477  1.0819 -0.9748  0.2131
 4231TIP3    H234329   7.054   7.266   1.357  2.5771 -0.4653  0.8081
 4232TIP3   OH234330   5.474   3.357   0.673  0.3069 -0.2874  0.5360
 4232TIP3    H134331   5.430   3.387   0.752 -0.2660  1.6273 -0.4772
 4232TIP3    H234332   5.536   3.427   0.652  0.3722 -0.7128 -0.7550
 4233TIP3   OH234333   5.024   1.626   2.470 -0.4410 -0.3213 -0.1664
 4233TIP3    H134334   5.089   1.583   2.415 -1.0704 -0.3460 -0.8960
 4233TIP3    H234335   4.997   1.558   2.533  2.9456  0.7257  2.6038
 4234TIP3   OH234336   3.663   1.867   0.681  0.5263  0.0470 -1.2338
 4234TIP3    H134337   3.746   1.820   0.680  1.1654  1.0057  1.5778
 4234TIP3    H234338   3.601   1.807   0.721  0.6127  0.4689 -0.4614
 4235TIP3   OH234339   0.188   4.689   7.187  0.2459 -0.0210  0.0436
 4235TIP3    H134340   0.187   4.648   7.101 -0.1296 -0.3464  0.1989
 4235TIP3    H234341   0.233   4.773   7.174 -1.4807  0.7814 -0.8588
 4236TIP3   OH234342   2.468   1.647   1.417 -0.1216  0.5725 -0.0371
 4236TIP3    H134343   2.520   1.574   1.386  1.7169  1.1344  1.5820
 4236TIP3    H234344   2.515   1.725   1.387 -1.2698  1.0938 -0.5135
 4237TIP3   OH234345   6.232   1.822   1.194  0.4876 -0.0614 -0.2834
 4237TIP3    H134346   6.278   1.906   1.199  0.5020 -0.0595 -0.4372
 4237TIP3    H234347   6.140   1.847   1.183  0.2389 -0.0531  1.6741
 4238TIP3   OH234348   4.915   1.140   0.111 -0.0093 -0.2903 -0.3076
 4238TIP3    H134349   4.982   1.120   0.176  0.6801  0.8242 -0.6675
 4238TIP3    H234350   4.954   1.113   0.027  0.0799  0.5501 -0.5403
 4239TIP3   OH234351   6.307   1.733   2.276 -0.0978 -0.3582  0.6324
 4239TIP3    H134352   6.336   1.748   2.366  1.6024  0.7349 -0.0784
 4239TIP3    H234353   6.216   1.763   2.275  0.1388  0.4112  1.7769
 4240TIP3   OH234354   4.300   6.028   6.717 -0.3507  0.5050  0.3020
 4240TIP3    H134355   4.231   6.067   6.664 -0.5098  1.0312  0.9033
 4240TIP3    H234356   4.357   6.101   6.740  1.4777 -0.2011 -1.7803
 4241TIP3   OH234357   3.961   1.767   1.305  0.1883  0.1779 -0.0256
 4241TIP3    H134358   3.876   1.803   1.328  0.0819 -0.7161  1.0077
 4241TIP3    H234359   3.946   1.719   1.224 -0.3175 -0.0388  0.1912
 4242TIP3   OH234360   2.563   1.707   1.686 -0.0486 -0.3126 -0.1179
 4242TIP3    H134361   2.489   1.682   1.742  1.5182 -3.0365  0.7876
 4242TIP3    H234362   2.529   1.699   1.597 -0.8034 -1.7332  0.2842
 4243TIP3   OH234363   3.612   2.734   0.423 -0.1662  0.5291 -0.3205
 4243TIP3    H134364   3.682   2.669   0.415  0.6807  1.3196  0.5143
 4243TIP3    H234365   3.533   2.688   0.394  0.2452 -1.1816  1.1609
 4244TIP3   OH234366   2.049   0.716   7.440  0.4254  0.4605  0.1643
 4244TIP3    H134367   1.963   0.726   7.480  0.9117 -0.7496  1.5075
 4244TIP3    H234368   2.110   0.746   7.507  1.1864 -0.7465  0.0088
 4245TIP3   OH234369   5.477   1.257   1.673  0.2992 -0.6377  0.2458
 4245TIP3    H134370   5.420   1.252   1.596  1.7887 -1.0540 -0.8471
 4245TIP3    H234371   5.542   1.323   1.651  0.4241 -0.3634  1.3814
 4246TIP3   OH234372   3.390   1.772   2.120  0.1314 -1.0104  0.0035
 4246TIP3    H134373   3.331   1.710   2.163  0.2996 -1.1712  0.0024
 4246TIP3    H234374   3.448   1.717   2.068  1.2594 -0.9494  1.1790
 4247TIP3   OH234375   0.949   3.602   1.597 -0.5506 -0.6635  0.3074
 4247TIP3    H134376   1.042   3.614   1.580 -0.2109 -1.9380  1.2142
 4247TIP3    H234377   0.938   3.508   1.609 -2.1087 -0.6277 -0.6567
 4248TIP3   OH234378   2.653   1.734   0.476  0.2343 -0.2065 -0.1088
 4248TIP3    H134379   2.572   1.683   0.472 -1.2011  2.0726 -0.3190
 4248TIP3    H234380   2.711   1.681   0.532 -1.2531 -2.0168 -0.2424
 4249TIP3   OH234381   0.337   5.779   0.630  0.0526  0.0295 -0.2191
 4249TIP3    H134382   0.264   5.838   0.650  0.5168  0.5954 -0.1644
 4249TIP3    H234383   0.329   5.709   0.695 -1.8046 -1.1550 -1.6832
 4250TIP3   OH234384   5.459   3.657   0.979  0.0637 -0.2212  0.1801
 4250TIP3    H134385   5.541   3.679   1.023  0.1785  0.9783 -0.6174
 4250TIP3    H234386   5.485   3.617   0.897 -0.1208  1.8167 -0.9013
 4251TIP3   OH234387   4.139   5.826   0.383 -0.3358 -0.4890 -0.0710
 4251TIP3    H134388   4.053   5.844   0.343  0.5537  2.0929 -0.9149
 4251TIP3    H234389   4.154   5.900   0.441  1.0675 -1.2262  0.5131
 4252TIP3   OH234390   3.881   1.137   2.219 -0.0017  0.2206 -0.4608
 4252TIP3    H134391   3.934   1.057   2.222  0.7287  0.7387  0.6552
 4252TIP3    H234392   3.931   1.201   2.269 -0.6002  1.3769 -1.3152
 4253TIP3   OH234393   3.081   1.077   1.312  0.0125  0.5909 -0.1770
 4253TIP3    H134394   3.013   1.034   1.260  3.3266 -3.4565 -1.4763
 4253TIP3    H234395   3.072   1.039   1.400 -0.2554  1.0935  0.0153
 4254TIP3   OH234396   3.883   4.518   0.859 -0.1722 -0.0486  0.4054
 4254TIP3    H134397   3.913   4.434   0.894  2.4709  0.2210 -1.0623
 4254TIP3    H234398   3.856   4.499   0.770 -0.7872  0.4322  0.4838
 4255TIP3   OH234399   3.334   6.307   1.885  0.0829  0.0406  0.1241
 4255TIP3    H134400   3.311   6.245   1.955  0.1876  0.7953  0.8274
 4255TIP3    H234401   3.379   6.378   1.930  0.8541  0.1499 -0.8252
 4256TIP3   OH234402   5.003   1.372   1.055  0.3868 -0.2562  0.0946
 4256TIP3    H134403   4.983   1.379   0.961 -1.4502 -0.5258  0.4405
 4256TIP3    H234404   5.063   1.297   1.061  2.4779  1.2550 -1.1122
 4257TIP3   OH234405   7.059   5.914   7.895  0.1982  0.4916  0.3796
 4257TIP3    H134406   7.150   5.885   7.910  0.7919  1.8443 -0.5323
 4257TIP3    H234407   7.035   5.873   7.812 -0.2707 -0.4093  0.9523
 4258TIP3   OH234408   4.667   4.734   1.773  0.0074 -0.0414 -0.1349
 4258TIP3    H134409   4.698   4.799   1.710  1.1139 -0.8947 -0.4695
 4258TIP3    H234410   4.713   4.755   1.855 -1.0341  0.7415  0.2582
 4259TIP3   OH234411   4.496   0.228   6.523 -0.6092 -0.1046  0.1351
 4259TIP3    H134412   4.441   0.302   6.500 -0.1302  0.4744  0.8279
 4259TIP3    H234413   4.580   0.247   6.481 -0.2504  0.1251  0.9596
 4260TIP3   OH234414   0.726   2.997   6.151 -0.6839 -0.0736 -0.1336
 4260TIP3    H134415   0.688   3.080   6.124 -1.6323 -0.7782 -0.9858
 4260TIP3    H234416   0.689   2.981   6.238 -0.8133  0.1857 -0.1422
 4261TIP3   OH234417   3.671   1.159   2.047  0.4084  0.4492  0.6793
 4261TIP3    H134418   3.674   1.254   2.040  1.3230  0.3717  0.0473
 4261TIP3    H234419   3.748   1.136   2.098  0.1078  0.0618  0.9540
 4262TIP3   OH234420   7.036   7.182   0.923 -0.1581 -0.3041 -0.9008
 4262TIP3    H134421   7.111   7.130   0.950 -0.6885 -0.6752 -0.1259
 4262TIP3    H234422   7.012   7.232   1.001 -0.8742 -0.3800 -1.0713
 4263TIP3   OH234423   3.716   2.929   7.854  0.2991 -0.1610  0.2447
 4263TIP3    H134424   3.699   2.981   7.776 -0.5625 -0.2433  0.3748
 4263TIP3    H234425   3.645   2.950   7.914  0.9896 -0.0470  1.0454
 4264TIP3   OH234426   6.252   2.045   0.926 -0.1051  0.0278  0.4515
 4264TIP3    H134427   6.157   2.036   0.932 -0.3358  1.7256 -0.3940
 4264TIP3    H234428   6.267   2.139   0.919  1.5985 -0.2574 -0.0115
 4265TIP3   OH234429   3.872   1.537   0.447 -0.3354 -1.0677  0.1298
 4265TIP3    H134430   3.856   1.443   0.445 -2.4646 -0.6939 -1.1294
 4265TIP3    H234431   3.900   1.559   0.358 -1.3874 -0.2536 -0.0050
 4266TIP3   OH234432   6.435   7.278   1.373  0.1029 -0.5951  0.6141
 4266TIP3    H134433   6.528   7.286   1.395 -0.2830  2.0542  1.5065
 4266TIP3    H234434   6.399   7.221   1.441  1.0692 -1.6560  0.2499
 4267TIP3   OH234435   4.302   0.857   1.306  0.2811 -0.0766 -0.0970
 4267TIP3    H134436   4.277   0.938   1.261  1.0403 -0.0526 -0.4847
 4267TIP3    H234437   4.303   0.790   1.237  0.4095 -0.2560  0.0786
 4268TIP3   OH234438   5.540   2.867   8.189 -0.1752 -0.0084  0.1553
 4268TIP3    H134439   5.480   2.863   8.263  0.5808  1.6649  0.8976
 4268TIP3    H234440   5.588   2.784   8.192  0.2139  0.2439  1.8848
 4269TIP3   OH234441   5.219   0.683   0.148  0.5371 -0.0436 -0.3126
 4269TIP3    H134442   5.141   0.722   0.188  0.3891 -1.8246  1.2001
 4269TIP3    H234443   5.292   0.727   0.191  0.3630 -0.4472  0.4100
 4270TIP3   OH234444   6.886   0.017   1.716  0.4576 -0.2779 -0.1183
 4270TIP3    H134445   6.963   0.073   1.721 -0.1236  0.4441  1.0164
 4270TIP3    H234446   6.918  -0.066   1.681  1.7792 -0.0512  0.5534
 4271TIP3   OH234447   2.160   1.970   6.621  0.5296  0.3571  0.6501
 4271TIP3    H134448   2.122   1.968   6.709  1.7592  3.0995  1.2906
 4271TIP3    H234449   2.222   1.897   6.621 -1.8264 -1.7625  0.8683
 4272TIP3   OH234450   4.635   0.584   1.208  0.4041 -0.7013 -0.2071
 4272TIP3    H134451   4.684   0.645   1.263 -0.4337  1.7631 -2.0901
 4272TIP3    H234452   4.701   0.541   1.154  0.7452  0.8071 -1.0140
 4273TIP3   OH234453   5.226   6.673   7.120  0.0060  0.0829 -0.0523
 4273TIP3    H134454   5.235   6.739   7.051  1.6906 -1.1656 -1.0635
 4273TIP3    H234455   5.139   6.688   7.156 -0.4344  1.5448 -1.6436
 4274TIP3   OH234456   6.038   5.295   1.610 -0.3113  0.3205  0.6403
 4274TIP3    H134457   6.071   5.374   1.653  1.7626  0.4034 -1.0116
 4274TIP3    H234458   6.090   5.224   1.647 -0.9847 -0.0486  0.8726
 4275TIP3   OH234459   4.774   6.895   1.622 -0.2791 -0.1292 -0.3403
 4275TIP3    H134460   4.730   6.917   1.704  2.5370 -2.8848  2.0328
 4275TIP3    H234461   4.740   6.809   1.599 -0.4954  0.3086 -1.6886
 4276TIP3   OH234462   3.685   0.421   7.281 -0.2066 -0.1953 -0.5828
 4276TIP3    H134463   3.613   0.475   7.312 -1.3336 -1.1659 -1.4631
 4276TIP3    H234464   3.660   0.331   7.304  1.2444 -0.4355  0.1107
 4277TIP3   OH234465   4.749   6.790   7.075  0.5357  0.2626 -0.4343
 4277TIP3    H134466   4.729   6.711   7.126  0.1762  0.9553  0.5005
 4277TIP3    H234467   4.842   6.807   7.092 -0.0344  1.5606  1.4867
 4278TIP3   OH234468   5.075   0.741   0.778  0.0497 -0.4834 -0.6032
 4278TIP3    H134469   5.062   0.779   0.865 -0.0305 -0.0604 -0.7960
 4278TIP3    H234470   5.150   0.683   0.787  1.4984  1.3131 -0.7851
 4279TIP3   OH234471   3.105   5.598   8.237  0.0036  0.2850  0.5807
 4279TIP3    H134472   3.109   5.670   8.173 -1.3704 -1.1523 -1.1543
 4279TIP3    H234473   3.024   5.613   8.284  0.3863  0.6189  1.1405
 4280TIP3   OH234474   5.439   1.484   0.090 -0.6710 -0.1741  0.1509
 4280TIP3    H134475   5.398   1.398   0.085 -2.0112  0.2977  2.2666
 4280TIP3    H234476   5.380   1.542   0.042 -0.8373 -0.0669  0.4828
 4281TIP3   OH234477   1.468   1.781   1.548  0.7401 -0.2503 -0.0819
 4281TIP3    H134478   1.383   1.765   1.506  0.3810 -0.6574  0.7886
 4281TIP3    H234479   1.501   1.694   1.570  1.6380 -0.1208 -0.9002
 4282TIP3   OH234480   5.290   1.401   0.390 -0.5729 -0.5022  0.1482
 4282TIP3    H134481   5.354   1.472   0.392 -2.7749  1.5218  1.7949
 4282TIP3    H234482   5.236   1.419   0.313 -1.5779  0.0820  0.9627
 4283TIP3   OH234483   3.866   2.081   0.446  0.2199 -0.0939 -0.2353
 4283TIP3    H134484   3.850   1.999   0.493 -1.3247  0.7133  0.6650
 4283TIP3    H234485   3.779   2.111   0.420  0.6281  2.0711  0.8292
 4284TIP3   OH234486   4.533   2.213   6.730 -0.5400 -0.2130 -0.0245
 4284TIP3    H134487   4.446   2.230   6.694  0.4624  0.4844 -2.2801
 4284TIP3    H234488   4.582   2.174   6.657  1.9071  2.2441  0.2004
 4285TIP3   OH234489   1.617   5.452   0.622  0.2470 -0.2221  0.2916
 4285TIP3    H134490   1.548   5.387   0.638 -1.2752  0.7835 -1.9997
 4285TIP3    H234491   1.605   5.517   0.691 -1.3425  0.1156 -0.2747
 4286TIP3   OH234492   5.779   2.121   5.902 -0.3383 -0.5431 -0.3834
 4286TIP3    H134493   5.834   2.081   5.835  1.0367 -0.6349  0.7756
 4286TIP3    H234494   5.691   2.119   5.865  0.9136  2.8985 -3.8322
 4287TIP3   OH234495   3.638   3.212   7.072  0.4032  0.1571  0.0735
 4287TIP3    H134496   3.656   3.297   7.032  0.1165  0.5744  0.8295
 4287TIP3    H234497   3.639   3.229   7.166 -2.4362 -0.1124  0.1730
 4288TIP3   OH234498   4.540   5.697   0.756  0.6260 -0.3425  0.0498
 4288TIP3    H134499   4.482   5.756   0.708  0.7801  0.3011  0.6353
 4288TIP3    H234500   4.505   5.697   0.845  1.2723 -0.2813  0.3086
 4289TIP3   OH234501   4.122   1.592   8.331 -0.0548  0.0441 -0.0570
 4289TIP3    H134502   4.151   1.503   8.352 -0.1927  0.1690  0.6797
 4289TIP3    H234503   4.026   1.586   8.335 -0.0640  1.1374  4.0100
 4290TIP3   OH234504   2.624   4.136   7.395  0.3700  0.1889  0.3813
 4290TIP3    H134505   2.697   4.195   7.373 -0.8848  2.0353  1.0019
 4290TIP3    H234506   2.595   4.165   7.481 -0.9564 -0.6676  0.2338
 4291TIP3   OH234507   3.133   0.181   8.228  0.7267  0.8714 -0.7667
 4291TIP3    H134508   3.173   0.254   8.276 -0.5947  2.0997 -1.4892
 4291TIP3    H234509   3.041   0.205   8.219 -0.4834 -2.4452  1.8557
 4292TIP3   OH234510   4.647   3.087   7.561 -0.2491  0.5139 -0.2991
 4292TIP3    H134511   4.699   3.116   7.486 -0.5077 -3.5793 -2.1610
 4292TIP3    H234512   4.713   3.057   7.624 -0.1812 -1.3721 -1.2371
 4293TIP3   OH234513   5.250   0.135   1.334  0.5466  0.3343 -0.2777
 4293TIP3    H134514   5.167   0.167   1.367  0.6686 -0.1529  0.5295
 4293TIP3    H234515   5.264   0.053   1.382  2.2691  1.2294  0.7984
 4294TIP3   OH234516   5.621   1.157   7.165 -0.1279 -0.7222  0.1658
 4294TIP3    H134517   5.702   1.115   7.136 -0.7890 -3.5698  2.2474
 4294TIP3    H234518   5.555   1.127   7.103 -0.2751 -1.2926  0.6042
 4295TIP3   OH234519   4.226   6.798   2.018 -0.7116 -0.4140 -0.4869
 4295TIP3    H134520   4.206   6.890   2.036 -2.4794 -0.3474 -2.6376
 4295TIP3    H234521   4.312   6.800   1.977 -0.2556  0.1669  0.4709
 4296TIP3   OH234522   6.439   6.373   1.539  0.1727  0.4310  0.6498
 4296TIP3    H134523   6.516   6.395   1.487 -0.2136 -1.3944 -0.7589
 4296TIP3    H234524   6.379   6.447   1.526  0.1054  0.0229 -1.4911
 4297TIP3   OH234525   3.027   2.198   1.377 -0.1374  0.1276  0.2213
 4297TIP3    H134526   3.005   2.272   1.435 -1.4781 -2.8099  3.6581
 4297TIP3    H234527   3.109   2.163   1.413  1.1111  0.5624 -2.0886
 4298TIP3   OH234528   3.115   0.745   1.767 -0.2349  0.0866 -0.1302
 4298TIP3    H134529   3.146   0.658   1.792  0.0471  0.3670  0.5235
 4298TIP3    H234530   3.184   0.804   1.799 -1.0180  0.6487  0.5509
 4299TIP3   OH234531   1.966   6.691   0.204  0.0873  0.4312  0.1571
 4299TIP3    H134532   1.995   6.614   0.155 -3.0145  0.3259 -1.6051
 4299TIP3    H234533   2.024   6.761   0.173 -0.0173 -0.2283 -1.6037
 4300TIP3   OH234534   3.889   1.111   1.257  0.0439 -0.4230 -0.4780
 4300TIP3    H134535   3.940   1.183   1.220  0.7411  0.0982  1.4151
 4300TIP3    H234536   3.830   1.085   1.187  0.6070  1.2020 -1.5990
 4301TIP3   OH234537   5.969   1.156   0.657  0.3482 -0.4939 -0.0786
 4301TIP3    H134538   5.979   1.061   0.656  0.8392 -0.4526  0.8325
 4301TIP3    H234539   5.986   1.183   0.567  0.8244 -1.2063 -0.2053
 4302TIP3   OH234540   3.017   0.493   1.459 -0.4478 -0.4030 -0.4137
 4302TIP3    H134541   2.989   0.495   1.368 -1.7123  0.1867 -0.0110
 4302TIP3    H234542   3.113   0.489   1.454 -0.3124  3.1354 -1.7479
 4303TIP3   OH234543   3.507   0.752   8.259 -0.3413 -0.3750 -0.2800
 4303TIP3    H134544   3.425   0.771   8.306  0.1626  0.7174  0.1805
 4303TIP3    H234545   3.479   0.729   8.171 -1.1271  0.5220 -0.2742
 4304TIP3   OH234546   4.628   1.127   0.086 -0.2103  0.2263 -0.5329
 4304TIP3    H134547   4.704   1.154   0.137  0.4411 -0.2819 -1.2189
 4304TIP3    H234548   4.620   1.192   0.017  0.9183 -0.8831 -1.7475
 4305TIP3   OH234549   3.556   3.487   6.655 -0.8079 -0.4022  0.4440
 4305TIP3    H134550   3.500   3.425   6.700  0.0255 -1.3394  0.2135
 4305TIP3    H234551   3.540   3.571   6.699 -1.1861 -0.9859  1.4288
 4306TIP3   OH234552   2.972   1.576   2.349  0.1093 -0.6267 -0.1281
 4306TIP3    H134553   2.969   1.485   2.319 -0.5796 -0.9791  0.9862
 4306TIP3    H234554   3.064   1.592   2.370 -0.0459 -1.6028  1.3039
 4307TIP3   OH234555   4.898   2.026   0.370 -0.2116 -0.2506 -0.3035
 4307TIP3    H134556   4.913   2.058   0.281  1.3124  0.9049  0.3485
 4307TIP3    H234557   4.882   2.106   0.422  2.8578 -0.5313  1.1933
 4308TIP3   OH234558   5.399   6.110   0.111 -0.0861  0.4442 -0.3296
 4308TIP3    H134559   5.487   6.103   0.074  0.0388  1.7237 -0.2999
 4308TIP3    H234560   5.368   6.020   0.117  0.3109  0.1345 -2.5313
 4309TIP3   OH234561   4.695   5.484   2.347  0.2435  0.0721 -0.4456
 4309TIP3    H134562   4.728   5.396   2.366 -2.0324 -0.5688  0.6564
 4309TIP3    H234563   4.600   5.473   2.337 -0.0700  2.3964 -0.3183
 4310TIP3   OH234564   2.776   2.919   0.222  0.3029 -0.1773  0.0441
 4310TIP3    H134565   2.686   2.920   0.256 -0.6535  1.9858 -2.4022
 4310TIP3    H234566   2.831   2.933   0.298 -1.5592  0.6814  1.2602
 4311TIP3   OH234567   3.375   2.108   0.764  0.3457 -0.2113  0.1774
 4311TIP3    H134568   3.468   2.093   0.781  0.1462 -0.7053  0.8494
 4311TIP3    H234569   3.370   2.123   0.670  0.8146 -2.4758 -0.2301
 4312TIP3   OH234570   3.243   3.796   1.617  0.4245  0.3687 -0.1547
 4312TIP3    H134571   3.260   3.730   1.684  0.3729  1.4672  0.9824
 4312TIP3    H234572   3.312   3.784   1.552  1.2861  0.1483  0.7924
 4313TIP3   OH234573   4.940   6.530   8.339 -0.6817  0.4805 -0.4476
 4313TIP3    H134574   4.847   6.532   8.361 -0.4086 -0.7596  0.9193
 4313TIP3    H234575   4.984   6.546   8.422  0.3478 -1.9921 -0.4490
 4314TIP3   OH234576   2.753   6.186   8.419  0.0958  0.2648  0.0634
 4314TIP3    H134577   2.682   6.191   8.355  1.2180  2.3307 -1.0911
 4314TIP3    H234578   2.796   6.102   8.402 -0.6796  0.0234 -0.7408
 4315TIP3   OH234579   4.574   0.035   7.779 -0.6664 -0.3520  0.3708
 4315TIP3    H134580   4.644  -0.026   7.803 -0.6676 -0.0773  1.1010
 4315TIP3    H234581   4.499  -0.021   7.759 -0.7789 -0.5850  1.4067
 4316TIP3   OH234582   3.653   1.366   1.615 -0.4171 -0.0238 -0.2999
 4316TIP3    H134583   3.701   1.285   1.601  1.1681  0.6868  0.9355
 4316TIP3    H234584   3.576   1.341   1.665  0.6789 -0.6120  1.1235
 4317TIP3   OH234585   6.609   3.884   8.277  0.0068  0.1290  0.3837
 4317TIP3    H134586   6.668   3.900   8.203 -0.4819  0.5432  0.0793
 4317TIP3    H234587   6.557   3.807   8.250 -0.0484  0.1709  0.3700
 4318TIP3   OH234588   0.084   3.129   1.866  0.2547  0.4007 -0.8647
 4318TIP3    H134589   0.078   3.082   1.949  0.0340 -2.4708 -2.4169
 4318TIP3    H234590   0.153   3.194   1.880  0.5592 -0.3644  1.4100
 4319TIP3   OH234591   4.789   4.848   1.260  0.0755 -0.2335 -0.5399
 4319TIP3    H134592   4.827   4.898   1.188 -0.4588  1.3329  0.2405
 4319TIP3    H234593   4.694   4.859   1.250  0.0119  0.6776  0.8560
 4320TIP3   OH234594   5.948   1.061   1.303 -0.4017  0.1613  0.0687
 4320TIP3    H134595   5.947   0.966   1.304 -3.4643  0.1331 -1.2750
 4320TIP3    H234596   5.999   1.085   1.381 -1.1164 -2.5369  1.4208
 4321TIP3   OH234597   4.447   0.499   0.858  0.4296 -0.3219  0.3826
 4321TIP3    H134598   4.528   0.448   0.859 -0.2067 -1.4130 -1.6989
 4321TIP3    H234599   4.421   0.501   0.766 -0.5608  2.1902  0.6780
 4322TIP3   OH234600   6.105   1.472   6.966 -0.2463  0.0163 -0.0560
 4322TIP3    H134601   6.038   1.425   6.917  0.3249 -0.3227 -0.5197
 4322TIP3    H234602   6.182   1.416   6.962 -0.0378  0.2351  0.7795
 4323TIP3   OH234603   5.349   1.948   6.753 -0.1854 -0.0984  0.0789
 4323TIP3    H134604   5.302   2.025   6.784 -0.1474  0.3665 -1.0191
 4323TIP3    H234605   5.362   1.895   6.832 -0.5316  0.8402  0.7730
 4324TIP3   OH234606   3.675   3.263   6.245  0.4816 -0.5173 -0.0788
 4324TIP3    H134607   3.660   3.356   6.265 -0.1821 -0.1782 -2.0508
 4324TIP3    H234608   3.719   3.264   6.160  0.2414 -2.0364 -0.2248
 4325TIP3   OH234609   1.756   6.282   8.191  0.7582 -0.7903 -0.0566
 4325TIP3    H134610   1.703   6.212   8.228  0.5673  0.1809  1.5708
 4325TIP3    H234611   1.805   6.317   8.265  2.4961 -0.6432 -1.2538
 4326TIP3   OH234612   4.018   0.158   0.907  0.1216 -0.2718 -0.1696
 4326TIP3    H134613   4.106   0.148   0.943  0.2473 -0.8323 -0.6222
 4326TIP3    H234614   4.031   0.200   0.822  0.1155 -2.0100 -1.0503
 4327TIP3   OH234615   5.280   6.696   2.290  0.3470  0.6031 -0.2447
 4327TIP3    H134616   5.238   6.615   2.319  2.4193 -0.9533 -1.4811
 4327TIP3    H234617   5.208   6.751   2.259 -1.0469 -0.8850  0.3313
 4328TIP3   OH234618   4.000   4.812   8.234 -0.0782 -0.4492  1.1938
 4328TIP3    H134619   4.044   4.894   8.258  2.2673 -1.2375 -0.2787
 4328TIP3    H234620   4.040   4.746   8.290 -0.0064 -1.0380  0.4584
 4329TIP3   OH234621   4.438   0.365   2.478 -0.2725 -0.5063  0.1178
 4329TIP3    H134622   4.492   0.369   2.399  1.2519 -1.6613  1.0764
 4329TIP3    H234623   4.451   0.451   2.519  0.7295 -0.7264  0.2721
 4330TIP3   OH234624   1.921   6.585   0.654 -0.4221 -0.4625  0.2463
 4330TIP3    H134625   1.936   6.634   0.734  0.1952 -0.5704  0.1943
 4330TIP3    H234626   1.953   6.642   0.584  1.3241 -1.3832  0.2691
 4331TIP3   OH234627   5.112   5.757   8.199  0.0635 -0.0680  0.0548
 4331TIP3    H134628   5.166   5.678   8.212  0.5165  0.0573 -0.9973
 4331TIP3    H234629   5.129   5.811   8.276  3.0868  0.9070 -1.2279
 4332TIP3   OH234630   7.050   3.388   6.649 -0.4628  0.0366 -0.1661
 4332TIP3    H134631   6.987   3.460   6.647  0.7483  1.0742 -1.4746
 4332TIP3    H234632   7.059   3.368   6.742 -1.1575  1.2793  0.1842
 4333TIP3   OH234633   3.244   2.035   0.280  0.5633  0.1221 -0.1299
 4333TIP3    H134634   3.238   1.943   0.307 -0.6870  0.0412 -0.6516
 4333TIP3    H234635   3.173   2.046   0.216  0.6611  1.4650 -0.0203
 4334TIP3   OH234636   3.312   2.154   1.337 -0.8824 -0.0570  0.0141
 4334TIP3    H134637   3.254   2.220   1.299 -0.1974 -0.1711 -1.2584
 4334TIP3    H234638   3.327   2.092   1.266  1.1756  0.2158  0.1871
 4335TIP3   OH234639   3.752   5.169   2.252  0.0020  0.2547  0.3103
 4335TIP3    H134640   3.721   5.081   2.271 -1.6817  0.5749 -0.8794
 4335TIP3    H234641   3.775   5.205   2.337 -1.5761 -0.4992  1.0775
 4336TIP3   OH234642   3.588   0.933   1.223  0.3401 -0.6513  0.4541
 4336TIP3    H134643   3.506   0.910   1.266  0.0436 -1.8132 -0.7171
 4336TIP3    H234644   3.585   1.029   1.217 -0.6582 -0.6418  0.9311
 4337TIP3   OH234645   3.371   2.045   1.074 -0.1979  0.0878  0.8260
 4337TIP3    H134646   3.411   2.026   0.989  0.4063 -0.4684  1.2407
 4337TIP3    H234647   3.336   2.134   1.064 -1.0403 -0.3525 -0.3524
 4338TIP3   OH234648   3.639   2.277   2.485  0.1920 -0.0146  0.6665
 4338TIP3    H134649   3.684   2.213   2.430 -1.5311  0.2758 -1.1380
 4338TIP3    H234650   3.704   2.344   2.504  1.0083 -0.5011 -0.4118
 4339TIP3   OH234651   6.281   4.969   1.040  0.2227 -0.2925  0.0724
 4339TIP3    H134652   6.254   4.985   1.131  1.1059  0.3401  0.2310
 4339TIP3    H234653   6.275   5.055   0.998 -0.9004 -0.7224 -0.6680
 4340TIP3   OH234654   3.612   4.319   1.829 -0.5622 -0.2497 -0.0679
 4340TIP3    H134655   3.577   4.252   1.770  1.2741 -2.1346  0.9232
 4340TIP3    H234656   3.588   4.289   1.917 -0.4973  0.8763  0.3463
 4341TIP3   OH234657   3.391   3.692   1.436 -0.0398 -0.1044  0.0110
 4341TIP3    H134658   3.329   3.631   1.396  0.4873 -0.5290 -0.1716
 4341TIP3    H234659   3.423   3.744   1.362  1.7709 -1.6277 -0.3379
 4342TIP3   OH234660   1.044   1.863   1.635 -0.1014 -0.4494  0.9930
 4342TIP3    H134661   1.070   1.954   1.647  0.4066 -0.4645  0.0520
 4342TIP3    H234662   0.996   1.840   1.715  1.3569  0.0697  2.0296
 4343TIP3   OH234663   4.467   2.928   0.074 -0.0312 -0.1792 -0.1250
 4343TIP3    H134664   4.493   2.953  -0.015 -0.2675  0.3112 -0.0592
 4343TIP3    H234665   4.473   3.009   0.125 -0.5515 -0.3077  0.1537
 4344TIP3   OH234666   2.671   1.721   7.771 -0.1545  1.2320 -0.0461
 4344TIP3    H134667   2.636   1.773   7.698 -0.1086  1.4165  0.0623
 4344TIP3    H234668   2.712   1.645   7.729 -0.7716  0.9637 -0.1641
 4345TIP3   OH234669   2.493   5.110   0.342 -0.2015  0.2928  0.5366
 4345TIP3    H134670   2.404   5.075   0.345  0.0913 -0.4773  0.2582
 4345TIP3    H234671   2.546   5.040   0.303  0.6519  0.4683  1.3489
 4346TIP3   OH234672   3.766   6.106   1.095  0.4644  0.4783 -0.2870
 4346TIP3    H134673   3.801   6.156   1.021 -0.5023  2.1146  0.3199
 4346TIP3    H234674   3.674   6.134   1.100  0.2684 -0.3721  0.9192
 4347TIP3   OH234675   4.245   3.162   1.123  0.6344 -0.4773  0.0587
 4347TIP3    H134676   4.327   3.205   1.096 -0.4267  0.5026 -1.7032
 4347TIP3    H234677   4.188   3.234   1.150 -0.5567 -0.9080 -1.2487
 4348TIP3   OH234678   7.236   1.347   1.718  0.4212  0.3695  0.2341
 4348TIP3    H134679   7.246   1.442   1.723 -0.9172  0.5026  0.5697
 4348TIP3    H234680   7.272   1.315   1.801  0.3769  0.6218  0.3505
 4349TIP3   OH234681   2.459   3.648   0.235  0.3803  0.3138  0.5753
 4349TIP3    H134682   2.523   3.611   0.296  0.5815 -1.3452 -0.5929
 4349TIP3    H234683   2.407   3.573   0.207  0.2622  1.0414 -1.2203
 4350TIP3   OH234684   5.494   0.133   8.051  0.6129 -0.1931  0.4554
 4350TIP3    H134685   5.532   0.219   8.072 -0.5872 -0.0102  2.0134
 4350TIP3    H234686   5.570   0.077   8.036  1.4501  0.7935  0.8961
 4351TIP3   OH234687   4.875   5.900   1.694  0.2887  0.5204 -0.4087
 4351TIP3    H134688   4.923   5.951   1.628 -0.5794  1.4917 -0.3015
 4351TIP3    H234689   4.934   5.828   1.716  2.9499  3.2124  1.7644
 4352TIP3   OH234690   5.475   4.125   2.562  0.0623 -0.4228 -0.2780
 4352TIP3    H134691   5.452   4.056   2.500  0.4457  0.2579 -1.1815
 4352TIP3    H234692   5.425   4.202   2.533 -1.3765 -0.6435  1.4805
 4353TIP3   OH234693   4.344   0.812   7.647 -0.5214 -0.5442  0.3227
 4353TIP3    H134694   4.308   0.739   7.697  1.4081 -0.6525  1.6106
 4353TIP3    H234695   4.334   0.888   7.704  0.5544 -0.4312  0.3698
 4354TIP3   OH234696   3.980   6.060   8.026 -0.5016  0.3236 -0.3458
 4354TIP3    H134697   4.015   5.977   7.993  1.2095  1.0060 -0.3325
 4354TIP3    H234698   3.934   6.098   7.951 -0.2272 -0.0738 -0.7187
 4355TIP3   OH234699   5.558   1.666   1.288 -0.5453 -0.1334  0.4130
 4355TIP3    H134700   5.509   1.746   1.305  0.5512 -0.2238  4.7413
 4355TIP3    H234701   5.649   1.694   1.284 -0.3807 -0.8149 -0.9903
 4356TIP3   OH234702   2.790   6.561   2.560  0.5386 -0.6657 -0.0899
 4356TIP3    H134703   2.768   6.592   2.472 -1.7660 -1.9062  0.0280
 4356TIP3    H234704   2.846   6.485   2.545  1.1363 -0.1595 -0.4586
 4357TIP3   OH234705   2.053   4.389   0.003 -0.1253 -0.2124  0.1049
 4357TIP3    H134706   2.060   4.412   0.096  1.7156 -0.6917  0.1008
 4357TIP3    H234707   2.026   4.297   0.004 -0.3127 -0.1588  0.1535
 4358TIP3   OH234708   4.368   2.047   1.694  0.4396  0.0298  0.6155
 4358TIP3    H134709   4.401   1.993   1.765 -1.1551 -0.6566  0.8378
 4358TIP3    H234710   4.379   2.137   1.725 -0.4210 -0.2740  1.7993
 4359TIP3   OH234711   5.316   3.019   1.356 -0.2681  0.0639 -0.1833
 4359TIP3    H134712   5.301   3.045   1.446  0.2975  1.0374 -0.3674
 4359TIP3    H234713   5.410   3.000   1.352 -0.3574 -0.3344 -0.4772
 4360TIP3   OH234714   3.573   2.624   6.543 -0.7222 -0.3760  0.1629
 4360TIP3    H134715   3.534   2.541   6.514 -0.3593 -0.5213  0.0922
 4360TIP3    H234716   3.667   2.608   6.544 -0.6721 -0.0872  0.5325
 4361TIP3   OH234717   6.182   3.353   1.574 -0.1263  0.4623 -0.2713
 4361TIP3    H134718   6.179   3.329   1.666  0.6151 -0.2440 -0.4302
 4361TIP3    H234719   6.090   3.357   1.547 -0.3665  1.1715  0.6187
 4362TIP3   OH234720   1.707   5.589   0.354 -0.1395 -0.3796  0.1827
 4362TIP3    H134721   1.630   5.534   0.343 -0.0338 -0.6643  0.8524
 4362TIP3    H234722   1.723   5.625   0.266 -1.8226  0.7351  0.2950
 4363TIP3   OH234723   4.370   6.683   6.880  0.0082  0.8737  0.1214
 4363TIP3    H134724   4.296   6.693   6.820  0.7424  1.0525 -0.7595
 4363TIP3    H234725   4.443   6.727   6.836  0.3180  1.8145  1.5719
 4364TIP3   OH234726   3.835   2.678   8.146 -0.0390  0.2898 -0.3753
 4364TIP3    H134727   3.885   2.734   8.088  0.8195  0.3275  0.3888
 4364TIP3    H234728   3.770   2.736   8.186  1.0198  0.8133  0.6197
 4365TIP3   OH234729   3.700   7.247   1.209 -0.1643  0.0130 -0.6428
 4365TIP3    H134730   3.653   7.296   1.276  2.3507 -0.0973  1.2518
 4365TIP3    H234731   3.788   7.284   1.208  0.3894 -1.2364 -2.6001
 4366TIP3   OH234732   4.135   3.213   7.957  0.6211  0.1279 -0.1962
 4366TIP3    H134733   4.043   3.192   7.973  0.4645  0.2807 -0.9039
 4366TIP3    H234734   4.158   3.165   7.877  0.9891  0.5812 -0.3625
 4367TIP3   OH234735   5.942   1.820   1.187 -0.4764 -0.4776  0.2845
 4367TIP3    H134736   5.904   1.770   1.259  0.7909 -0.8807  0.6830
 4367TIP3    H234737   5.875   1.818   1.119 -2.7246  2.0149  2.3305
 4368TIP3   OH234738   5.045   2.542   2.493 -0.3558  0.2145 -0.0273
 4368TIP3    H134739   5.092   2.620   2.523 -0.0702  0.2090 -0.4497
 4368TIP3    H234740   5.106   2.470   2.508 -0.0438  0.2637 -0.9885
 4369TIP3   OH234741   2.534   1.244   1.603  0.1294  0.5306  1.1570
 4369TIP3    H134742   2.451   1.280   1.636 -0.0479  0.2464  1.0262
 4369TIP3    H234743   2.587   1.321   1.583 -0.1586  0.7181  1.1043
 4370TIP3   OH234744   7.072   6.373   8.166 -0.0184  0.3027 -0.4024
 4370TIP3    H134745   7.067   6.310   8.094  0.8434  0.1342 -0.3296
 4370TIP3    H234746   7.044   6.456   8.128 -0.9690 -0.0863 -0.5524
 4371TIP3   OH234747   3.451   5.944   0.443  0.6317 -0.0018 -0.2253
 4371TIP3    H134748   3.499   6.025   0.423 -1.1225  1.5613  1.6937
 4371TIP3    H234749   3.448   5.941   0.538 -0.4255 -1.7035 -0.3002
 4372TIP3   OH234750   4.341   3.736   6.388 -0.3769 -0.5507  0.8862
 4372TIP3    H134751   4.435   3.741   6.371 -0.5052 -0.8060  0.0799
 4372TIP3    H234752   4.300   3.759   6.305 -1.0122 -2.3963  0.6618
 4373TIP3   OH234753   0.072   0.402   1.474  0.1954  0.1906  0.7129
 4373TIP3    H134754   0.164   0.403   1.502  0.5898  1.6185 -0.5429
 4373TIP3    H234755   0.022   0.402   1.555  1.3094 -0.7930  1.4141
 4374TIP3   OH234756   0.058   5.530   0.246 -0.0421  0.1089  0.3794
 4374TIP3    H134757   0.054   5.577   0.162  1.6884  1.2774  0.9314
 4374TIP3    H234758  -0.016   5.469   0.242  0.4146 -0.3459 -2.2793
 4375TIP3   OH234759   2.385   4.102   2.029 -0.2424  0.0559 -0.0262
 4375TIP3    H134760   2.478   4.086   2.042 -0.5860 -2.2331 -0.3119
 4375TIP3    H234761   2.350   4.115   2.117 -0.0958 -1.5681  0.2719
 4376TIP3   OH234762   6.815   6.893   6.775  0.7745  0.0886 -0.7518
 4376TIP3    H134763   6.762   6.963   6.814 -0.4599 -0.6527 -1.0830
 4376TIP3    H234764   6.752   6.827   6.747  1.9661 -1.4922  0.1823
 4377TIP3   OH234765   0.636   0.344   1.647 -0.3823  0.6669  0.0532
 4377TIP3    H134766   0.619   0.416   1.708 -0.6107  1.0985 -0.5233
 4377TIP3    H234767   0.551   0.322   1.610 -0.4154 -0.3148  0.6826
 4378TIP3   OH234768   7.178   6.170   1.700 -0.1225 -0.3441  0.2073
 4378TIP3    H134769   7.219   6.168   1.787  1.1390 -1.7538 -0.3933
 4378TIP3    H234770   7.087   6.147   1.716  0.1543 -0.8420  1.1281
 4379TIP3   OH234771   2.049   0.305   1.777 -0.6381  0.2344  0.6165
 4379TIP3    H134772   2.127   0.344   1.738  0.1794 -0.3375  1.6758
 4379TIP3    H234773   2.051   0.332   1.868 -0.4521 -1.6463  1.1949
 4380TIP3   OH234774   5.877   0.357   1.582 -0.6462  0.0845 -0.2840
 4380TIP3    H134775   5.838   0.358   1.494 -1.0867  2.4921 -0.0939
 4380TIP3    H234776   5.802   0.343   1.641 -0.4558 -0.7487 -0.2318
 4381TIP3   OH234777   5.660   1.083   6.672  0.3717  0.3400  0.2593
 4381TIP3    H134778   5.740   1.050   6.631  0.8153 -0.0398  1.4126
 4381TIP3    H234779   5.614   1.128   6.602  1.3797  0.1619 -0.5266
 4382TIP3   OH234780   0.457   2.236   1.706 -0.4278  0.1911  0.0763
 4382TIP3    H134781   0.490   2.300   1.769 -1.0795 -0.2801  0.8968
 4382TIP3    H234782   0.483   2.271   1.620 -1.5700  2.0148  0.4550
 4383TIP3   OH234783   6.829   6.598   1.323 -1.1690 -0.6050 -0.0007
 4383TIP3    H134784   6.750   6.617   1.373 -0.9877  0.3681 -0.0779
 4383TIP3    H234785   6.816   6.508   1.291 -1.3771 -1.1510  1.5829
 4384TIP3   OH234786   0.635   1.427   2.140  0.0202 -0.6444  0.2341
 4384TIP3    H134787   0.610   1.358   2.201  0.3290 -0.9079  0.0606
 4384TIP3    H234788   0.723   1.453   2.168 -1.2096  1.6853  2.1239
 4385TIP3   OH234789   5.126   6.733   8.284  1.1340 -0.2423 -0.1070
 4385TIP3    H134790   5.092   6.650   8.249  2.5936 -0.5465 -0.8442
 4385TIP3    H234791   5.216   6.713   8.309  0.6876  0.4732  2.1182
 4386TIP3   OH234792   2.886   2.603   0.417  0.4012 -0.3400  0.6939
 4386TIP3    H134793   2.945   2.604   0.492  0.6721 -0.2140  0.4810
 4386TIP3    H234794   2.927   2.541   0.356  0.6765  0.2679  0.2561
 4387TIP3   OH234795   0.613   5.989   0.142  0.3145 -0.6991 -0.1271
 4387TIP3    H134796   0.591   5.945   0.224 -0.1048 -0.1755  0.0465
 4387TIP3    H234797   0.550   6.060   0.135  1.3208  0.2030 -0.1474
 4388TIP3   OH234798   0.727   2.055   2.073 -0.0708  0.4223  0.3043
 4388TIP3    H134799   0.808   2.088   2.034 -0.0551 -0.1308 -0.1446
 4388TIP3    H234800   0.751   1.970   2.110 -0.2203  0.6903  1.0271
 4389TIP3   OH234801   7.015   0.427   7.111 -0.0770 -0.3925 -0.0570
 4389TIP3    H134802   6.987   0.351   7.060 -0.3097  0.6507 -1.5393
 4389TIP3    H234803   7.100   0.451   7.073  0.6846 -0.7790  1.3708
 4390TIP3   OH234804   6.653   5.827   6.870  0.0089 -0.5051  0.0625
 4390TIP3    H134805   6.626   5.877   6.793 -0.1613 -0.6323  0.0387
 4390TIP3    H234806   6.665   5.893   6.939  0.7414 -0.3310 -0.2331
 4391TIP3   OH234807   0.227   5.331   7.206  0.4159 -0.1025 -0.2042
 4391TIP3    H134808   0.232   5.264   7.138  0.5719 -1.4289  1.1014
 4391TIP3    H234809   0.295   5.394   7.182  0.2498 -0.3864 -1.4512
 4392TIP3   OH234810   5.256   6.867   1.283 -0.5565 -0.1342  0.2430
 4392TIP3    H134811   5.239   6.913   1.365 -0.4742  0.9421 -0.3264
 4392TIP3    H234812   5.214   6.922   1.216 -0.0177 -0.6230 -0.5031
 4393TIP3   OH234813   5.945   0.531   0.510  0.1649  0.4474  0.5680
 4393TIP3    H134814   5.919   0.536   0.602 -1.1690  0.5899  0.1900
 4393TIP3    H234815   5.922   0.442   0.484  2.0578 -0.1383  0.8057
 4394TIP3   OH234816   7.147   0.190   2.364 -1.1110 -0.2457  0.5345
 4394TIP3    H134817   7.074   0.194   2.425 -1.4717  1.2622  0.0449
 4394TIP3    H234818   7.127   0.117   2.306 -2.8616  0.9206 -0.3569
 4395TIP3   OH234819   6.980   1.255   1.604 -0.0106  0.5155 -0.2056
 4395TIP3    H134820   7.067   1.294   1.606 -1.1323  3.1375 -1.1971
 4395TIP3    H234821   6.931   1.299   1.674 -0.2891 -1.6773  1.0517
 4396TIP3   OH234822   5.117   3.470   1.580 -0.5307 -0.3239 -0.0075
 4396TIP3    H134823   5.133   3.439   1.669 -0.4736  0.6856  0.3446
 4396TIP3    H234824   5.205   3.484   1.544 -0.5541 -0.7322 -0.2290
 4397TIP3   OH234825   3.719   0.362   1.423 -0.2158 -0.1533  0.1813
 4397TIP3    H134826   3.629   0.348   1.393 -0.9584  0.0494  2.2709
 4397TIP3    H234827   3.716   0.348   1.517  2.1539 -1.0623  0.1530
 4398TIP3   OH234828   4.706   5.881   2.105  0.6592  0.2926 -0.3047
 4398TIP3    H134829   4.623   5.883   2.058  0.8346  0.1753 -0.6260
 4398TIP3    H234830   4.703   5.801   2.157 -0.7318  1.8565  2.1087
 4399TIP3   OH234831   2.365   7.294   0.776 -0.1724  0.3314 -0.3923
 4399TIP3    H134832   2.382   7.384   0.803 -0.8801  1.3464 -3.0947
 4399TIP3    H234833   2.275   7.296   0.743  0.7738 -0.6078 -3.2240
 4400TIP3   OH234834   6.222   1.925   2.025 -0.6869  0.1697 -0.0734
 4400TIP3    H134835   6.202   1.891   2.113 -1.1258 -0.6047 -0.4671
 4400TIP3    H234836   6.290   1.990   2.040  0.6844 -1.3898  0.6241
 4401TIP3   OH234837   3.063   6.470   1.316  0.3801 -0.4309  0.1949
 4401TIP3    H134838   3.157   6.491   1.314  0.5407 -0.6748  2.6045
 4401TIP3    H234839   3.060   6.375   1.323 -0.2000 -0.8227 -4.1168
 4402TIP3   OH234840   6.667   0.302   2.115 -0.5222 -0.2183 -0.0247
 4402TIP3    H134841   6.633   0.367   2.052 -1.2442 -0.6417 -0.0763
 4402TIP3    H234842   6.603   0.231   2.113  0.2273 -0.9017  0.0970
 4403TIP3   OH234843   0.250   0.284   1.857  0.0522  0.1257  0.4435
 4403TIP3    H134844   0.312   0.213   1.876 -0.0337 -0.4793 -1.3714
 4403TIP3    H234845   0.298   0.364   1.876  0.7070 -0.3826  0.9587
 4404TIP3   OH234846   0.196   1.338   2.091  0.0138  0.1425  0.2906
 4404TIP3    H134847   0.229   1.427   2.105  1.3714 -0.1643 -0.8131
 4404TIP3    H234848   0.213   1.293   2.173 -1.4513  1.1256  1.1471
 4405TIP3   OH234849   2.145   3.684   0.728  0.1498  1.0365  0.0798
 4405TIP3    H134850   2.137   3.691   0.633  0.1043 -0.6440 -0.0472
 4405TIP3    H234851   2.198   3.606   0.742 -1.2340  0.3279  1.4683
 4406TIP3   OH234852   6.972   0.017   0.715  0.1113 -0.2085  0.3815
 4406TIP3    H134853   6.979  -0.057   0.775  0.5270  1.3948  2.3634
 4406TIP3    H234854   7.060   0.056   0.715  0.0119  0.0446 -0.9934
 4407TIP3   OH234855   0.024   5.855   8.253  0.1556 -0.3137 -0.2466
 4407TIP3    H134856  -0.014   5.890   8.172 -1.8640 -1.0461  0.3486
 4407TIP3    H234857   0.102   5.909   8.268 -0.4487  1.0217 -1.7051
 4408TIP3   OH234858   3.329   1.468   1.965 -0.0745 -0.0439  0.2003
 4408TIP3    H134859   3.417   1.505   1.954 -0.2641  0.3951  0.1636
 4408TIP3    H234860   3.345   1.379   1.998  0.3663  0.3442  1.0621
 4409TIP3   OH234861   5.993   4.480   0.304  0.7197  0.2446  0.2698
 4409TIP3    H134862   6.078   4.474   0.347  1.4335 -3.6783 -1.4302
 4409TIP3    H234863   5.936   4.421   0.353  0.1071 -0.2579 -1.0109
 4410TIP3   OH234864   6.962   1.546   1.301 -0.6738 -0.0819  0.1038
 4410TIP3    H134865   6.910   1.493   1.240 -1.5008 -0.6870  1.3281
 4410TIP3    H234866   6.897   1.595   1.351 -0.0551 -0.5433  1.3756
 4411TIP3   OH234867   1.497   1.399   2.019  0.0381 -0.0708 -0.1185
 4411TIP3    H134868   1.431   1.467   2.014 -1.7161 -1.8202 -1.6371
 4411TIP3    H234869   1.504   1.379   2.113 -1.7176  0.0441  0.0550
 4412TIP3   OH234870   3.706   2.664   1.674  0.0086 -0.9248 -0.4776
 4412TIP3    H134871   3.765   2.716   1.728  0.5312 -1.5337 -0.4501
 4412TIP3    H234872   3.618   2.687   1.705  0.2799 -0.8642  0.2617
 4413TIP3   OH234873   4.390   0.728   0.167 -0.1931  0.3927  0.6338
 4413TIP3    H134874   4.303   0.740   0.127 -0.3916 -1.4603  0.4605
 4413TIP3    H234875   4.407   0.811   0.211 -1.3342  1.3805 -0.7107
 4414TIP3   OH234876   0.691   1.142   2.296 -0.2839  0.3840 -0.1927
 4414TIP3    H134877   0.617   1.203   2.303  0.8733  1.6662  1.1645
 4414TIP3    H234878   0.745   1.160   2.373  0.9822 -1.1733 -0.6846
 4415TIP3   OH234879   5.060   6.198   8.033 -0.8427  0.0643  0.5927
 4415TIP3    H134880   5.126   6.197   7.963  0.3373 -2.0365  1.6746
 4415TIP3    H234881   4.991   6.141   8.000  0.2729 -1.9218  1.6163
 4416TIP3   OH234882   6.554   5.966   0.354 -0.4674  0.6928 -0.1752
 4416TIP3    H134883   6.485   5.908   0.385 -0.5036  0.7807 -0.0884
 4416TIP3    H234884   6.574   5.935   0.266 -0.3836  0.4565 -0.0731
 4417TIP3   OH234885   4.904   1.827   7.673  0.3214  0.1552 -0.5560
 4417TIP3    H134886   4.896   1.733   7.653 -3.3832  0.2642  0.0737
 4417TIP3    H234887   4.887   1.871   7.590  0.6031  0.3111 -0.5322
 4418TIP3   OH234888   2.938   7.032   1.310  0.2579  0.6236  0.4281
 4418TIP3    H134889   3.029   7.057   1.326  0.5771 -0.3096  0.0445
 4418TIP3    H234890   2.895   7.115   1.287  1.3214  0.8379 -0.8616
 4419TIP3   OH234891   6.088   0.944   1.867 -0.4490 -0.3476  0.1625
 4419TIP3    H134892   6.019   0.940   1.933  0.9201 -1.3748  1.5801
 4419TIP3    H234893   6.170   0.937   1.917  0.5849 -2.2821 -1.6879
 4420TIP3   OH234894   5.774   1.265   2.088 -0.4087  0.0716 -0.0474
 4420TIP3    H134895   5.770   1.297   1.998 -1.1261 -1.4883 -0.5785
 4420TIP3    H234896   5.710   1.318   2.135  1.2123  2.0966 -0.0558
 4421TIP3   OH234897   5.975   4.635   8.393 -0.0297  0.5119  0.3663
 4421TIP3    H134898   5.957   4.544   8.417 -1.6582  1.0177  1.1120
 4421TIP3    H234899   5.966   4.684   8.475  0.4945  1.4067 -0.0995
 4422TIP3   OH234900   2.540   0.069   6.945  0.7006 -0.1238 -0.6024
 4422TIP3    H134901   2.618   0.055   6.891  1.0500  0.0980 -0.1612
 4422TIP3    H234902   2.473   0.097   6.884  1.0396 -0.0721 -0.9516
 4423TIP3   OH234903   6.655   1.649   2.050 -0.4200 -0.4211 -0.3349
 4423TIP3    H134904   6.650   1.725   2.109  1.0467  0.1242 -0.8911
 4423TIP3    H234905   6.732   1.601   2.080 -1.4728 -1.8286  0.1476
 4424TIP3   OH234906   5.568   1.250   0.251  0.3359  0.3968  0.1831
 4424TIP3    H134907   5.514   1.175   0.276 -1.5449  1.6401 -0.0775
 4424TIP3    H234908   5.514   1.300   0.189  1.6322  1.8571  0.1926
 4425TIP3   OH234909   4.920   7.240   1.370  0.5769  0.1053 -0.2137
 4425TIP3    H134910   4.917   7.333   1.390  0.4808  0.1645 -0.5090
 4425TIP3    H234911   4.837   7.206   1.403  2.4257 -0.6914  4.0014
 4426TIP3   OH234912   2.585   7.143   0.777 -0.1997 -0.4072 -0.0109
 4426TIP3    H134913   2.501   7.190   0.774  0.1268  0.1704 -0.2803
 4426TIP3    H234914   2.650   7.212   0.788  0.1854 -0.9147  0.8965
 4427TIP3   OH234915   3.227   5.595   7.883 -0.4035  0.7872 -0.0647
 4427TIP3    H134916   3.309   5.641   7.864  0.6675  0.6193  3.8113
 4427TIP3    H234917   3.251   5.530   7.949 -3.3759 -0.3506 -0.0411
 4428TIP3   OH234918   0.566   6.550   2.288  0.5364 -0.2746 -0.4549
 4428TIP3    H134919   0.518   6.538   2.206 -0.8240  0.9907  0.1352
 4428TIP3    H234920   0.529   6.629   2.327  0.2235 -1.5808  2.0234
 4429TIP3   OH234921   5.752   6.574   7.587  0.2800  0.4168  0.2340
 4429TIP3    H134922   5.669   6.579   7.540  0.3946  1.9033  0.1339
 4429TIP3    H234923   5.728   6.563   7.679 -0.1067  2.8113  0.4498
 4430TIP3   OH234924   4.796   7.221   7.910  0.0673  0.6803 -0.2274
 4430TIP3    H134925   4.815   7.187   7.997  0.1295  2.3240  0.4138
 4430TIP3    H234926   4.847   7.302   7.904  1.6913 -0.4676 -2.5704
 4431TIP3   OH234927   5.928   0.162   7.546 -0.6434 -0.4514 -0.5990
 4431TIP3    H134928   5.942   0.157   7.451  1.1194 -1.4897 -0.3182
 4431TIP3    H234929   6.001   0.112   7.583 -1.1866  0.1411  1.3171
 4432TIP3   OH234930   5.539   1.805   1.562  0.1353  0.7066 -0.1312
 4432TIP3    H134931   5.530   1.899   1.552  0.5377  0.9914  2.0358
 4432TIP3    H234932   5.541   1.790   1.656  2.0426 -1.2691 -0.4180
 4433TIP3   OH234933   0.094   5.017   7.304 -0.5925  0.4599  0.0044
 4433TIP3    H134934   0.164   4.991   7.244 -1.7075  0.0606 -1.1486
 4433TIP3    H234935   0.017   5.024   7.248 -1.3127  1.6500  1.1379
 4434TIP3   OH234936   5.893   0.878   7.148 -0.0275  0.6057  0.6740
 4434TIP3    H134937   5.818   0.849   7.200  1.0044 -0.3287  1.6501
 4434TIP3    H234938   5.885   0.829   7.066 -0.4340  0.4453  0.8071
 4435TIP3   OH234939   5.844   6.779   8.186 -0.4556  0.3572 -0.5759
 4435TIP3    H134940   5.936   6.754   8.195 -0.1071  0.7731 -2.6800
 4435TIP3    H234941   5.806   6.712   8.130 -1.6952 -0.3348  1.0460
 4436TIP3   OH234942   4.144   4.938   0.406 -0.7928  0.3706  0.7124
 4436TIP3    H134943   4.215   4.974   0.459 -0.1614 -0.3319  0.3544
 4436TIP3    H234944   4.109   4.866   0.459  2.0160 -2.5053 -1.2017
 4437TIP3   OH234945   7.218   6.593   7.952 -0.1211  0.3067 -0.4918
 4437TIP3    H134946   7.241   6.636   8.034  0.2927 -0.6624 -0.0873
 4437TIP3    H234947   7.132   6.629   7.930 -0.8107 -0.3476  1.0324
 4438TIP3   OH234948   6.896   0.416   1.687  0.2772  0.1212 -0.3758
 4438TIP3    H134949   6.814   0.366   1.686  0.3655 -0.0338 -2.1198
 4438TIP3    H234950   6.965   0.350   1.687  0.3911  0.2332 -0.8784
 4439TIP3   OH234951   6.260   2.839   1.017  0.0486  0.1779 -0.5043
 4439TIP3    H134952   6.282   2.931   1.006  0.3709  0.1938  0.2067
 4439TIP3    H234953   6.329   2.805   1.074 -0.9843 -0.1152  0.5967
 4440TIP3   OH234954   2.905   3.920   1.541  0.2607 -0.3978  0.0245
 4440TIP3    H134955   2.898   3.959   1.453  0.6193  1.4162  0.7725
 4440TIP3    H234956   2.976   3.970   1.583 -1.1746  0.0353  1.9926
 4441TIP3   OH234957   1.807   6.752   7.375  0.3542  0.1400  0.2768
 4441TIP3    H134958   1.889   6.796   7.354  0.2846 -0.7489 -1.9077
 4441TIP3    H234959   1.765   6.810   7.439  0.2240  3.3077 -2.5883
 4442TIP3   OH234960   2.803   7.252   1.227 -0.4204  0.0726  0.2136
 4442TIP3    H134961   2.808   7.347   1.219 -1.3424  0.0441 -0.8116
 4442TIP3    H234962   2.722   7.235   1.275 -1.3667 -0.2706 -1.4729
 4443TIP3   OH234963   5.619   1.667   7.447  0.9265  0.1816  0.0554
 4443TIP3    H134964   5.545   1.656   7.507  0.8174 -1.4236 -0.3410
 4443TIP3    H234965   5.696   1.641   7.498  1.0355  0.4561  0.0289
 4444TIP3   OH234966   0.872   1.161   2.490  0.0004 -0.2997  0.4272
 4444TIP3    H134967   0.923   1.136   2.567  1.7094 -2.0199 -1.2000
 4444TIP3    H234968   0.926   1.229   2.448 -1.1082  0.9050  0.9093
 4445TIP3   OH234969   6.577   5.129   0.358  0.0802  0.6498 -0.1537
 4445TIP3    H134970   6.615   5.084   0.282  1.4345  1.1899  0.1907
 4445TIP3    H234971   6.538   5.208   0.322 -0.7806  0.0554 -0.5244
 4446TIP3   OH234972   5.396   7.228   1.358  0.1361 -0.1440  0.2478
 4446TIP3    H134973   5.342   7.171   1.413  0.6272 -2.0507 -1.1973
 4446TIP3    H234974   5.485   7.195   1.369  0.4465  0.4243 -0.4991
 4447TIP3   OH234975   1.266   5.547   7.350  0.0134 -0.1619  0.3775
 4447TIP3    H134976   1.341   5.541   7.410  0.3011  0.3588  0.0674
 4447TIP3    H234977   1.303   5.582   7.269 -1.0226  2.4396  0.9996
 4448TIP3   OH234978   0.510   6.408   0.900  0.2323 -0.0814  0.0166
 4448TIP3    H134979   0.496   6.401   0.806  2.2839  2.5107 -0.5685
 4448TIP3    H234980   0.553   6.326   0.925 -4.8540 -2.9945 -0.2598
 4449TIP3   OH234981   2.675   0.665   7.889  0.2489  0.3298 -0.0772
 4449TIP3    H134982   2.650   0.677   7.981 -1.1785  0.6499 -0.4899
 4449TIP3    H234983   2.691   0.754   7.857 -0.1998  0.2977 -0.3935
 4450TIP3   OH234984   5.605   2.021   1.772 -0.4725  0.6270  0.8277
 4450TIP3    H134985   5.527   2.036   1.826 -0.2367  0.7014  1.1520
 4450TIP3    H234986   5.643   1.940   1.806 -1.6102 -0.6031 -0.7728
 4451TIP3   OH234987   4.805   7.095   0.651 -0.4049 -0.1564  0.2096
 4451TIP3    H134988   4.813   7.000   0.645 -0.0177 -0.0484 -1.1114
 4451TIP3    H234989   4.869   7.121   0.716  0.1650 -0.7070 -0.1312
 4452TIP3   OH234990   6.970   2.095   2.189  0.1686  0.2437 -0.3844
 4452TIP3    H134991   7.048   2.139   2.224 -0.6815  1.1071  0.4647
 4452TIP3    H234992   6.993   2.002   2.190  0.6613  0.3548  1.2762
 4453TIP3   OH234993   5.165   1.186   1.310  0.1993  0.4902 -0.7918
 4453TIP3    H134994   5.189   1.127   1.239 -1.0526 -0.2096 -0.6592
 4453TIP3    H234995   5.246   1.231   1.333  1.5278 -2.2357  0.1065
 4454TIP3   OH234996   5.734   6.818   0.365  0.1357 -0.1609  0.3730
 4454TIP3    H134997   5.673   6.823   0.438 -0.5099 -1.7660 -0.0319
 4454TIP3    H234998   5.775   6.732   0.374 -0.2679 -0.5668 -1.3901
 4455TIP3   OH234999   6.459   2.134   2.628 -0.6680 -0.2544 -0.0265
 4455TIP3    H135000   6.413   2.130   2.711 -0.3000  0.6937  0.2308
 4455TIP3    H235001   6.552   2.131   2.651 -0.5795 -1.9387 -0.5298
 4456TIP3   OH235002   7.169   1.683   1.142 -0.0507 -0.2241  0.1306
 4456TIP3    H135003   7.101   1.621   1.168  1.6619 -1.6068  1.4939
 4456TIP3    H235004   7.249   1.647   1.179  1.1871  2.2062 -0.0822
 4457TIP3   OH235005   6.607   6.740   1.103 -0.1034  0.0509  0.3660
 4457TIP3    H135006   6.686   6.739   1.048 -0.4362 -0.0054 -0.1120
 4457TIP3    H235007   6.641   6.745   1.193  0.4967 -1.8087  0.2574
 4458TIP3   OH235008   4.780   2.106   2.124  0.5003  0.2810 -0.3077
 4458TIP3    H135009   4.807   2.029   2.174 -0.1446 -0.0054 -0.3919
 4458TIP3    H235010   4.862   2.146   2.094  0.7970 -1.0290 -1.2736
 4459TIP3   OH235011   6.075   6.783   1.257 -0.0824 -0.0873 -0.0836
 4459TIP3    H135012   6.082   6.780   1.161 -0.7644 -0.7537 -0.1185
 4459TIP3    H235013   6.156   6.824   1.286  0.3496 -0.3465 -0.9165
 4460TIP3   OH235014   6.807   6.988   7.771  0.7228 -0.2175  0.4328
 4460TIP3    H135015   6.803   6.908   7.823 -1.6748 -0.1988  0.3257
 4460TIP3    H235016   6.758   7.052   7.822  1.7252  0.9003  0.0054
 4461TIP3   OH235017   4.367   1.932   0.645  0.5511 -0.0753  0.1010
 4461TIP3    H135018   4.331   1.963   0.561  0.8000 -1.2633 -0.4585
 4461TIP3    H235019   4.324   1.986   0.711  0.1952  0.7408 -0.7766
 4462TIP3   OH235020   0.914   1.468   1.928 -0.2589 -0.1541  0.0056
 4462TIP3    H135021   0.973   1.531   1.887 -0.0470 -0.2506  0.1588
 4462TIP3    H235022   0.854   1.442   1.858  0.6561 -0.9902 -0.4957
 4463TIP3   OH235023   5.894   0.285   2.228 -0.2121  0.1356 -0.5558
 4463TIP3    H135024   5.987   0.286   2.247 -0.1926  2.6833 -0.6034
 4463TIP3    H235025   5.870   0.192   2.228  2.3679 -0.5681 -0.8594
 4464TIP3   OH235026   1.032   2.537   1.917  0.1618 -0.0566  0.0314
 4464TIP3    H135027   1.071   2.509   1.999  0.4104  1.9075  0.5996
 4464TIP3    H235028   1.107   2.561   1.862 -0.0460 -0.6072 -0.5090
 4465TIP3   OH235029   5.959   6.319   1.444  0.0539  0.1899  0.5457
 4465TIP3    H135030   6.049   6.318   1.414 -0.1837 -3.6288 -0.3004
 4465TIP3    H235031   5.965   6.315   1.539  0.7541  0.1028  0.4976
 4466TIP3   OH235032   5.664   1.552   1.043  0.1885 -0.1362  0.0479
 4466TIP3    H135033   5.669   1.594   0.957 -0.7299 -1.1386 -0.5130
 4466TIP3    H235034   5.591   1.597   1.087 -0.9753 -1.2851 -0.6565
 4467TIP3   OH235035   6.026   3.088   2.226 -0.4283 -0.2397  0.5074
 4467TIP3    H135036   5.997   3.109   2.314  1.9495  0.7785  1.0824
 4467TIP3    H235037   5.983   3.152   2.170  0.1007  0.7704  1.2456
 4468TIP3   OH235038   3.783   6.488   7.939 -0.2374 -0.2231  0.2015
 4468TIP3    H135039   3.865   6.455   7.976 -0.9381 -1.5820  0.5475
 4468TIP3    H235040   3.804   6.508   7.848  0.6329  0.0140  0.4496
 4469TIP3   OH235041   5.784   0.300   0.475 -0.2439 -0.1572 -0.2971
 4469TIP3    H135042   5.758   0.238   0.407 -0.6530 -1.3734  0.9399
 4469TIP3    H235043   5.859   0.258   0.518 -0.0882  0.5280  0.1044
 4470TIP3   OH235044   5.212   0.948   1.473  0.6379  0.2056  0.5310
 4470TIP3    H135045   5.225   0.854   1.462  0.4600  0.0800  1.4073
 4470TIP3    H235046   5.267   0.987   1.404  1.0331 -0.5175  0.4268
 4471TIP3   OH235047   1.520   5.509   6.565 -0.1822 -0.4311 -0.1528
 4471TIP3    H135048   1.609   5.473   6.571 -1.0142 -2.2924  1.3646
 4471TIP3    H235049   1.475   5.474   6.642 -2.7180 -0.8213 -1.7778
 4472TIP3   OH235050   2.233   0.813   7.644  0.1404 -1.1338 -0.4473
 4472TIP3    H135051   2.273   0.812   7.730  1.3146 -0.6433 -0.9792
 4472TIP3    H235052   2.217   0.906   7.625 -1.6747 -1.3413 -0.0575
 4473TIP3   OH235053   1.635   0.277   8.246 -0.2619 -0.1997 -0.2506
 4473TIP3    H135054   1.576   0.350   8.267 -1.1442 -1.0000  0.0860
 4473TIP3    H235055   1.696   0.274   8.319 -0.3755  0.0508 -0.1430
 4474TIP3   OH235056   0.340   1.633   1.904  0.3902  0.0284  0.0826
 4474TIP3    H135057   0.319   1.661   1.993 -0.0684 -1.8303  0.5948
 4474TIP3    H235058   0.303   1.545   1.898  0.6882  0.0220 -1.8547
 4475TIP3   OH235059   4.377   5.554   1.483  0.4469 -0.4208 -0.3784
 4475TIP3    H135060   4.417   5.611   1.417  1.6785  1.1362  1.6634
 4475TIP3    H235061   4.401   5.465   1.456  0.4129  0.1385 -2.3448
 4476TIP3   OH235062   5.526   5.372   1.502 -0.1897 -0.0627 -0.3047
 4476TIP3    H135063   5.598   5.323   1.542 -0.4198  0.5762  0.9459
 4476TIP3    H235064   5.539   5.364   1.408  0.5595 -1.3562 -0.0932
 4477TIP3   OH235065   6.895   0.402   1.328 -0.0941 -0.2166  0.2475
 4477TIP3    H135066   6.802   0.383   1.314  0.2589 -1.2118 -0.8679
 4477TIP3    H235067   6.933   0.396   1.240  0.9300  0.7111  0.6306
 4478TIP3   OH235068   6.066   3.266   8.346  0.2529  0.3491 -0.2281
 4478TIP3    H135069   6.084   3.179   8.309 -0.6659  0.8018 -1.7807
 4478TIP3    H235070   6.061   3.251   8.441 -0.1244 -1.3329 -0.4929
 4479TIP3   OH235071   6.683   3.337   0.145 -0.6198  0.9403 -0.0528
 4479TIP3    H135072   6.766   3.361   0.186 -0.5803  1.3291 -0.3583
 4479TIP3    H235073   6.696   3.353   0.052 -1.0021  0.8926 -0.1171
 4480TIP3   OH235074   0.782   0.235   1.426  0.6402 -0.4458  0.2211
 4480TIP3    H135075   0.755   0.270   1.511 -1.2235 -0.0651 -0.5097
 4480TIP3    H235076   0.835   0.304   1.388  1.1169 -0.4401  0.8814
 4481TIP3   OH235077   5.866   0.448   2.015  0.5587 -0.2765  0.0962
 4481TIP3    H135078   5.772   0.434   2.018  0.1755  2.2114  1.0044
 4481TIP3    H235079   5.900   0.408   2.095 -0.0475  0.8699  0.9383
 4482TIP3   OH235080   2.128   3.387   8.095 -0.2137 -0.2316 -0.0214
 4482TIP3    H135081   2.129   3.308   8.042  0.1673 -0.2586  0.0195
 4482TIP3    H235082   2.216   3.423   8.084  0.0088 -0.4763  0.9467
 4483TIP3   OH235083   5.928   1.875   7.553  0.6532 -0.3182 -0.0513
 4483TIP3    H135084   5.921   1.928   7.474 -3.3213  0.1066  0.4918
 4483TIP3    H235085   5.958   1.937   7.620  0.6915  0.1139 -0.4640
 4484TIP3   OH235086   4.923   3.295   1.774  0.0700  0.1003 -0.8553
 4484TIP3    H135087   4.978   3.241   1.831  0.5007 -0.7853 -2.0932
 4484TIP3    H235088   4.950   3.385   1.793  1.4753 -0.2919 -0.9774
 4485TIP3   OH235089   5.656   2.485   1.914  0.5898  0.0778  0.3523
 4485TIP3    H135090   5.592   2.506   1.981 -0.3268 -1.1148 -0.1188
 4485TIP3    H235091   5.741   2.498   1.956  0.0203 -0.8897  1.8222
 4486TIP3   OH235092   1.754   7.013   1.544  0.1362 -0.0025  0.1574
 4486TIP3    H135093   1.815   6.982   1.610  1.3519  4.2948  1.1807
 4486TIP3    H235094   1.683   7.053   1.594 -0.6161  0.2669 -1.1018
 4487TIP3   OH235095   5.176   0.871   6.976  0.0599 -0.4619  0.6206
 4487TIP3    H135096   5.231   0.898   6.903  0.8024  0.9126  1.6532
 4487TIP3    H235097   5.088   0.901   6.953  0.2811 -0.0813  0.2789
 4488TIP3   OH235098   5.503   1.612   2.149 -0.4210  0.2833 -0.1149
 4488TIP3    H135099   5.562   1.583   2.079  1.3650  1.1795  0.9953
 4488TIP3    H235100   5.526   1.557   2.224 -0.5939  1.0311  0.4927
 4489TIP3   OH235101   3.422   7.256   7.597 -0.0712 -0.0887 -0.2993
 4489TIP3    H135102   3.472   7.338   7.593 -1.3902  0.7817  0.7217
 4489TIP3    H235103   3.349   7.269   7.537 -0.5975 -0.2910  0.2849
 4490TIP3   OH235104   6.455   1.178   2.080  0.0229  0.2915 -0.1351
 4490TIP3    H135105   6.530   1.185   2.022  0.4849  1.6638  0.6188
 4490TIP3    H235106   6.481   1.225   2.159 -2.1552  2.0366 -0.4113
 4491TIP3   OH235107   4.460   1.988   1.438 -0.1587  0.2714  0.4840
 4491TIP3    H135108   4.454   2.015   1.529 -2.4310  1.3852  0.0508
 4491TIP3    H235109   4.400   1.913   1.431  1.7350 -1.2753  0.3908
 4492TIP3   OH235110   3.735   6.968   0.631 -0.4101 -0.6244 -0.1820
 4492TIP3    H135111   3.761   7.056   0.659  0.7340 -0.9363 -0.2667
 4492TIP3    H235112   3.694   6.930   0.709 -2.7505  0.6882 -0.7120
 4493TIP3   OH235113   1.545   0.838   1.110  0.4455  0.2038 -0.0438
 4493TIP3    H135114   1.464   0.855   1.062  0.2615  0.4483  0.3558
 4493TIP3    H235115   1.592   0.922   1.107  0.5354  0.1550  0.0093
 4494TIP3   OH235116   5.183   5.823   0.851 -0.3532 -0.2177  0.4226
 4494TIP3    H135117   5.130   5.899   0.875 -0.2547  0.4847 -1.5544
 4494TIP3    H235118   5.140   5.750   0.894 -1.3800  0.7159  1.0115
 4495TIP3   OH235119   7.073   5.065   0.168 -0.2729 -0.1906  0.2022
 4495TIP3    H135120   7.122   4.982   0.162  0.4788  0.0979  1.9604
 4495TIP3    H235121   7.011   5.051   0.240 -1.5073  0.1059 -0.7885
 4496TIP3   OH235122   5.550   3.784   1.805  0.1286  0.1983  0.0657
 4496TIP3    H135123   5.495   3.861   1.820 -1.5939 -1.2849  1.7106
 4496TIP3    H235124   5.597   3.772   1.888 -0.3039 -1.0182  0.1451
 4497TIP3   OH235125   4.571   0.908   8.407 -0.1863  0.6506 -0.4647
 4497TIP3    H135126   4.620   0.945   8.333 -0.7083  0.7517 -0.7588
 4497TIP3    H235127   4.564   0.980   8.470 -0.4588  0.8012 -0.6690
 4498TIP3   OH235128   4.991   6.079   7.772  0.2458 -0.1602 -0.5710
 4498TIP3    H135129   5.056   6.011   7.790 -0.3444 -0.7271 -0.5795
 4498TIP3    H235130   5.029   6.130   7.700 -0.3638 -1.8878 -2.1365
 4499TIP3   OH235131   4.473   0.280   7.696  0.2500 -0.5289 -0.2760
 4499TIP3    H135132   4.490   0.192   7.729  0.6065 -0.2530  0.2898
 4499TIP3    H235133   4.458   0.332   7.775 -2.5043 -0.5993 -0.6966
 4500TIP3   OH235134   1.179   0.490   1.950  0.6188 -0.9026 -0.3887
 4500TIP3    H135135   1.143   0.430   2.015  1.5677 -0.7862  0.2681
 4500TIP3    H235136   1.181   0.575   1.995 -0.6615 -0.3827 -1.2897
 4501TIP3   OH235137   3.671   5.643   7.832  0.1541  0.1282  0.0851
 4501TIP3    H135138   3.642   5.601   7.913  2.3627 -0.9202  0.3910
 4501TIP3    H235139   3.763   5.615   7.823  0.2299  1.0454 -2.2472
 4502TIP3   OH235140   4.861   1.018   0.508 -0.3762 -0.2652 -0.2569
 4502TIP3    H135141   4.784   0.961   0.506 -0.6527 -0.0223  2.0673
 4502TIP3    H235142   4.830   1.101   0.472 -1.3077 -0.0710  0.9481
 4503TIP3   OH235143   0.010   1.035   2.286  0.6501 -0.0768 -0.0040
 4503TIP3    H135144   0.024   1.129   2.295 -1.4113  0.2739 -0.2294
 4503TIP3    H235145   0.066   0.995   2.352 -0.0918  1.4378  1.5594
 4504TIP3   OH235146   6.406   7.335   1.088 -0.2701  0.1707  0.7134
 4504TIP3    H135147   6.486   7.386   1.075 -1.6889  2.8388  2.1101
 4504TIP3    H235148   6.392   7.334   1.182  0.3120 -3.8565  0.8544
 4505TIP3   OH235149   5.372   0.120   1.664 -0.3424 -0.3085 -0.7380
 4505TIP3    H135150   5.406   0.189   1.607  0.4704  1.5261  1.8816
 4505TIP3    H235151   5.448   0.064   1.682  0.1563  0.8986  1.0202
 4506TIP3   OH235152   5.833   6.715   2.120  0.2266  0.3220  0.5276
 4506TIP3    H135153   5.913   6.688   2.166  1.5547 -1.0720 -2.4687
 4506TIP3    H235154   5.818   6.804   2.149  1.0567 -0.4755  3.5758
 4507TIP3   OH235155   5.206   1.997   1.527 -0.1039 -0.0838 -0.3475
 4507TIP3    H135156   5.186   2.080   1.483  0.1595  1.1898  1.8754
 4507TIP3    H235157   5.244   2.023   1.611  0.5356 -2.4712  0.1245
 4508TIP3   OH235158   1.238   7.321   2.015 -0.1774  0.5896 -0.1628
 4508TIP3    H135159   1.154   7.335   2.058  0.4158 -0.4866  1.3950
 4508TIP3    H235160   1.259   7.229   2.032  2.3204  1.3732  1.3749
 4509TIP3   OH235161   3.674   0.691   7.040 -0.0490  0.7146  0.4265
 4509TIP3    H135162   3.706   0.643   6.964 -1.5096  0.0692  0.1964
 4509TIP3    H235163   3.608   0.633   7.078  0.5067  1.1208  2.0655
 4510TIP3   OH235164   4.566   3.055   1.472 -0.0259  0.2930 -0.2572
 4510TIP3    H135165   4.487   3.042   1.421 -0.7285 -2.6002  1.4687
 4510TIP3    H235166   4.596   2.967   1.494  3.6122  1.3087 -0.7377
 4511TIP3   OH235167   3.770   3.185   7.408 -0.1608 -0.2041  0.2330
 4511TIP3    H135168   3.697   3.247   7.403 -0.6957 -0.9169 -1.0165
 4511TIP3    H235169   3.810   3.188   7.322 -0.1912 -1.5819  0.1603
 4512TIP3   OH235170   6.344   6.924   1.397  0.1805 -0.5383 -0.1417
 4512TIP3    H135171   6.382   6.931   1.309 -1.9633  3.4043 -0.8549
 4512TIP3    H235172   6.406   6.970   1.453  0.2732 -0.8073 -0.0244
 4513TIP3   OH235173   6.974   2.692   2.385  0.4574 -0.4411 -0.1735
 4513TIP3    H135174   6.900   2.751   2.369  2.3969  1.8876 -0.8924
 4513TIP3    H235175   6.984   2.691   2.481 -0.4260 -0.6603 -0.0859
 4514TIP3   OH235176   2.888   2.573   7.012 -0.0140 -0.3378  0.0789
 4514TIP3    H135177   2.822   2.609   6.952  0.1761 -0.5106 -0.2392
 4514TIP3    H235178   2.967   2.624   6.993 -0.5587  1.1997  1.8340
 4515TIP3   OH235179   3.106   6.217   0.001  0.5921  0.2755 -0.8285
 4515TIP3    H135180   3.122   6.308  -0.022 -3.3135  0.8962 -1.2879
 4515TIP3    H235181   3.035   6.220   0.064  1.8097 -2.3615  0.7727
 4516TIP3   OH235182   1.678   5.791   0.926 -0.6517 -0.2803 -0.5865
 4516TIP3    H135183   1.645   5.711   0.967 -0.1971 -0.0456  0.2423
 4516TIP3    H235184   1.756   5.814   0.977  0.2668 -0.3141 -1.9383
 4517TIP3   OH235185   4.602   0.155   0.441 -0.4576 -0.0230 -0.6833
 4517TIP3    H135186   4.537   0.139   0.373  0.4633 -2.3102 -1.0561
 4517TIP3    H235187   4.605   0.073   0.490  1.4299  0.4181 -0.0518
 4518TIP3   OH235188   6.027   4.924   1.481 -0.2687 -0.4186  0.0601
 4518TIP3    H135189   5.971   4.860   1.523 -0.5006  0.5556  1.2696
 4518TIP3    H235190   6.091   4.873   1.432  0.4147 -1.5987  2.1242
 4519TIP3   OH235191   1.699   0.781   1.617 -0.3165 -0.4288 -0.1260
 4519TIP3    H135192   1.761   0.710   1.601  0.6901  1.0915 -3.6430
 4519TIP3    H235193   1.617   0.750   1.579 -0.2914 -0.3780 -0.2239
 4520TIP3   OH235194   0.604   5.664   8.209  0.0665  0.0346 -0.0210
 4520TIP3    H135195   0.691   5.638   8.239 -0.4395 -0.5512  0.9447
 4520TIP3    H235196   0.585   5.606   8.136  1.3507  1.5431 -1.6051
 4521TIP3   OH235197   6.852   0.231   0.866 -0.1524 -0.0359  0.5918
 4521TIP3    H135198   6.881   0.152   0.822 -1.5585  0.8401 -2.0464
 4521TIP3    H235199   6.825   0.290   0.795 -0.4761  2.2665  2.5365
 4522TIP3   OH235200   5.112   2.306   8.014 -0.5423 -0.5276  0.0604
 4522TIP3    H135201   5.197   2.349   8.009 -1.1348  0.6482 -0.0397
 4522TIP3    H235202   5.100   2.288   8.107  0.1684 -1.4186 -0.0185
 4523TIP3   OH235203   2.356   1.639   0.788 -0.3014  0.0494  0.3251
 4523TIP3    H135204   2.309   1.628   0.705 -0.2079 -0.2873  0.3155
 4523TIP3    H235205   2.445   1.608   0.770 -0.4340 -0.5599  0.7021
 4524TIP3   OH235206   5.237   0.425   0.274 -0.1248 -0.2913 -0.3912
 4524TIP3    H135207   5.226   0.445   0.367 -1.8790  0.8461 -0.8142
 4524TIP3    H235208   5.234   0.511   0.231 -0.2969 -0.8912 -1.5834
 4525TIP3   OH235209   2.379   6.726   8.250 -0.3048 -0.1496  0.3902
 4525TIP3    H135210   2.363   6.677   8.331  0.3659 -0.9744  0.0309
 4525TIP3    H235211   2.438   6.796   8.276 -0.5075 -0.0964  0.7216
 4526TIP3   OH235212   7.105   6.870   7.970  0.1719  0.2212  0.0769
 4526TIP3    H135213   7.046   6.931   8.015  0.1744 -0.0727  0.4812
 4526TIP3    H235214   7.071   6.866   7.880  0.4809  1.2094 -0.0851
 4527TIP3   OH235215   6.204   3.271   1.833  0.2031  0.6519  0.2069
 4527TIP3    H135216   6.294   3.285   1.861 -0.2463  1.2980  1.3916
 4527TIP3    H235217   6.152   3.329   1.889 -0.9068  0.6098 -0.7566
 4528TIP3   OH235218   5.269   6.316   1.621 -0.2911  0.4463 -0.4374
 4528TIP3    H135219   5.364   6.304   1.631 -0.4580 -1.2942 -0.7897
 4528TIP3    H235220   5.250   6.285   1.532 -1.5626 -1.7293  0.5389
 4529TIP3   OH235221   4.463   1.481   1.167 -0.2081  0.2968 -0.3050
 4529TIP3    H135222   4.555   1.460   1.179  0.3681  2.3419 -1.0616
 4529TIP3    H235223   4.460   1.535   1.089 -2.1101 -0.0634 -0.5103
 4530TIP3   OH235224   7.150   1.906   1.318  0.0420  0.1979 -0.9536
 4530TIP3    H135225   7.061   1.930   1.345  0.7928  0.9566  0.9446
 4530TIP3    H235226   7.137   1.842   1.249 -2.0325 -1.4990  0.9035
 4531TIP3   OH235227   5.798   0.055   1.991  0.9220 -0.0765 -0.6120
 4531TIP3    H135228   5.773  -0.033   1.964  0.3377 -0.1963  0.3185
 4531TIP3    H235229   5.827   0.046   2.082  3.1028  0.3016 -1.2375
 4532TIP3   OH235230   5.755   0.606   1.770  0.2528  0.1851  0.5750
 4532TIP3    H135231   5.816   0.548   1.816 -0.1681 -2.7274 -2.3711
 4532TIP3    H235232   5.811   0.662   1.717  0.5722  1.1709  1.9286
 4533TIP3   OH235233   2.036   1.145   1.116  0.2826 -0.2519  0.5684
 4533TIP3    H135234   2.080   1.229   1.131 -0.5877  0.2500  0.3224
 4533TIP3    H235235   2.105   1.080   1.131  1.4520  0.5690 -0.9762
 4534TIP3   OH235236   4.843   0.418   1.106 -0.6578 -0.4624 -0.3549
 4534TIP3    H135237   4.924   0.435   1.058 -0.6119  0.4968  0.0505
 4534TIP3    H235238   4.855   0.331   1.144  0.8091  0.2933  0.9575
 4535TIP3   OH235239   5.163   2.485   1.327  0.1625 -0.5190  0.2755
 4535TIP3    H135240   5.220   2.547   1.372  1.5239 -1.4650 -0.1059
 4535TIP3    H235241   5.127   2.431   1.397 -0.2095  0.0287  0.5112
 4536TIP3   OH235242   6.961   6.443   7.149  0.1878 -0.1366  0.5494
 4536TIP3    H135243   7.010   6.364   7.172 -1.1764 -1.5448 -1.2159
 4536TIP3    H235244   6.881   6.438   7.201  0.4138  0.4313  0.9496
 4537TIP3   OH235245   1.892   6.873   7.747  0.1825 -0.5590 -1.0064
 4537TIP3    H135246   1.811   6.886   7.699 -1.0221 -1.4623  0.7067
 4537TIP3    H235247   1.900   6.950   7.803 -0.0374 -0.9334 -0.4493
 4538TIP3   OH235248   6.593   3.051   1.710  0.1395 -0.3094 -0.0793
 4538TIP3    H135249   6.515   3.045   1.655  0.1821  1.8584 -0.4189
 4538TIP3    H235250   6.664   3.072   1.649  0.8350 -1.3198  0.3603
 4539TIP3   OH235251   3.893   6.513   0.607  0.0757  0.4335 -0.4325
 4539TIP3    H135252   3.883   6.592   0.555  2.8297  0.3408 -1.1963
 4539TIP3    H235253   3.812   6.465   0.594 -1.4174  2.8707 -0.3633
 4540TIP3   OH235254   6.791   6.583   0.520  0.3928 -0.2508 -0.0941
 4540TIP3    H135255   6.834   6.648   0.576  2.0437 -0.0807 -1.5484
 4540TIP3    H235256   6.805   6.614   0.431 -0.1537 -1.7962 -0.7350
 4541TIP3   OH235257   1.845   6.347   7.195  0.6043  0.4455  0.0063
 4541TIP3    H135258   1.810   6.276   7.249  1.0915  0.7049  0.6793
 4541TIP3    H235259   1.938   6.326   7.187  0.4137  0.0816 -1.2562
 4542TIP3   OH235260   0.341   1.006   2.201  0.1717 -0.0156  0.1424
 4542TIP3    H135261   0.373   1.068   2.136 -0.0268 -0.3645 -0.2848
 4542TIP3    H235262   0.420   0.963   2.234  0.2597  0.0653  0.0382
 4543TIP3   OH235263   6.630   1.152   1.868 -0.0747  0.2491  0.4465
 4543TIP3    H135264   6.708   1.189   1.824  0.4178 -0.2751  0.8818
 4543TIP3    H235265   6.587   1.101   1.800  1.3184 -1.5210  0.8695
 4544TIP3   OH235266   0.565   6.125   0.470  0.6062 -0.0974 -0.1690
 4544TIP3    H135267   0.655   6.157   0.483  0.9103 -0.4026 -1.4839
 4544TIP3    H235268   0.516   6.201   0.440  0.7003 -0.2056 -0.6028
 4545TIP3   OH235269   6.547   1.397   1.328 -0.1433 -0.3015 -0.6523
 4545TIP3    H135270   6.487   1.470   1.315 -0.4554 -0.3941  0.2466
 4545TIP3    H235271   6.600   1.422   1.404  0.0024 -0.8446 -0.5738
 4546TIP3   OH235272   3.871   1.025   0.383 -0.0227  0.3668  0.2014
 4546TIP3    H135273   3.858   1.101   0.440 -0.1029  0.8139 -0.4162
 4546TIP3    H235274   3.797   1.028   0.322 -1.5885 -1.7858  1.9294
 4547TIP3   OH235275   0.436   4.377   7.700 -0.4362  0.3822 -0.3362
 4547TIP3    H135276   0.503   4.318   7.733 -0.3331 -0.0534 -1.2951
 4547TIP3    H235277   0.375   4.388   7.773  0.9206  1.1719  0.6992
 4548TIP3   OH235278   2.782   2.758   7.245 -0.0593 -0.2065 -0.2021
 4548TIP3    H135279   2.778   2.748   7.340 -0.7671  1.7884 -0.0036
 4548TIP3    H235280   2.829   2.680   7.214 -0.2400 -1.0913  1.7276
 4549TIP3   OH235281   5.839   1.072   2.641 -0.0268  0.0853 -0.3396
 4549TIP3    H135282   5.788   0.993   2.620 -1.0519  0.9944 -1.3716
 4549TIP3    H235283   5.918   1.039   2.682  0.1599 -1.5787 -1.9550
 4550TIP3   OH235284   5.042   0.539   8.045  0.5515  0.0325  0.1398
 4550TIP3    H135285   5.001   0.457   8.015 -0.2154 -0.1984  1.7620
 4550TIP3    H235286   5.028   0.600   7.972 -1.5709 -0.4221  0.1332
 4551TIP3   OH235287   2.089   2.598   1.981 -0.0330  0.3812  0.0821
 4551TIP3    H135288   2.085   2.592   2.076  1.3456 -1.8988  0.0424
 4551TIP3    H235289   2.174   2.639   1.963 -0.3646  0.9674 -0.1788
 4552TIP3   OH235290   5.244   6.985   2.080 -0.0179 -0.0481 -0.0108
 4552TIP3    H135291   5.172   6.956   2.024 -1.0297  0.6408  0.9291
 4552TIP3    H235292   5.202   7.015   2.160  1.4894 -2.2175  1.6676
 4553TIP3   OH235293   0.125   6.776   2.435 -0.4371 -0.2899  0.4300
 4553TIP3    H135294   0.031   6.787   2.424  0.1691  1.7803 -3.1619
 4553TIP3    H235295   0.146   6.697   2.385 -0.0296  0.1742 -0.1339
 4554TIP3   OH235296   3.643   6.422   0.592 -0.1971  0.3306  0.7226
 4554TIP3    H135297   3.629   6.330   0.615 -1.0107 -0.1273 -1.4823
 4554TIP3    H235298   3.555   6.460   0.590  0.2218  1.5828  3.0873
 4555TIP3   OH235299   6.056   3.883   0.049  0.1455 -0.0715 -0.6944
 4555TIP3    H135300   6.146   3.881   0.019  0.3392  1.7254 -0.2783
 4555TIP3    H235301   6.004   3.863  -0.029  0.7447  2.3837 -1.7851
 4556TIP3   OH235302   3.506   2.895   6.545 -0.3863 -0.0600 -0.0258
 4556TIP3    H135303   3.516   2.800   6.550  0.5231  0.0864  0.9558
 4556TIP3    H235304   3.434   2.908   6.483 -1.9472 -1.4406  1.4685
 4557TIP3   OH235305   3.848   1.544   8.271 -0.1111 -0.6526  0.7540
 4557TIP3    H135306   3.834   1.469   8.328 -0.3371 -2.8531 -2.0772
 4557TIP3    H235307   3.795   1.525   8.193  1.0791  1.6829 -0.6864
 4558TIP3   OH235308   7.274   5.650   1.501 -0.2128  0.3982  0.1899
 4558TIP3    H135309   7.312   5.725   1.547  2.8492 -1.7274  1.2961
 4558TIP3    H235310   7.245   5.591   1.571 -0.1308 -0.6334 -0.6340
 4559TIP3   OH235311   6.421   5.034   1.619 -0.1696 -0.3362  0.1249
 4559TIP3    H135312   6.441   5.108   1.675 -0.5775  0.6969 -1.0612
 4559TIP3    H235313   6.505   5.005   1.585 -0.1134  0.3129 -0.2975
 4560TIP3   OH235314   6.382   5.028   0.519  0.5814 -0.2289  0.2678
 4560TIP3    H135315   6.449   5.054   0.455 -1.7348  1.8824 -1.3931
 4560TIP3    H235316   6.337   4.955   0.478 -0.0326  0.2569  0.0692
 4561TIP3   OH235317   0.167   7.085   1.376  0.5736  0.3408  0.2333
 4561TIP3    H135318   0.104   7.028   1.420  0.7303  0.9071  1.2071
 4561TIP3    H235319   0.117   7.129   1.308 -0.0921  0.7747  0.9927
 4562TIP3   OH235320   4.756   6.577   7.242  0.1268  0.0467  0.6361
 4562TIP3    H135321   4.670   6.538   7.227 -1.3942  1.9498  3.8641
 4562TIP3    H235322   4.818   6.510   7.214 -2.3974 -2.5271  0.9736
 4563TIP3   OH235323   5.274   5.582   7.875 -0.2203  0.2823 -0.1570
 4563TIP3    H135324   5.299   5.645   7.806  0.0284  0.7049  0.3146
 4563TIP3    H235325   5.179   5.585   7.877 -0.2231  0.3737 -0.3898
 4564TIP3   OH235326   1.860   3.505   7.280  0.1888  0.0707 -0.2176
 4564TIP3    H135327   1.854   3.433   7.217 -3.6261 -0.3169  0.4743
 4564TIP3    H235328   1.859   3.462   7.365  2.2025  0.7868  0.2095
 4565TIP3   OH235329   3.534   4.080   1.014  0.2736 -0.4213 -0.7720
 4565TIP3    H135330   3.538   4.006   1.075  0.2095  0.8909  0.8593
 4565TIP3    H235331   3.577   4.048   0.935  2.0615 -1.5609  0.6138
 4566TIP3   OH235332   0.212   2.535   2.838  0.1352  0.1072 -0.3536
 4566TIP3    H135333   0.221   2.615   2.786  0.0108  0.4154  0.0902
 4566TIP3    H235334   0.207   2.566   2.928 -1.6596 -0.2860 -0.2959
 4567TIP3   OH235335   2.172   4.456   7.657 -0.5365 -0.1969  0.4918
 4567TIP3    H135336   2.155   4.362   7.651 -0.4412 -0.1906  0.0895
 4567TIP3    H235337   2.251   4.470   7.605  0.4049 -0.1391  1.8991
 4568TIP3   OH235338   1.503   2.061   1.834  0.1196  0.5212  0.4226
 4568TIP3    H135339   1.453   2.122   1.888 -0.6236  1.1709 -0.9893
 4568TIP3    H235340   1.594   2.087   1.845 -0.0730  0.9718  0.9548
 4569TIP3   OH235341   3.140   6.962   0.084  0.1517 -0.4151 -0.2898
 4569TIP3    H135342   3.069   6.967   0.148  0.4696  1.6549 -0.0751
 4569TIP3    H235343   3.219   6.953   0.137  0.4708  1.8369 -0.3112
 4570TIP3   OH235344   5.967   0.053   1.781  0.5658  0.1940 -0.1101
 4570TIP3    H135345   5.923   0.138   1.780 -0.7595 -0.5005 -1.5761
 4570TIP3    H235346   5.914  -0.001   1.840  0.8483  0.0721  0.0346
 4571TIP3   OH235347   1.271   3.314   1.429 -0.2746 -0.4881 -0.1914
 4571TIP3    H135348   1.288   3.227   1.392 -1.3626 -0.5297 -0.6196
 4571TIP3    H235349   1.236   3.365   1.356  1.1549  0.5759 -0.1500
 4572TIP3   OH235350   4.106   2.567   2.571  0.2273  0.4252  0.1553
 4572TIP3    H135351   4.141   2.504   2.634 -0.0426  1.3996  1.3149
 4572TIP3    H235352   4.165   2.642   2.577  1.1927 -0.1146 -2.0163
 4573TIP3   OH235353   6.488   4.415   0.778  0.0972 -0.3908  0.7118
 4573TIP3    H135354   6.552   4.455   0.719 -0.2255 -0.9795 -0.0421
 4573TIP3    H235355   6.417   4.388   0.721 -0.6103 -0.1799  1.4901
 4574TIP3   OH235356   2.156   5.199   0.754  0.0895  0.1365  0.2560
 4574TIP3    H135357   2.129   5.108   0.762 -1.0430  0.5801  1.6613
 4574TIP3    H235358   2.246   5.195   0.723  0.0497 -1.4610  0.3429
 4575TIP3   OH235359   5.372   4.448   1.053 -0.5016 -0.9854 -0.0152
 4575TIP3    H135360   5.298   4.459   1.113 -0.0795 -0.9471  0.5036
 4575TIP3    H235361   5.448   4.440   1.110  0.2791  1.8479 -0.5812
 4576TIP3   OH235362   1.678   3.904   7.029 -0.4853  0.1525  0.6786
 4576TIP3    H135363   1.623   3.848   6.974  1.4370  1.2912 -2.5219
 4576TIP3    H235364   1.762   3.858   7.034  0.3107  1.5321  0.1044
 4577TIP3   OH235365   0.256   6.112   2.002  0.0847  0.0552  0.2827
 4577TIP3    H135366   0.350   6.098   1.993 -0.2253 -0.6588 -2.5209
 4577TIP3    H235367   0.244   6.136   2.093  3.0858  0.9737  0.5049
 4578TIP3   OH235368   5.629   3.063   1.211  0.0361  0.4048  0.4719
 4578TIP3    H135369   5.681   2.989   1.181 -1.2831 -0.3628  0.0470
 4578TIP3    H235370   5.686   3.139   1.200  0.4768 -0.1934 -1.5911
 4579TIP3   OH235371   6.126   1.618   1.957  0.2374  0.1658  0.0328
 4579TIP3    H135372   6.195   1.653   2.014 -0.6582 -2.5008  2.9225
 4579TIP3    H235373   6.045   1.632   2.006 -0.9944  0.8637 -2.1398
 4580TIP3   OH235374   1.223   6.366   1.191  0.4039  0.2695  0.6912
 4580TIP3    H135375   1.267   6.312   1.124  1.6310  0.0876  1.6266
 4580TIP3    H235376   1.134   6.330   1.195 -0.1528  1.2582 -1.9079
 4581TIP3   OH235377   1.049   2.745   1.592 -0.0881  0.4125 -0.0102
 4581TIP3    H135378   0.977   2.787   1.544  1.2493  1.5356 -1.0823
 4581TIP3    H235379   1.007   2.705   1.668 -1.8692  0.9104 -0.7058
 4582TIP3   OH235380   1.040   3.677   2.378  0.5583  0.2002 -0.2757
 4582TIP3    H135381   1.115   3.643   2.328 -0.7661 -0.1499 -2.1171
 4582TIP3    H235382   0.971   3.686   2.312 -1.9601 -2.3943  1.8739
 4583TIP3   OH235383   5.215   2.490   0.522 -0.2957  0.4538 -0.2126
 4583TIP3    H135384   5.258   2.507   0.439  0.3586 -0.0320  0.0274
 4583TIP3    H235385   5.244   2.403   0.548  1.0980  1.3881  1.5052
 4584TIP3   OH235386   0.968   3.293   1.287  0.0830 -0.7568  0.4700
 4584TIP3    H135387   0.981   3.262   1.197  0.2465  2.2479 -0.6074
 4584TIP3    H235388   0.873   3.289   1.300  0.2161 -3.0132  0.8729
 4585TIP3   OH235389   2.466   5.537   0.593 -0.3544  0.1792 -0.4235
 4585TIP3    H135390   2.386   5.575   0.628  0.3689 -0.6224  2.2184
 4585TIP3    H235391   2.439   5.452   0.558 -0.5827 -0.2400  0.7807
 4586TIP3   OH235392   2.880   5.921   1.843  0.6302  0.3120  0.3020
 4586TIP3    H135393   2.877   6.004   1.892 -3.3040  1.1454 -1.1877
 4586TIP3    H235394   2.918   5.945   1.759  1.2668  0.2170  0.5621
 4587TIP3   OH235395   5.334   0.894   0.813 -0.0334  0.4337 -0.3087
 4587TIP3    H135396   5.274   0.867   0.743 -1.4891  2.1081  0.2706
 4587TIP3    H235397   5.277   0.928   0.882  1.4729  0.1028  1.1395
 4588TIP3   OH235398   2.833   2.433   1.724  0.2127 -0.3678  0.2213
 4588TIP3    H135399   2.794   2.350   1.752  0.2826  0.2032  2.0761
 4588TIP3    H235400   2.816   2.437   1.630 -1.0560 -1.8045  0.3702
 4589TIP3   OH235401   4.622   3.811   0.749 -0.0036 -0.2862  0.0357
 4589TIP3    H135402   4.533   3.780   0.734  0.2540 -1.3522  0.6732
 4589TIP3    H235403   4.662   3.745   0.806  0.8599  0.7125  0.6245
 4590TIP3   OH235404   3.422   1.394   8.257  0.0045 -0.5250  0.0354
 4590TIP3    H135405   3.458   1.468   8.207  1.2480 -0.0932  1.5055
 4590TIP3    H235406   3.417   1.323   8.194  1.4985  0.0148 -0.7425
 4591TIP3   OH235407   1.654   2.647   2.110  0.3479  0.5679  0.4181
 4591TIP3    H135408   1.689   2.725   2.065  2.1537 -0.0799  0.6467
 4591TIP3    H235409   1.722   2.624   2.173  1.1581 -2.8231 -1.5524
 4592TIP3   OH235410   6.069   2.703   1.830  0.2424  0.1294 -0.4649
 4592TIP3    H135411   6.065   2.797   1.847 -0.7923  0.1318 -0.6821
 4592TIP3    H235412   6.105   2.665   1.910  0.8841  0.7314 -0.4658
 4593TIP3   OH235413   1.955   3.771   2.491  0.3883 -0.0007  0.5013
 4593TIP3    H135414   2.047   3.750   2.473 -0.0669 -1.5695 -0.1417
 4593TIP3    H235415   1.912   3.762   2.406 -0.3432  0.8112  0.7868
 4594TIP3   OH235416   2.063   4.286   2.085 -0.0667 -0.2429  0.5069
 4594TIP3    H135417   2.065   4.256   2.177  1.1825  0.4340  0.7093
 4594TIP3    H235418   2.047   4.380   2.091 -1.0490 -0.3746 -0.0207
 4595TIP3   OH235419   6.442   4.474   7.659  0.1596 -0.3357  0.1672
 4595TIP3    H135420   6.401   4.504   7.740  1.0100  1.0221  0.1136
 4595TIP3    H235421   6.387   4.401   7.630 -1.8842  1.0545  0.4016
 4596TIP3   OH235422   1.863   4.903   7.684 -0.5101  0.2022 -0.7023
 4596TIP3    H135423   1.881   4.896   7.590 -0.8430 -0.1278 -0.7445
 4596TIP3    H235424   1.895   4.821   7.721  1.0041  0.9606 -0.2946
 4597TIP3   OH235425   0.417   4.720   1.130  0.4810  0.3192 -0.3934
 4597TIP3    H135426   0.442   4.812   1.123  1.2950  0.0868 -0.6941
 4597TIP3    H235427   0.392   4.708   1.221  2.3022  0.3851  0.1453
 4598TIP3   OH235428   6.315   3.472   1.344 -0.8124 -0.1220 -0.2874
 4598TIP3    H135429   6.281   3.428   1.421  0.6958  0.6478  0.8315
 4598TIP3    H235430   6.274   3.559   1.346 -0.2064  0.1550  0.0430
 4599TIP3   OH235431   6.616   2.807   1.409 -0.4863  0.9560 -0.4765
 4599TIP3    H135432   6.685   2.805   1.475 -0.0851 -0.8029 -0.9188
 4599TIP3    H235433   6.544   2.758   1.449 -1.0613  1.7909 -0.4787
 4600TIP3   OH235434   2.961   5.507   2.102 -0.0563  0.8232 -0.5816
 4600TIP3    H135435   2.976   5.590   2.058 -1.1840  1.8006  0.8629
 4600TIP3    H235436   2.868   5.490   2.091  0.0114  0.1595 -0.1531
 4601TIP3   OH235437   1.121   4.405   1.653 -0.2278  0.0253  0.3599
 4601TIP3    H135438   1.054   4.356   1.700  0.9778  0.7642  2.9162
 4601TIP3    H235439   1.181   4.338   1.620 -1.9352 -0.6106 -1.6113
 4602TIP3   OH235440   4.825   5.089   0.600  0.0307 -0.0674 -0.3093
 4602TIP3    H135441   4.761   5.160   0.600  0.3666  0.2416 -1.6214
 4602TIP3    H235442   4.894   5.119   0.658  0.0624  0.5720 -0.6799
 4603TIP3   OH235443   6.697   4.128   2.262  0.1642 -0.0025 -0.2662
 4603TIP3    H135444   6.626   4.065   2.273  0.1799 -0.4875 -2.7150
 4603TIP3    H235445   6.777   4.077   2.276  0.1389 -0.2875 -1.1274
 4604TIP3   OH235446   6.209   2.366   6.871 -0.2508  0.2656 -0.0801
 4604TIP3    H135447   6.228   2.288   6.819  0.2949  0.5167 -0.2515
 4604TIP3    H235448   6.279   2.369   6.936 -0.3951  0.4955  0.0670
 4605TIP3   OH235449   1.116   4.162   0.839  0.4486 -0.0560  0.4891
 4605TIP3    H135450   1.131   4.255   0.850  1.3404 -0.1228 -0.1139
 4605TIP3    H235451   1.078   4.154   0.751  1.9765 -0.4121 -0.1641
 4606TIP3   OH235452   1.773   3.035   7.187  0.0141  0.0398  0.3175
 4606TIP3    H135453   1.716   2.975   7.137 -0.4911  1.3737 -0.7542
 4606TIP3    H235454   1.853   2.985   7.202  0.4055 -0.2329 -2.3532
 4607TIP3   OH235455   6.884   4.893   8.289  0.3903 -0.3991  0.7987
 4607TIP3    H135456   6.874   4.933   8.203 -0.4707 -1.4091  0.4156
 4607TIP3    H235457   6.799   4.905   8.331  1.1492  1.0722  1.9536
 4608TIP3   OH235458   7.027   4.100   0.939  0.6186  0.2998  0.2268
 4608TIP3    H135459   6.967   4.091   1.013 -1.1937 -0.4918 -1.3051
 4608TIP3    H235460   7.031   4.013   0.900  0.5450  0.9878 -1.3600
 4609TIP3   OH235461   2.997   1.288   2.340  0.1273  0.4283 -0.7485
 4609TIP3    H135462   2.940   1.211   2.336  0.1552  0.4024 -0.6460
 4609TIP3    H235463   3.067   1.269   2.278  0.2250  0.2964 -0.5985
 4610TIP3   OH235464   4.291   2.770   2.589 -0.6215 -0.2582  0.5217
 4610TIP3    H135465   4.349   2.799   2.519 -1.3221  0.1489  0.1147
 4610TIP3    H235466   4.350   2.747   2.661  0.0574 -0.0677  0.0253
 4611TIP3   OH235467   3.967   3.806   2.709  0.1555 -0.1423 -0.2967
 4611TIP3    H135468   3.872   3.817   2.707  0.4869  3.1359 -3.0268
 4611TIP3    H235469   3.982   3.726   2.659 -1.1609 -0.5271 -0.0973
 4612TIP3   OH235470   5.979   6.832   0.075  0.4636  0.1131 -0.1671
 4612TIP3    H135471   6.049   6.799   0.019  2.3344 -0.3043  2.2993
 4612TIP3    H235472   5.997   6.793   0.161 -1.4532  1.8540  1.0870
 4613TIP3   OH235473   6.341   0.584   0.874 -0.1829  0.2918 -0.2850
 4613TIP3    H135474   6.325   0.645   0.802 -0.3972 -0.0960 -0.5714
 4613TIP3    H235475   6.399   0.517   0.836 -0.8147 -0.2609 -0.2880
 4614TIP3   OH235476   1.751   2.210   1.892 -0.0175  0.1682 -0.8402
 4614TIP3    H135477   1.820   2.273   1.869  1.2141 -0.3064  1.4109
 4614TIP3    H235478   1.691   2.259   1.947  0.1078 -0.1917 -0.3767
 4615TIP3   OH235479   1.867   1.960   1.921  0.1770 -0.0323  0.4081
 4615TIP3    H135480   1.814   2.038   1.904  0.4405 -0.0613 -0.5727
 4615TIP3    H235481   1.953   1.994   1.945 -0.2256  0.0112  1.8440
 4616TIP3   OH235482   1.313   4.870   5.951 -0.2785  0.1556  0.2295
 4616TIP3    H135483   1.236   4.820   5.922  1.3207 -2.1362 -0.1837
 4616TIP3    H235484   1.350   4.817   6.021  0.8210  1.3749  0.5833
 4617TIP3   OH235485   0.039   4.009   0.791  0.3835 -0.4594  0.5885
 4617TIP3    H135486  -0.038   3.954   0.779  0.0655  0.1139 -0.0343
 4617TIP3    H235487   0.100   3.955   0.842  0.5370 -1.8283 -0.9998
 4618TIP3   OH235488   0.710   3.151   1.421  0.7729 -0.3019 -0.1401
 4618TIP3    H135489   0.709   3.215   1.492 -0.1695  1.2615 -1.5468
 4618TIP3    H235490   0.626   3.106   1.427  0.7506 -0.2647 -0.1751
 4619TIP3   OH235491   1.080   2.072   2.312 -0.2795 -0.2778  0.2614
 4619TIP3    H135492   1.139   2.134   2.270 -0.3068 -0.1807  0.3659
 4619TIP3    H235493   1.006   2.125   2.341 -2.1452 -0.9298 -3.0466
 4620TIP3   OH235494   1.038   0.046   0.593  0.4837  0.3797  0.4753
 4620TIP3    H135495   1.007  -0.031   0.545 -2.3592  2.1200 -0.6283
 4620TIP3    H235496   1.029   0.022   0.685 -3.3449  0.3875  0.1975
 4621TIP3   OH235497   6.949   2.337   2.534  0.6421 -0.5021  0.4567
 4621TIP3    H135498   7.028   2.391   2.533 -0.4259  1.0920 -0.0375
 4621TIP3    H235499   6.877   2.400   2.531 -0.6359 -1.9716 -0.4421
 4622TIP3   OH235500   2.242   3.717   2.330 -0.3212  0.0344  0.2785
 4622TIP3    H135501   2.170   3.663   2.296  0.8835 -1.9680  0.7848
 4622TIP3    H235502   2.314   3.655   2.342  0.6834  1.5214  2.1999
 4623TIP3   OH235503   6.091   0.201   1.499 -0.6899  0.0346  0.5127
 4623TIP3    H135504   6.010   0.229   1.542 -0.8990 -0.0827  0.1960
 4623TIP3    H235505   6.071   0.115   1.464 -0.0946 -0.4416  1.3381
 4624TIP3   OH235506   1.103   6.784   0.635 -0.0302  0.0505 -0.5318
 4624TIP3    H135507   1.133   6.832   0.712 -0.6942  0.3367 -0.4473
 4624TIP3    H235508   1.007   6.782   0.644 -0.0394 -0.8419 -0.7991
 4625TIP3   OH235509   4.110   1.807   0.866 -0.8019  0.4515  0.4558
 4625TIP3    H135510   4.183   1.745   0.870 -1.2313 -0.1041 -0.1737
 4625TIP3    H235511   4.149   1.886   0.829 -0.2972  0.4935  1.0570
 4626TIP3   OH235512   1.860   4.833   1.515 -0.0054 -0.3230  0.0160
 4626TIP3    H135513   1.869   4.786   1.598  4.4039  0.2012 -0.0857
 4626TIP3    H235514   1.919   4.788   1.456 -1.7296  0.4687 -2.3762
 4627TIP3   OH235515   4.107   0.272   1.995  0.4839  0.2014  0.3337
 4627TIP3    H135516   4.127   0.208   2.063  0.9329  2.1700  2.1265
 4627TIP3    H235517   4.185   0.327   1.991 -0.1152  0.9847 -0.7430
 4628TIP3   OH235518   0.055   5.042   0.222  0.1863 -0.0339  0.6939
 4628TIP3    H135519   0.037   4.982   0.295 -0.6402  1.6941  1.9517
 4628TIP3    H235520   0.078   5.124   0.264  0.1979  0.8553 -1.0208
 4629TIP3   OH235521   6.513   1.145   1.175  0.3525 -0.3226 -0.5050
 4629TIP3    H135522   6.566   1.224   1.186  0.4210 -0.4168 -0.1594
 4629TIP3    H235523   6.574   1.073   1.189 -0.1869 -0.4240  1.4423
 4630TIP3   OH235524   5.234   7.047   1.520 -0.3000  0.5957  0.1188
 4630TIP3    H135525   5.300   7.048   1.589 -1.1668  1.4345  0.9515
 4630TIP3    H235526   5.167   7.109   1.549 -1.5823 -0.4252 -0.5899
 4631TIP3   OH235527   1.137   1.056   1.565 -1.0341 -0.7005  0.2609
 4631TIP3    H135528   1.228   1.085   1.560 -1.0294 -0.3324  2.2816
 4631TIP3    H235529   1.143   0.961   1.576 -0.8843 -0.6658  0.4902
 4632TIP3   OH235530   4.731   3.135   8.182  0.0224  0.4181  0.2996
 4632TIP3    H135531   4.654   3.140   8.239 -1.2022 -0.6633 -1.2224
 4632TIP3    H235532   4.785   3.210   8.208 -1.7244  1.4208  1.1177
 4633TIP3   OH235533   2.024   3.537   2.284 -0.7144  0.2611 -0.0697
 4633TIP3    H135534   2.050   3.513   2.373 -1.5014 -2.2357 -0.4597
 4633TIP3    H235535   2.026   3.454   2.236 -3.3214  1.0341 -1.6113
 4634TIP3   OH235536   7.293   7.256   1.820 -0.0361  0.0532 -0.1210
 4634TIP3    H135537   7.221   7.229   1.876  0.4395  1.0544  0.9920
 4634TIP3    H235538   7.345   7.315   1.874  0.9767  0.2613 -1.2936
 4635TIP3   OH235539   4.308   1.249   1.184  0.5079  0.3276  0.5524
 4635TIP3    H135540   4.351   1.333   1.194  0.0713  0.7364 -0.8756
 4635TIP3    H235541   4.216   1.271   1.165  0.0366 -0.4954  1.8346
 4636TIP3   OH235542   0.082   5.566   7.646  0.4841 -0.3616 -0.4374
 4636TIP3    H135543   0.097   5.491   7.705  0.6003 -0.8292 -1.0594
 4636TIP3    H235544   0.164   5.614   7.648 -0.1212  0.6507  1.2294
 4637TIP3   OH235545   0.781   1.804   2.183 -0.2992  0.1100 -0.4221
 4637TIP3    H135546   0.776   1.715   2.149  1.1790 -0.1940  0.1097
 4637TIP3    H235547   0.749   1.797   2.273  0.8664 -0.1163 -0.0101
 4638TIP3   OH235548   2.760   7.227   8.073 -0.5240  0.0884 -0.6609
 4638TIP3    H135549   2.848   7.244   8.038 -0.0191  0.1713  0.6129
 4638TIP3    H235550   2.720   7.313   8.079  0.0740  0.2807  0.7175
 4639TIP3   OH235551   0.967   7.304   1.272  0.1183 -0.3938 -0.4831
 4639TIP3    H135552   0.899   7.237   1.265 -1.1665  0.8613 -0.0676
 4639TIP3    H235553   0.952   7.361   1.196  1.4148 -0.7483 -1.0211
 4640TIP3   OH235554   3.960   1.343   0.903 -0.2398 -0.0204  0.1631
 4640TIP3    H135555   3.933   1.430   0.873 -1.2984 -0.3829  0.0389
 4640TIP3    H235556   4.056   1.345   0.901 -0.2652  1.0839 -0.0039
 4641TIP3   OH235557   0.806   4.890   1.211  0.1259 -0.5796  0.1579
 4641TIP3    H135558   0.802   4.922   1.121 -2.3382 -2.4837 -0.4672
 4641TIP3    H235559   0.899   4.879   1.229  0.7555  1.8518 -1.3827
 4642TIP3   OH235560   2.392   3.208   1.426 -0.1540  0.0642  0.0911
 4642TIP3    H135561   2.405   3.161   1.508  1.6222  1.7155  0.7848
 4642TIP3    H235562   2.406   3.142   1.358  0.3936 -0.8401  1.0715
 4643TIP3   OH235563   5.476   2.717   1.954 -0.2899 -0.4764  0.3527
 4643TIP3    H135564   5.568   2.744   1.964 -1.2786  3.2698  0.2257
 4643TIP3    H235565   5.469   2.692   1.862  0.3785  0.3127  0.0711
 4644TIP3   OH235566   0.691   3.725   6.942 -0.3470  0.6274  0.0606
 4644TIP3    H135567   0.611   3.723   6.994 -2.2220  1.5989 -2.6939
 4644TIP3    H235568   0.756   3.765   6.999 -2.2874  1.4779  1.7199
 4645TIP3   OH235569   4.334   5.248   0.371 -0.7875  0.2668  0.4465
 4645TIP3    H135570   4.378   5.332   0.386 -2.4840  1.4424 -0.9258
 4645TIP3    H235571   4.363   5.221   0.283 -0.5816 -0.3691  0.7062
 4646TIP3   OH235572   5.819   5.932   1.586 -0.1376  0.6618  0.2583
 4646TIP3    H135573   5.801   5.838   1.575 -0.5452  0.6845  0.7251
 4646TIP3    H235574   5.765   5.974   1.519  1.4746  0.4502 -1.2223
 4647TIP3   OH235575   0.836   4.650   2.439 -0.2745  0.0609 -0.2446
 4647TIP3    H135576   0.797   4.683   2.520  0.3772  0.8029 -0.2124
 4647TIP3    H235577   0.906   4.591   2.468  1.2792  1.8485 -0.1831
 4648TIP3   OH235578   4.027   3.827   0.387  0.2723 -0.8519  0.2595
 4648TIP3    H135579   4.090   3.898   0.379  0.2622 -0.6188  1.9000
 4648TIP3    H235580   3.948   3.859   0.344  0.1508  0.3016  1.2966
 4649TIP3   OH235581   2.317   4.096   1.579  0.4350 -0.5919  0.2886
 4649TIP3    H135582   2.351   4.171   1.529 -0.8186  0.5947  1.1423
 4649TIP3    H235583   2.373   4.023   1.555  1.9655  0.7247 -0.2495
 4650TIP3   OH235584   6.963   2.628   1.940 -0.5974  0.2251  0.0624
 4650TIP3    H135585   7.021   2.703   1.930 -0.5422  0.0460 -1.0401
 4650TIP3    H235586   6.980   2.596   2.029  2.2066 -0.8036 -0.7679
 4651TIP3   OH235587   0.528   6.552   1.356  0.5880 -0.2860  0.5698
 4651TIP3    H135588   0.523   6.639   1.395 -1.5587 -0.1310  0.0361
 4651TIP3    H235589   0.456   6.504   1.396 -0.7015 -0.5827 -2.0279
 4652TIP3   OH235590   1.263   5.643   1.069  0.2023 -0.2936  0.5763
 4652TIP3    H135591   1.193   5.602   1.018  0.7162  0.1507 -0.4861
 4652TIP3    H235592   1.276   5.583   1.143 -0.3740 -1.0575  0.0678
 4653TIP3   OH235593   0.915   0.134   1.044  0.2802 -0.2269  0.0486
 4653TIP3    H135594   0.860   0.064   1.009  2.6204 -1.8398 -0.5538
 4653TIP3    H235595   0.946   0.181   0.966  0.8525 -0.2080  0.2846
 4654TIP3   OH235596   1.406   1.179   1.593 -0.2978 -0.1783 -0.0455
 4654TIP3    H135597   1.489   1.219   1.567  1.0071 -3.2697 -0.8497
 4654TIP3    H235598   1.429   1.121   1.666 -2.3111  1.1997  1.7501
 4655TIP3   OH235599   0.940   3.047   2.094 -0.0585 -0.0401  0.5048
 4655TIP3    H135600   0.890   3.045   2.012  1.3494 -0.1597 -0.3672
 4655TIP3    H235601   0.937   2.957   2.126 -0.6716  0.0211  0.6376
 4656TIP3   OH235602   7.109   4.562   7.831 -0.1471  0.0424 -0.0279
 4656TIP3    H135603   7.140   4.557   7.740  2.3856 -0.8956  0.8457
 4656TIP3    H235604   7.073   4.475   7.849 -0.8843  0.3074 -0.1941
 4657TIP3   OH235605   1.013   3.594   1.186 -0.8880 -0.7374  0.3572
 4657TIP3    H135606   0.989   3.502   1.192 -0.3132 -0.9053  0.1321
 4657TIP3    H235607   0.932   3.639   1.161 -0.4503 -1.5907 -2.8375
 4658TIP3   OH235608   4.377   4.590   7.594  0.1424 -0.1493  0.0135
 4658TIP3    H135609   4.347   4.502   7.570  1.6862 -0.7263  0.1715
 4658TIP3    H235610   4.302   4.629   7.639  0.2680 -2.2554  2.1133
 4659TIP3   OH235611   0.072   0.108   1.983 -0.1255 -0.0077  0.1667
 4659TIP3    H135612   0.075   0.158   2.064  2.3245 -1.0411  0.7527
 4659TIP3    H235613   0.131   0.155   1.924  0.9191 -1.2565  0.1975
 4660TIP3   OH235614   3.109   2.428   1.558  0.5821  0.0104 -0.0043
 4660TIP3    H135615   3.191   2.478   1.553  1.4488 -1.1881  1.5869
 4660TIP3    H235616   3.041   2.492   1.540  1.8184  1.2302 -0.4866
 4661TIP3   OH235617   5.066   7.197   0.031 -0.2163  0.7831 -0.2142
 4661TIP3    H135618   5.041   7.105   0.038 -1.6655  1.2627  1.4012
 4661TIP3    H235619   5.109   7.217   0.115  0.8008  1.3692 -0.8661
 4662TIP3   OH235620   0.082   4.458   1.614 -0.1084  0.1961 -0.2570
 4662TIP3    H135621   0.042   4.467   1.701 -0.2234 -0.6942 -0.2158
 4662TIP3    H235622   0.166   4.414   1.631  0.1852  0.6534 -0.5207
 4663TIP3   OH235623   0.126   5.145   1.080  0.2368  0.6060  0.4123
 4663TIP3    H135624   0.102   5.053   1.072 -1.6083  1.2095 -1.3420
 4663TIP3    H235625   0.056   5.183   1.133 -1.7855  1.9680 -3.0501
 4664TIP3   OH235626   6.093   3.352   0.357  0.2981 -0.2686  0.3056
 4664TIP3    H135627   6.182   3.387   0.348  0.9343 -1.3505  2.0219
 4664TIP3    H235628   6.101   3.287   0.428 -1.4165 -1.8586 -0.9251
 4665TIP3   OH235629   5.722   3.702   0.994 -0.1251  0.0438  0.3591
 4665TIP3    H135630   5.792   3.640   1.012 -0.6431 -0.0963  2.0327
 4665TIP3    H235631   5.759   3.763   0.930 -0.6458 -3.8004 -3.8622
 4666TIP3   OH235632   6.864   1.873   1.797  0.5371 -0.0647  0.1261
 4666TIP3    H135633   6.854   1.785   1.834  0.1027  0.7098  1.8921
 4666TIP3    H235634   6.780   1.891   1.755  0.4090 -0.2477  0.3031
 4667TIP3   OH235635   5.999   5.766   0.193  0.2451 -0.5742 -0.2013
 4667TIP3    H135636   6.056   5.841   0.175 -0.1750 -0.0431  0.6463
 4667TIP3    H235637   5.915   5.788   0.153 -0.1483 -0.1890  0.8156
 4668TIP3   OH235638   1.305   2.678   1.751  0.0868 -0.1972 -0.2604
 4668TIP3    H135639   1.236   2.724   1.704  1.1489  1.4195 -0.2844
 4668TIP3    H235640   1.320   2.730   1.830  1.3609 -0.4695 -0.3118
 4669TIP3   OH235641   2.032   4.061   1.463 -0.1607  0.1338  0.2983
 4669TIP3    H135642   2.124   4.057   1.487 -0.2806 -1.2509  0.5948
 4669TIP3    H235643   1.987   4.086   1.543 -0.0901  0.2258  0.3084
 4670TIP3   OH235644   1.325   5.985   0.762  0.0026  0.1661  0.8349
 4670TIP3    H135645   1.358   6.070   0.792 -0.9401  0.3130  1.4764
 4670TIP3    H235646   1.403   5.938   0.731  0.2759  1.9972 -1.3596
 4671TIP3   OH235647   2.021   1.676   1.861 -0.1322  0.6507 -0.6686
 4671TIP3    H135648   1.958   1.748   1.850 -2.0349 -1.0032 -1.0481
 4671TIP3    H235649   2.052   1.686   1.951  1.0933  3.0521 -1.3177
 4672TIP3   OH235650   3.289   7.250   0.359 -0.2731 -0.9288 -0.0910
 4672TIP3    H135651   3.200   7.217   0.353 -1.2143  1.8850 -2.8824
 4672TIP3    H235652   3.281   7.336   0.401  1.3630 -1.4415  1.3547
 4673TIP3   OH235653   2.252   5.923   8.130  0.2017  0.5089  0.4742
 4673TIP3    H135654   2.267   5.963   8.045 -0.2709 -0.3973 -0.0452
 4673TIP3    H235655   2.334   5.878   8.150 -0.2408 -0.6148 -0.2402
 4674TIP3   OH235656   0.870   2.580   2.408  0.3922 -0.1371  0.3513
 4674TIP3    H135657   0.879   2.671   2.378 -1.6441 -0.1667 -0.4694
 4674TIP3    H235658   0.776   2.563   2.401  0.7257 -2.2066  0.8281
 4675TIP3   OH235659   3.433   2.967   1.293  0.4492 -0.1037  0.1099
 4675TIP3    H135660   3.517   3.010   1.307  1.4250 -2.0478  0.3571
 4675TIP3    H235661   3.394   2.961   1.380 -0.2180  1.2851 -0.0732
 4676TIP3   OH235662   3.457   7.079   8.113 -0.1690  0.1200 -0.4186
 4676TIP3    H135663   3.448   6.987   8.087 -1.3386 -0.2302  1.1775
 4676TIP3    H235664   3.426   7.082   8.203 -0.5312  2.1621 -0.5819
 4677TIP3   OH235665   6.372   2.180   2.112 -0.1396  0.5171  0.4318
 4677TIP3    H135666   6.377   2.275   2.119  0.1874  0.5144  0.2367
 4677TIP3    H235667   6.368   2.149   2.203 -2.3452  0.8271  0.4662
 4678TIP3   OH235668   3.377   2.151   0.494  0.6368  0.3451 -0.7293
 4678TIP3    H135669   3.462   2.125   0.459  0.7999  1.0621 -0.8612
 4678TIP3    H235670   3.314   2.121   0.427  0.8007  0.0482 -0.7531
 4679TIP3   OH235671   0.103   3.395   1.576  0.0729  0.1635 -0.3766
 4679TIP3    H135672   0.186   3.368   1.538  0.2770 -0.1023  0.2478
 4679TIP3    H235673   0.122   3.412   1.668 -0.3328  1.2019 -0.4803
 4680TIP3   OH235674   5.312   4.295   8.180 -0.0857  0.3715  0.0131
 4680TIP3    H135675   5.298   4.202   8.199  0.3147  0.2293 -0.3710
 4680TIP3    H235676   5.233   4.338   8.210 -0.0186 -0.0217  0.7549
 4681TIP3   OH235677   0.006   6.270   2.367  0.6673 -0.3427  0.2011
 4681TIP3    H135678  -0.010   6.188   2.320  0.3650  1.2898 -2.6328
 4681TIP3    H235679  -0.080   6.310   2.375  0.9606  0.2033  0.6701
 4682TIP3   OH235680   1.183   6.825   7.306  0.4266  0.3186 -0.1220
 4682TIP3    H135681   1.259   6.882   7.305 -0.3459  1.3861  0.8367
 4682TIP3    H235682   1.110   6.882   7.278 -0.2620 -0.3117  0.3661
 4683TIP3   OH235683   6.897   3.634   0.895 -0.2258 -0.7537 -0.4743
 4683TIP3    H135684   6.839   3.584   0.952  0.5500 -2.0797 -0.8462
 4683TIP3    H235685   6.837   3.679   0.834 -1.1029  1.3255  1.8439
 4684TIP3   OH235686   2.457   6.311   7.752 -0.5255 -0.2520  0.0940
 4684TIP3    H135687   2.433   6.370   7.681  0.9731  0.1606 -0.0857
 4684TIP3    H235688   2.545   6.281   7.730 -0.4387 -0.9099  1.2632
 4685TIP3   OH235689   3.466   1.991   1.806 -0.0739 -0.1105 -0.2374
 4685TIP3    H135690   3.422   2.052   1.748 -0.7003 -1.6921 -1.4700
 4685TIP3    H235691   3.466   2.034   1.892 -3.2239  0.2969 -0.4130
 4686TIP3   OH235692   2.159   4.599   1.271  0.0124 -0.3362  0.6838
 4686TIP3    H135693   2.078   4.564   1.306 -0.1528  1.6925  2.4359
 4686TIP3    H235694   2.228   4.555   1.321 -0.1312  0.4213  1.5583
 4687TIP3   OH235695   4.981   2.987   0.614 -0.0837 -0.2757  0.6969
 4687TIP3    H135696   5.003   2.895   0.598  0.4300 -0.0984  0.3500
 4687TIP3    H235697   5.008   3.033   0.534 -2.6695 -0.1722 -0.1624
 4688TIP3   OH235698   1.473   3.525   1.721  0.2106 -0.2881 -0.1732
 4688TIP3    H135699   1.467   3.511   1.816  1.0729 -0.4904 -0.1374
 4688TIP3    H235700   1.537   3.460   1.692  0.6495  0.3861 -0.7454
 4689TIP3   OH235701   1.320   5.034   7.910  0.3055  0.1443  0.3703
 4689TIP3    H135702   1.236   5.078   7.925  1.2144  1.5339  1.6015
 4689TIP3    H235703   1.324   5.020   7.816 -0.7213  1.3024  0.1484
 4690TIP3   OH235704   5.674   0.631   0.161 -0.5346 -0.1814  0.0512
 4690TIP3    H135705   5.690   0.619   0.255  0.7778  0.3941 -0.0982
 4690TIP3    H235706   5.736   0.699   0.134 -1.1928 -0.0419 -1.1505
 4691TIP3   OH235707   6.390   0.501   1.290 -0.3562 -0.4664 -0.5578
 4691TIP3    H135708   6.387   0.594   1.268 -0.2220 -0.5333 -0.8645
 4691TIP3    H235709   6.316   0.463   1.244  0.6907 -0.8292 -1.9776
 4692TIP3   OH235710   0.430   2.948   6.662 -0.3672  0.2279  0.0211
 4692TIP3    H135711   0.384   2.996   6.593 -2.6408 -0.3825  1.0672
 4692TIP3    H235712   0.433   3.009   6.735  1.1439  0.5046 -0.2400
 4693TIP3   OH235713   3.402   4.876   0.771  0.1712  0.4791  0.0359
 4693TIP3    H135714   3.471   4.829   0.724  0.4502  0.3777  0.5465
 4693TIP3    H235715   3.384   4.953   0.716  1.3970  1.0339  0.4062
 4694TIP3   OH235716   0.135   4.865   1.080  0.0424 -0.0032 -0.5675
 4694TIP3    H135717   0.129   4.840   0.988 -1.9543 -3.1570  0.3358
 4694TIP3    H235718   0.198   4.804   1.118  0.2287  0.7301  0.3286
 4695TIP3   OH235719   0.974   2.415   2.671  0.3752  0.4239 -0.3975
 4695TIP3    H135720   0.889   2.444   2.705  0.5055 -0.4930  0.7297
 4695TIP3    H235721   0.997   2.339   2.724  1.1217 -0.3664 -1.8058
 4696TIP3   OH235722   0.781   1.142   1.898  0.1649 -0.0279 -0.2202
 4696TIP3    H135723   0.743   1.230   1.891 -2.8507 -1.4059 -1.9037
 4696TIP3    H235724   0.832   1.132   1.817  0.5030  0.1361 -0.0315
 4697TIP3   OH235725   1.264   3.591   2.232 -0.4632 -0.5885  0.1305
 4697TIP3    H135726   1.330   3.625   2.293 -0.2008  0.1559 -0.5661
 4697TIP3    H235727   1.262   3.497   2.249  0.8522 -0.6319  0.0849
 4698TIP3   OH235728   1.808   2.536   1.608 -0.6467 -0.6873  0.6007
 4698TIP3    H135729   1.834   2.628   1.605  0.3719 -0.9762  0.2698
 4698TIP3    H235730   1.712   2.538   1.600 -0.4796  0.2325 -1.6389
 4699TIP3   OH235731   1.575   3.373   1.481  0.5105 -0.3368  0.0300
 4699TIP3    H135732   1.616   3.326   1.553  1.1366 -0.6713 -0.5361
 4699TIP3    H235733   1.492   3.327   1.466  0.0775  0.1268  0.9441
 4700TIP3   OH235734   7.233   1.297   2.244  0.1936 -0.0514  0.2840
 4700TIP3    H135735   7.140   1.310   2.261 -0.4694 -1.0768 -2.2880
 4700TIP3    H235736   7.270   1.385   2.244 -1.2579  0.5937 -1.1337
 4701TIP3   OH235737   7.300   1.193   1.948  0.3041  0.1898 -0.4923
 4701TIP3    H135738   7.298   1.242   2.031 -1.9327 -2.9203  1.4296
 4701TIP3    H235739   7.371   1.129   1.960 -0.8931 -1.1448 -0.3905
 4702TIP3   OH235740   6.564   3.546   1.272 -0.0218 -0.3222 -0.3219
 4702TIP3    H135741   6.492   3.483   1.281 -0.2292  0.2401  2.4762
 4702TIP3    H235742   6.636   3.507   1.321 -0.4795  2.0142  2.3390
 4703TIP3   OH235743   0.105   2.300   1.521  0.0229 -0.5416 -0.2818
 4703TIP3    H135744   0.068   2.297   1.432 -0.6964 -1.2482  0.0285
 4703TIP3    H235745   0.072   2.382   1.557 -1.8905 -1.4996  0.2420
 4704TIP3   OH235746   2.505   3.214   0.061  0.0545 -0.2114  0.2068
 4704TIP3    H135747   2.476   3.128   0.093  0.0025 -0.2655  0.0174
 4704TIP3    H235748   2.596   3.220   0.090  0.2859 -0.6484 -0.4085
 4705TIP3   OH235749   0.255   7.190   0.643 -0.7314  0.5536  0.2847
 4705TIP3    H135750   0.164   7.177   0.620 -0.8859  1.9134  0.0936
 4705TIP3    H235751   0.258   7.277   0.683  0.3997  0.3434  0.6902
 4706TIP3   OH235752   0.755   2.605   2.745 -0.5486  0.2274  0.0552
 4706TIP3    H135753   0.719   2.517   2.747 -0.8597  0.2910 -1.8100
 4706TIP3    H235754   0.691   2.656   2.695 -1.2984  1.9481  2.6607
 4707TIP3   OH235755   7.085   5.489   1.384 -1.0740 -0.1045 -0.3412
 4707TIP3    H135756   7.138   5.566   1.407  0.6935 -1.2286 -0.5580
 4707TIP3    H235757   7.018   5.485   1.451 -1.1011  1.5557 -0.2481
 4708TIP3   OH235758   2.683   6.346   2.076 -0.1663  0.1478 -0.8775
 4708TIP3    H135759   2.741   6.399   2.131  1.1939  1.4821 -3.4775
 4708TIP3    H235760   2.632   6.411   2.027  0.6768 -0.9208 -3.2429
 4709TIP3   OH235761   5.947   3.540   1.106 -0.4562  0.2231 -0.2037
 4709TIP3    H135762   5.939   3.554   1.201 -1.6567  0.0326 -0.2678
 4709TIP3    H235763   6.037   3.511   1.094 -0.5999 -0.7842  1.0077
 4710TIP3   OH235764   7.060   3.443   1.543  0.2603 -0.1289  0.4591
 4710TIP3    H135765   7.112   3.523   1.538  0.5549 -0.3042  0.6691
 4710TIP3    H235766   7.077   3.409   1.631  2.0865 -1.7160 -0.4601
 4711TIP3   OH235767   6.931   2.727   1.054 -0.1072 -0.1663  0.0550
 4711TIP3    H135768   6.940   2.714   1.149 -2.0137 -0.6955  0.1772
 4711TIP3    H235769   6.862   2.666   1.028 -0.8037  1.2032 -1.3837
 4712TIP3   OH235770   2.186   5.741   1.497 -0.9995 -0.6134 -0.3310
 4712TIP3    H135771   2.279   5.737   1.520 -0.7032  2.4605 -0.8411
 4712TIP3    H235772   2.142   5.770   1.577 -1.1983  0.3911 -0.7971
 4713TIP3   OH235773   1.560   4.326   6.804 -0.3243 -0.1843  0.0243
 4713TIP3    H135774   1.533   4.291   6.720  2.3691  0.8362 -1.3247
 4713TIP3    H235775   1.595   4.251   6.852 -0.1877 -0.4440 -0.4807
 4714TIP3   OH235776   2.737   3.389   1.590  0.0652  0.0691  0.2374
 4714TIP3    H135777   2.729   3.429   1.677  0.0241  0.1655  0.1893
 4714TIP3    H235778   2.691   3.305   1.598 -0.2780  0.2512  0.1979
 4715TIP3   OH235779   3.427   5.264   1.025 -0.2754  0.1084  0.2214
 4715TIP3    H135780   3.436   5.168   1.021 -1.0349  0.0762 -0.8007
 4715TIP3    H235781   3.490   5.290   1.092  0.3223 -1.0586  0.1455
 4716TIP3   OH235782   0.631   4.150   1.841 -0.0912 -0.3743  0.0804
 4716TIP3    H135783   0.634   4.094   1.919 -2.1400  1.7154  1.7022
 4716TIP3    H235784   0.563   4.111   1.786 -0.6866 -0.1693  0.6689
 4717TIP3   OH235785   2.957   3.929   7.493  0.0478 -0.1052  0.4602
 4717TIP3    H135786   2.917   3.911   7.409  0.5768 -0.5617  0.3034
 4717TIP3    H235787   2.885   3.955   7.550 -0.2197  0.9222 -0.3329
 4718TIP3   OH235788   3.875   0.693   1.041 -0.3219  0.1790 -0.1190
 4718TIP3    H135789   3.909   0.605   1.027 -1.6482 -0.2980 -0.4265
 4718TIP3    H235790   3.875   0.733   0.955 -1.3351 -0.1267 -0.2705
 4719TIP3   OH235791   0.433   0.128   2.102 -0.1235  0.4071 -0.1879
 4719TIP3    H135792   0.514   0.175   2.084  0.1164  0.1027  0.0853
 4719TIP3    H235793   0.408   0.156   2.190 -0.6712  1.0079 -0.5311
 4720TIP3   OH235794   3.602   3.962   6.595 -0.0512  0.4689  0.0904
 4720TIP3    H135795   3.521   3.926   6.632  0.8472 -1.6215  0.0646
 4720TIP3    H235796   3.645   4.006   6.668 -0.1194 -0.3824  0.6508
 4721TIP3   OH235797   6.907   6.085   6.887 -0.3056  0.4728  0.7800
 4721TIP3    H135798   6.850   6.058   6.959 -0.7890  1.3107  0.7211
 4721TIP3    H235799   6.948   6.004   6.857 -0.2961  0.0800  1.8276
 4722TIP3   OH235800   1.014   2.711   2.624  0.6687  0.4889  0.0148
 4722TIP3    H135801   1.020   2.806   2.635 -0.2409  0.6647 -0.8542
 4722TIP3    H235802   0.939   2.685   2.678  0.5504  0.3553 -0.2115
 4723TIP3   OH235803   1.994   2.457   2.476  0.0667  0.0135 -0.3211
 4723TIP3    H135804   2.067   2.470   2.415  0.7709  0.8997  0.6925
 4723TIP3    H235805   2.029   2.400   2.544  0.6809  2.5841  1.5979
 4724TIP3   OH235806   1.560   4.603   1.229 -0.1752 -0.3079 -0.1233
 4724TIP3    H135807   1.603   4.623   1.146  1.0427  0.1930  0.6145
 4724TIP3    H235808   1.476   4.649   1.224  0.2127  0.3461 -0.7652
 4725TIP3   OH235809   4.491   2.233   8.185  0.1621  0.2075 -0.7594
 4725TIP3    H135810   4.496   2.215   8.279  1.5400  1.7947 -0.5123
 4725TIP3    H235811   4.568   2.189   8.148  0.2420  0.5305 -0.9792
 4726TIP3   OH235812   4.205   4.019   0.937  0.1131 -0.4009  0.0493
 4726TIP3    H135813   4.155   4.041   0.859  0.7640 -0.5700 -0.4200
 4726TIP3    H235814   4.295   4.039   0.914  0.3725 -0.9482  0.5717
 4727TIP3   OH235815   0.898   2.263   2.363  0.0656 -0.1106  0.3603
 4727TIP3    H135816   0.875   2.304   2.280  0.1288  1.9261  1.2989
 4727TIP3    H235817   0.813   2.246   2.405  0.0528 -0.0939  0.3410
 4728TIP3   OH235818   4.148   2.597   0.465  0.4079 -0.2387  0.2484
 4728TIP3    H135819   4.164   2.538   0.539 -0.0142 -0.3785  0.2312
 4728TIP3    H235820   4.196   2.676   0.487  0.9991 -0.5961  0.2628
 4729TIP3   OH235821   2.887   3.641   1.658 -0.1878  0.0893 -0.3952
 4729TIP3    H135822   2.887   3.708   1.590  1.0882  0.6477  0.1194
 4729TIP3    H235823   2.871   3.559   1.611 -0.6685  0.6198 -1.1777
 4730TIP3   OH235824   0.361   7.174   1.542  0.3103  0.1003 -0.9434
 4730TIP3    H135825   0.293   7.137   1.486  0.2933  1.4926 -1.8813
 4730TIP3    H235826   0.321   7.255   1.576  0.8095 -0.0509  0.0368
 4731TIP3   OH235827   1.145   6.564   8.015 -0.1647  0.6005  0.4788
 4731TIP3    H135828   1.053   6.564   7.988 -0.7516 -1.2172  2.3337
 4731TIP3    H235829   1.166   6.657   8.028 -1.3689  1.1166 -1.1134
 4732TIP3   OH235830   2.762   3.445   0.233  0.1483  0.9931  0.5318
 4732TIP3    H135831   2.760   3.482   0.145 -2.0781 -0.6852 -0.1828
 4732TIP3    H235832   2.818   3.368   0.225  0.3197  1.1012  0.6897
 4733TIP3   OH235833   0.018   4.477   2.517 -0.1694 -0.2375  0.4995
 4733TIP3    H135834  -0.002   4.569   2.500  0.5467 -0.3514 -1.0297
 4733TIP3    H235835  -0.008   4.464   2.608  0.5099  1.7056  1.0162
 4734TIP3   OH235836   6.383   3.989   1.491  0.4103 -0.7094 -0.3591
 4734TIP3    H135837   6.451   3.922   1.495  1.4371  0.4093  1.1723
 4734TIP3    H235838   6.321   3.965   1.559  2.7319  1.9369  2.8484
 4735TIP3   OH235839   5.607   3.577   0.769 -0.3768 -0.1652 -0.3061
 4735TIP3    H135840   5.689   3.536   0.798 -0.5224 -1.9113 -2.2441
 4735TIP3    H235841   5.635   3.644   0.707 -0.3692 -0.3942 -0.5533
 4736TIP3   OH235842   5.846   2.000   2.011  0.2178 -0.0141  0.1162
 4736TIP3    H135843   5.891   2.085   2.007  0.7714 -0.2772  0.6945
 4736TIP3    H235844   5.878   1.953   1.934 -0.5624  0.5279 -0.5475
 4737TIP3   OH235845   6.114   6.327   1.072  0.5387  0.2275  0.6326
 4737TIP3    H135846   6.129   6.367   1.157 -1.2123 -0.3341  1.2237
 4737TIP3    H235847   6.135   6.397   1.009  1.0235  0.9064  1.5266
 4738TIP3   OH235848   1.381   4.867   2.046 -0.0561  0.0274 -0.4652
 4738TIP3    H135849   1.368   4.774   2.066 -0.1998 -0.1274 -1.2807
 4738TIP3    H235850   1.467   4.887   2.081 -0.7374  0.0181  1.2539
 4739TIP3   OH235851   1.711   6.012   1.830  1.0917 -0.3116 -0.4169
 4739TIP3    H135852   1.673   5.957   1.762  2.3449 -2.3633  0.4943
 4739TIP3    H235853   1.724   6.097   1.789 -1.5261 -0.4738 -1.6593
 4740TIP3   OH235854   4.593   1.331   7.066 -0.0173  0.4586 -0.3956
 4740TIP3    H135855   4.583   1.314   7.160 -2.8337  2.1010 -0.3414
 4740TIP3    H235856   4.680   1.371   7.057  0.2762  0.2706  1.5014
 4741TIP3   OH235857   0.628   4.562   0.348 -0.0916 -0.6438 -0.5123
 4741TIP3    H135858   0.619   4.495   0.280 -2.9311 -0.8489  0.0038
 4741TIP3    H235859   0.647   4.642   0.299  1.6338 -1.4772 -1.2527
 4742TIP3   OH235860   3.833   4.547   6.949  0.6351  0.6041 -0.0267
 4742TIP3    H135861   3.911   4.511   6.907  0.3191  1.4240 -1.3556
 4742TIP3    H235862   3.814   4.487   7.021  2.8194  0.7215  0.6716
 4743TIP3   OH235863   0.757   3.662   1.089  0.1462  0.7087  0.7099
 4743TIP3    H135864   0.792   3.738   1.042  1.4445 -0.0498  0.4313
 4743TIP3    H235865   0.681   3.696   1.136 -1.1900  1.5084 -1.9125
 4744TIP3   OH235866   2.463   2.133   2.152  0.2287  0.1925  0.1801
 4744TIP3    H135867   2.430   2.218   2.183 -0.7256  0.0650 -0.4527
 4744TIP3    H235868   2.552   2.151   2.123  0.3313  0.7978  0.8774
 4745TIP3   OH235869   0.733   4.810   2.250  0.3066 -0.7522 -0.3109
 4745TIP3    H135870   0.771   4.754   2.318  1.9794 -0.8037 -1.2452
 4745TIP3    H235871   0.652   4.766   2.225 -0.3567 -0.6905  1.6904
 4746TIP3   OH235872   4.566   4.969   7.658 -0.1416 -0.3122  0.1469
 4746TIP3    H135873   4.566   5.037   7.590  0.0132  0.2904  0.7352
 4746TIP3    H235874   4.650   4.980   7.702 -0.6387 -0.0515  1.0525
 4747TIP3   OH235875   0.412   4.971   1.656  0.4385 -0.2540  0.4671
 4747TIP3    H135876   0.420   5.060   1.622  1.7904 -1.1766 -1.8348
 4747TIP3    H235877   0.485   4.962   1.717  0.3358  0.1980  0.6577
 4748TIP3   OH235878   6.030   6.003   1.417  0.2708 -0.0849  0.1049
 4748TIP3    H135879   5.973   5.976   1.489 -0.3751 -3.2512 -1.4980
 4748TIP3    H235880   6.118   5.979   1.446  0.0388 -1.1248 -0.0403
 4749TIP3   OH235881   0.668   3.199   1.964  0.5572 -0.0103 -0.0672
 4749TIP3    H135882   0.667   3.210   2.059  0.4441 -0.0739 -0.0603
 4749TIP3    H235883   0.757   3.221   1.938  1.1722 -2.0448  0.2849
 4750TIP3   OH235884   4.022   3.241   8.283  0.6806 -0.6485 -0.1175
 4750TIP3    H135885   4.009   3.276   8.195 -0.7244 -0.7105  0.0627
 4750TIP3    H235886   4.078   3.306   8.326 -1.1208  0.9438 -0.0994
 4751TIP3   OH235887   3.460   2.689   1.810  0.4339  0.3629  0.3778
 4751TIP3    H135888   3.408   2.766   1.834  0.9701  1.3384 -1.4729
 4751TIP3    H235889   3.407   2.615   1.839 -0.9477  1.3856  0.5598
 4752TIP3   OH235890   5.899   2.472   1.678  0.5247 -0.3138 -0.1019
 4752TIP3    H135891   5.828   2.421   1.716  1.0093 -1.1244 -0.2774
 4752TIP3    H235892   5.915   2.541   1.742 -1.0960  0.4881 -0.5314
 4753TIP3   OH235893   1.421   3.817   1.796 -0.0487 -0.0881 -0.0477
 4753TIP3    H135894   1.385   3.838   1.882  1.3881 -1.9984  1.0689
 4753TIP3    H235895   1.453   3.901   1.762  0.7125  0.4563  1.9491
 4754TIP3   OH235896   2.987   3.424   1.432  0.1623  0.3662  0.1894
 4754TIP3    H135897   2.958   3.346   1.479 -0.5590 -0.1020 -1.0165
 4754TIP3    H235898   3.066   3.396   1.386 -0.4157  0.1920 -0.6955
 4755TIP3   OH235899   2.393   3.216   0.620 -0.1242 -0.0640 -0.7243
 4755TIP3    H135900   2.301   3.187   0.625 -0.1624  0.2206  0.1737
 4755TIP3    H235901   2.393   3.304   0.657  0.7260 -0.5347  0.4110
 4756TIP3   OH235902   3.184   0.309   7.681 -0.1601  0.2498 -0.3136
 4756TIP3    H135903   3.279   0.310   7.669 -0.2599 -2.3538 -1.6184
 4756TIP3    H235904   3.171   0.270   7.767 -0.0355  0.5812 -0.1456
 4757TIP3   OH235905   7.127   4.523   8.350 -0.1524  0.0655  0.0528
 4757TIP3    H135906   7.055   4.470   8.317  0.0089  0.0832 -0.3294
 4757TIP3    H235907   7.140   4.591   8.283 -0.0370  0.2950  0.3075
 4758TIP3   OH235908   2.308   3.430   2.048 -0.0889  0.3617  0.0170
 4758TIP3    H135909   2.306   3.507   2.104  1.2976  0.3327  0.1118
 4758TIP3    H235910   2.305   3.356   2.108  2.9787  0.3131  0.1667
 4759TIP3   OH235911   2.836   1.767   0.264  0.7531 -0.2513  0.5099
 4759TIP3    H135912   2.771   1.752   0.333  0.1856  0.0317  0.0367
 4759TIP3    H235913   2.858   1.859   0.271 -1.2088  0.4015 -1.3286
 4760TIP3   OH235914   3.953   4.793   0.745 -0.2992 -0.4868 -0.1436
 4760TIP3    H135915   3.986   4.723   0.800 -1.9957 -0.2852  1.1744
 4760TIP3    H235916   3.997   4.872   0.776  0.1215 -0.6542 -0.3128
 4761TIP3   OH235917   1.369   2.704   2.169 -0.5622  0.1346  0.6538
 4761TIP3    H135918   1.460   2.692   2.139 -0.7345 -0.3721  0.3368
 4761TIP3    H235919   1.334   2.771   2.111  0.0357  1.3452  1.6686
 4762TIP3   OH235920   0.828   6.257   0.238 -0.5272 -0.3234 -0.2636
 4762TIP3    H135921   0.826   6.248   0.334 -2.5237 -0.0628 -0.2562
 4762TIP3    H235922   0.861   6.173   0.207  0.7519 -0.1875  0.6759
 4763TIP3   OH235923   7.251   1.628   1.764 -0.1923  0.5452 -0.3191
 4763TIP3    H135924   7.179   1.682   1.733 -0.9107 -0.5706 -0.6534
 4763TIP3    H235925   7.327   1.656   1.714 -0.2138  2.2500  0.5642
 4764TIP3   OH235926   1.866   5.159   7.734 -0.2415  0.1249  0.0939
 4764TIP3    H135927   1.817   5.190   7.811  2.0373  1.2496  1.1375
 4764TIP3    H235928   1.832   5.071   7.718  0.6955 -0.9896  3.7133
 4765TIP3   OH235929   2.418   2.967   7.946 -0.0973 -0.0444 -0.0481
 4765TIP3    H135930   2.428   2.978   8.041 -0.7915  1.1431 -0.1065
 4765TIP3    H235931   2.330   3.001   7.927  0.1855  0.0787 -1.1729
 4766TIP3   OH235932   6.888   3.547   7.814  0.5189 -0.8989  0.1446
 4766TIP3    H135933   6.818   3.538   7.750  0.4774  0.9949 -0.1255
 4766TIP3    H235934   6.845   3.577   7.894  0.9892  0.3219 -0.0372
 4767TIP3   OH235935   4.089   2.901   8.203  0.4879 -0.2455 -0.3194
 4767TIP3    H135936   4.043   2.883   8.121  1.0570  0.6735 -0.8335
 4767TIP3    H235937   4.178   2.922   8.177  1.6362 -3.4244  0.7694
 4768TIP3   OH235938   1.357   5.658   0.674  0.5180  0.4473  0.5453
 4768TIP3    H135939   1.309   5.602   0.735 -0.7775  0.7601 -0.1627
 4768TIP3    H235940   1.310   5.649   0.591  1.1385  1.4855  0.0692
 4769TIP3   OH235941   2.374   2.964   0.125  0.6119  0.0765 -0.2493
 4769TIP3    H135942   2.303   3.027   0.135  1.9752  1.5707  0.2177
 4769TIP3    H235943   2.396   2.939   0.215  1.3655  0.4140 -0.3360
 4770TIP3   OH235944   2.213   4.154   7.505 -0.0940  0.0920  0.1357
 4770TIP3    H135945   2.268   4.111   7.439 -0.6495 -1.7534  0.8345
 4770TIP3    H235946   2.238   4.113   7.588 -0.1862  1.6008  0.9277
 4771TIP3   OH235947   3.019   2.476   0.205  0.0818 -0.0297 -0.7282
 4771TIP3    H135948   3.002   2.427   0.125 -0.4130 -0.5499 -0.3073
 4771TIP3    H235949   3.114   2.487   0.207  0.0248  0.6454 -1.7693
 4772TIP3   OH235950   4.191   2.236   8.044  0.5378 -1.1761  0.2009
 4772TIP3    H135951   4.130   2.276   8.106  1.4481 -3.1316  2.4470
 4772TIP3    H235952   4.277   2.264   8.073  0.8345  0.4392 -2.1159
 4773TIP3   OH235953   2.263   4.097   8.096  0.1412 -0.6596 -0.1426
 4773TIP3    H135954   2.329   4.042   8.055  0.1185 -0.8592  0.0887
 4773TIP3    H235955   2.196   4.109   8.028  0.5858 -0.1625 -0.4901
 4774TIP3   OH235956   2.251   3.287   1.148 -0.2278 -0.3862 -0.2038
 4774TIP3    H135957   2.282   3.256   1.063  1.9261 -1.5749  0.9672
 4774TIP3    H235958   2.322   3.266   1.208  0.2192  4.3589  1.1799
 4775TIP3   OH235959   5.628   2.569   0.501  0.0420  0.1302 -0.8200
 4775TIP3    H135960   5.648   2.476   0.492 -0.8592 -0.1770  0.2920
 4775TIP3    H235961   5.557   2.572   0.564  2.0178  1.7752  1.3987
 4776TIP3   OH235962   2.297   1.722   1.779 -0.8072  0.6013 -0.0659
 4776TIP3    H135963   2.240   1.788   1.738  0.1572  1.8699  0.5879
 4776TIP3    H235964   2.238   1.650   1.801 -2.2603  2.0225  0.8936
 4777TIP3   OH235965   2.888   4.670   7.791 -0.1732  0.2621  0.6071
 4777TIP3    H135966   2.924   4.683   7.703 -0.4662 -1.7019  0.1734
 4777TIP3    H235967   2.805   4.717   7.790  0.3619  1.2089  0.2128
 4778TIP3   OH235968   2.678   4.081   1.691 -0.0169  0.4587  0.3832
 4778TIP3    H135969   2.668   4.047   1.602  1.9158  1.7175 -0.3614
 4778TIP3    H235970   2.636   4.167   1.688  1.0066  0.9677  0.3631
 4779TIP3   OH235971   2.217   4.884   0.760  0.6025  0.0963  0.7770
 4779TIP3    H135972   2.184   4.844   0.679 -1.2776 -0.3610  1.7474
 4779TIP3    H235973   2.269   4.815   0.801  2.6675  0.7533 -0.6599
 4780TIP3   OH235974   2.012   1.354   1.810 -0.3644 -0.0063  0.6921
 4780TIP3    H135975   2.036   1.446   1.812 -0.4820  0.0804 -1.1759
 4780TIP3    H235976   1.917   1.353   1.826 -0.8422  0.4292 -1.8861
 4781TIP3   OH235977   3.485   1.753   8.177  0.3572  0.4824  0.0363
 4781TIP3    H135978   3.564   1.808   8.182  0.7322 -0.1091  0.7148
 4781TIP3    H235979   3.479   1.729   8.085  1.3222  0.0376  0.0783
 4782TIP3   OH235980   5.999   2.146   2.322  0.8916 -0.2129  0.7640
 4782TIP3    H135981   6.002   2.101   2.407 -0.8942 -0.9063  0.4856
 4782TIP3    H235982   6.003   2.075   2.258 -0.7508  0.0702  0.3138
 4783TIP3   OH235983   5.461   2.461   1.733  0.3997 -0.2379  0.0768
 4783TIP3    H135984   5.536   2.448   1.791  1.5007  1.1115 -0.9923
 4783TIP3    H235985   5.386   2.431   1.784  0.7280  4.8666  3.9752
 4784TIP3   OH235986   3.039   5.724   1.985  0.5381  0.1721  0.1147
 4784TIP3    H135987   3.026   5.776   1.906 -0.8810 -0.0098  0.2095
 4784TIP3    H235988   3.134   5.719   1.995  0.8908 -2.7345 -3.5266
 4785TIP3   OH235989   1.997   3.788   1.456  0.2660 -0.3814 -0.5681
 4785TIP3    H135990   1.919   3.782   1.511  2.0069 -1.2769  1.8959
 4785TIP3    H235991   2.009   3.882   1.440 -0.0222 -0.0863  0.9363
 4786TIP3   OH235992   2.491   2.310   1.712  0.3823  0.2229 -0.6857
 4786TIP3    H135993   2.505   2.298   1.806  2.3971  1.2438 -0.8439
 4786TIP3    H235994   2.405   2.352   1.706  0.8808  1.4795  0.7781
 4787TIP3   OH235995   3.970   2.794   0.362 -0.2174 -0.0441 -1.1750
 4787TIP3    H135996   4.033   2.725   0.344 -0.1720  0.3740 -2.6730
 4787TIP3    H235997   4.014   2.875   0.337 -0.5483  0.4634 -0.1450
 4788TIP3   OH235998   4.116   2.932   2.196 -0.1782  0.6670  0.3811
 4788TIP3    H135999   4.070   2.900   2.118 -1.0761  0.2833  1.0644
 4788TIP3    H236000   4.096   2.868   2.264  0.1495  1.3004  1.0793
 4789TIP3   OH236001   1.709   6.524   8.011 -0.6352 -0.0387  0.6923
 4789TIP3    H136002   1.722   6.491   8.099 -0.7961  0.4477  0.9036
 4789TIP3    H236003   1.673   6.450   7.962 -0.3205 -0.3751  0.9742
 4790TIP3   OH236004   5.166   2.464   1.058 -0.1511  0.4214 -0.1396
 4790TIP3    H136005   5.175   2.458   1.153  0.0736 -1.6925 -0.2725
 4790TIP3    H236006   5.084   2.510   1.044  0.2348  1.4863  1.0821
 4791TIP3   OH236007   3.760   0.110   8.233 -0.1929 -0.0910 -0.5288
 4791TIP3    H136008   3.675   0.100   8.275 -0.2364 -1.3622 -0.9118
 4791TIP3    H236009   3.755   0.055   8.155  1.2710 -0.8652 -0.1005
 4792TIP3   OH236010   2.582   3.905   7.733  0.1636  0.0353  0.1114
 4792TIP3    H136011   2.658   3.964   7.725  0.3168 -0.2886 -0.8577
 4792TIP3    H236012   2.607   3.827   7.684 -0.1880 -0.7014  1.0907
 4793TIP3   OH236013   2.340   5.402   7.047  0.0920 -0.5079  0.4058
 4793TIP3    H136014   2.260   5.451   7.060 -0.6220 -1.8785  1.2833
 4793TIP3    H236015   2.385   5.405   7.131  0.5952 -0.3686  0.1334
 4794TIP3   OH236016   2.404   1.307   2.334  0.5241 -0.2305  0.0048
 4794TIP3    H136017   2.393   1.212   2.337 -0.6154 -0.1548 -1.0571
 4794TIP3    H236018   2.498   1.321   2.345  1.2449 -1.7248 -3.4730
 4795TIP3   OH236019   2.039   6.385   2.180 -0.3836 -0.1584 -0.0024
 4795TIP3    H136020   2.109   6.446   2.203  0.4766 -1.2907  0.3998
 4795TIP3    H236021   2.065   6.302   2.218 -1.0028 -1.0570 -1.4717
 4796TIP3   OH236022   3.869   4.441   1.709  0.3134 -0.2257 -0.4439
 4796TIP3    H136023   3.893   4.378   1.776 -1.2012 -0.4843 -0.1120
 4796TIP3    H236024   3.952   4.470   1.671  1.0675 -1.6019  0.1359
 4797TIP3   OH236025   5.627   0.605   7.498  0.3848  0.3157 -0.4087
 4797TIP3    H136026   5.706   0.551   7.500  0.1057 -0.0675  0.2337
 4797TIP3    H236027   5.561   0.554   7.545 -0.4730  0.2817 -1.6250
 4798TIP3   OH236028   3.441   6.819   8.351  0.5265  0.0252 -0.1591
 4798TIP3    H136029   3.440   6.904   8.396 -1.0816  1.6343 -3.0010
 4798TIP3    H236030   3.358   6.778   8.377  0.8605 -0.2441  0.4760
 4799TIP3   OH236031   2.314   3.660   1.703 -0.0405  0.4465  0.5636
 4799TIP3    H136032   2.283   3.637   1.615 -2.0994  0.5482  1.2627
 4799TIP3    H236033   2.360   3.581   1.733 -0.2047  0.0600 -0.1870
 4800TIP3   OH236034   2.681   4.291   0.910  0.0036 -0.0742  0.1342
 4800TIP3    H136035   2.753   4.323   0.856 -2.1580 -1.1974 -3.6813
 4800TIP3    H236036   2.690   4.196   0.908 -0.7593 -0.1713  0.8028
 4801TIP3   OH236037   5.516   4.812   1.211  0.5063  0.4122  0.1587
 4801TIP3    H136038   5.422   4.814   1.228  0.2904  1.0017 -1.1005
 4801TIP3    H236039   5.544   4.903   1.213  1.1248  0.2134  0.8967
 4802TIP3   OH236040   3.377   6.112   7.222  0.3720  0.2988 -0.2489
 4802TIP3    H136041   3.299   6.104   7.277  0.2129  1.0963 -0.3423
 4802TIP3    H236042   3.448   6.130   7.283  0.5820 -0.9156 -0.1175
 4803TIP3   OH236043   7.116   2.450   1.740 -0.4063  0.4093  0.0981
 4803TIP3    H136044   7.047   2.461   1.806 -0.5912 -3.0037  0.5377
 4803TIP3    H236045   7.195   2.432   1.791  0.2540  1.5293 -0.5086
 4804TIP3   OH236046   4.025   3.813   1.403  0.0359  0.2809 -0.0508
 4804TIP3    H136047   3.940   3.852   1.382  0.1500  0.8405  0.4942
 4804TIP3    H236048   4.074   3.884   1.446  0.8163 -0.0003 -0.4483
 4805TIP3   OH236049   3.094   1.641   1.970 -0.5903 -0.0052 -0.2999
 4805TIP3    H136050   3.161   1.572   1.968 -1.8146 -1.2079 -0.1542
 4805TIP3    H236051   3.046   1.629   1.887 -0.9401  0.5284 -0.1710
 4806TIP3   OH236052   1.303   4.704   7.675 -0.1067 -0.8646 -0.3443
 4806TIP3    H136053   1.289   4.642   7.747 -0.3953 -0.9975 -0.5142
 4806TIP3    H236054   1.249   4.670   7.604 -1.9261  0.7023  0.2279
 4807TIP3   OH236055   2.976   2.946   2.110 -0.1219  0.0486  0.2874
 4807TIP3    H136056   2.969   2.934   2.016  0.7560  0.4648  0.1659
 4807TIP3    H236057   2.886   2.966   2.138 -0.5704 -1.1238 -0.2979
 4808TIP3   OH236058   7.061   2.902   1.991  0.0189 -0.3462  0.0340
 4808TIP3    H136059   7.123   2.912   1.919  0.9491  1.4770  1.0459
 4808TIP3    H236060   7.083   2.973   2.052 -2.1185 -0.5471  1.1085
 4809TIP3   OH236061   5.034   4.813   0.625  0.0802 -0.3308  0.0834
 4809TIP3    H136062   5.121   4.846   0.648 -0.5463  1.5063 -0.1799
 4809TIP3    H236063   5.050   4.753   0.552  1.1503 -0.2220  0.2188
 4810TIP3   OH236064   3.961   6.635   7.034 -0.5598 -0.0013  0.3051
 4810TIP3    H136065   3.934   6.562   6.978 -2.3510  0.6614  0.2664
 4810TIP3    H236066   3.895   6.636   7.104 -1.1577  2.2384 -0.2696
 4811TIP3   OH236067   2.458   3.297   6.649  0.4722 -0.2365 -0.0927
 4811TIP3    H136068   2.533   3.354   6.668  0.8797 -1.3298  1.6646
 4811TIP3    H236069   2.488   3.209   6.672 -1.0982 -0.7898 -0.1173
 4812TIP3   OH236070   6.213   4.401   6.738 -0.5075  0.1916  0.7436
 4812TIP3    H136071   6.216   4.464   6.810  0.0056 -0.8995  1.6968
 4812TIP3    H236072   6.293   4.349   6.748 -1.1573 -0.9198  0.2788
 4813TIP3   OH236073   3.622   2.099   1.524 -0.0780  0.0639 -0.9847
 4813TIP3    H136074   3.559   2.166   1.552  2.3433  1.3846  1.5311
 4813TIP3    H236075   3.688   2.147   1.475  2.1670 -0.2503  1.6166
 4814TIP3   OH236076   3.335   2.072   7.877 -0.4623  0.0042  0.2702
 4814TIP3    H136077   3.256   2.023   7.895  0.9550 -2.0811  0.9802
 4814TIP3    H236078   3.325   2.103   7.787 -2.0623 -0.2257  0.3580
 4815TIP3   OH236079   5.618   4.143   2.237 -0.0445 -0.4065  0.1903
 4815TIP3    H136080   5.614   4.183   2.150 -1.9373 -1.3239 -0.1624
 4815TIP3    H236081   5.584   4.055   2.224  0.8114 -0.9600  1.6417
 4816TIP3   OH236082   0.968   2.152   1.977  0.1731 -0.1650 -0.2591
 4816TIP3    H136083   1.016   2.210   2.037  0.9883 -0.8886 -0.1969
 4816TIP3    H236084   1.032   2.130   1.909 -0.8235  0.8576 -1.5435
 4817TIP3   OH236085   3.741   4.276   0.259  0.3436 -0.0091 -0.2979
 4817TIP3    H136086   3.828   4.314   0.269  0.7193 -0.9121 -0.1735
 4817TIP3    H236087   3.756   4.186   0.232 -0.5274 -0.5024  0.7847
 4818TIP3   OH236088   3.084   3.434   6.520 -0.5025 -0.2186 -0.2288
 4818TIP3    H136089   3.034   3.505   6.560 -0.1376  0.3504 -0.7616
 4818TIP3    H236090   3.112   3.379   6.593  1.6030  1.7313  0.4806
 4819TIP3   OH236091   3.589   4.481   0.333  0.4528 -0.2525  0.3263
 4819TIP3    H136092   3.551   4.552   0.384 -2.4195 -2.7000  1.7999
 4819TIP3    H236093   3.653   4.441   0.392 -1.1797 -1.6320  1.1944
 4820TIP3   OH236094   0.349   3.985   0.916  0.3829  0.3436  0.2954
 4820TIP3    H136095   0.400   4.045   0.971 -2.1570  2.3199  0.6177
 4820TIP3    H236096   0.376   4.007   0.827 -0.6733  2.1550  0.4010
 4821TIP3   OH236097   1.150   2.074   1.758  0.1446 -0.4071 -0.0126
 4821TIP3    H136098   1.225   2.124   1.727  0.4675  0.6632  2.3374
 4821TIP3    H236099   1.188   1.995   1.795 -0.1186 -1.0561 -1.1193
 4822TIP3   OH236100   1.544   5.849   0.693  0.1441 -0.2738 -0.0494
 4822TIP3    H136101   1.489   5.772   0.689  0.8973 -0.8009 -0.3683
 4822TIP3    H236102   1.599   5.835   0.771 -0.0877  0.1948  0.2031
 4823TIP3   OH236103   2.568   3.239   0.407 -0.3885 -1.2030  0.4536
 4823TIP3    H136104   2.595   3.331   0.406  1.9291 -1.8448  1.6820
 4823TIP3    H236105   2.506   3.233   0.480  1.9068 -1.2627  2.4282
 4824TIP3   OH236106   3.530   3.300   0.073 -0.2543 -0.3434  0.5931
 4824TIP3    H136107   3.573   3.226   0.114 -0.2684  0.0453  1.3094
 4824TIP3    H236108   3.441   3.300   0.110  0.3718  1.2527  2.1695
 4825TIP3   OH236109   2.237   2.740   6.622  0.2454 -0.1790 -0.2918
 4825TIP3    H136110   2.186   2.664   6.651  1.3293 -0.9774 -0.4739
 4825TIP3    H236111   2.173   2.811   6.618 -0.6384 -0.9179  0.5403
 4826TIP3   OH236112   4.330   2.537   2.868  0.1525 -0.0240  0.2929
 4826TIP3    H136113   4.345   2.631   2.881  0.1770  0.0318 -0.1476
 4826TIP3    H236114   4.417   2.498   2.868  0.2309  0.1285 -0.8990
 4827TIP3   OH236115   0.529   6.966   7.844  0.2473  0.2415 -0.4519
 4827TIP3    H136116   0.522   7.004   7.757 -2.1554 -1.6392 -1.1304
 4827TIP3    H236117   0.481   6.883   7.839 -0.9346  0.6205  2.9698
 4828TIP3   OH236118   1.947   2.419   1.809 -0.2424  0.3651  0.0114
 4828TIP3    H136119   1.894   2.460   1.741  1.3700  0.3771 -1.2777
 4828TIP3    H236120   2.002   2.490   1.844 -0.2903  0.1364  0.5599
 4829TIP3   OH236121   2.216   3.394   0.437 -0.5193  0.4337 -0.2744
 4829TIP3    H136122   2.285   3.426   0.495 -0.6971  0.3907 -0.0338
 4829TIP3    H236123   2.261   3.371   0.356  0.3456 -3.1068  1.1325
 4830TIP3   OH236124   3.241   3.226   7.188 -0.1009 -0.2581 -0.6529
 4830TIP3    H136125   3.246   3.131   7.173  2.0007 -0.2328 -0.3142
 4830TIP3    H236126   3.227   3.234   7.282 -0.3530 -0.2385 -0.6926
 4831TIP3   OH236127   5.129   1.500   0.610  0.5139 -0.1832  0.1178
 4831TIP3    H136128   5.173   1.488   0.526 -2.7525  0.4682 -1.7785
 4831TIP3    H236129   5.111   1.594   0.614  1.7026 -0.0167  2.1492
 4832TIP3   OH236130   7.316   4.311   0.123  0.4188 -0.0789 -0.2760
 4832TIP3    H136131   7.319   4.231   0.070 -0.1168  0.1888 -0.7177
 4832TIP3    H236132   7.223   4.328   0.136  0.5457 -0.2553  0.9489
 4833TIP3   OH236133   2.475   4.066   2.286 -0.7000 -0.0499  0.1656
 4833TIP3    H136134   2.536   3.994   2.270 -0.4080  0.1124  0.5353
 4833TIP3    H236135   2.530   4.136   2.320 -1.2535 -0.2391  1.4446
 4834TIP3   OH236136   4.075   0.205   6.535 -0.0277 -0.0460  0.5885
 4834TIP3    H136137   4.137   0.274   6.559  2.0211 -1.7552  0.3439
 4834TIP3    H236138   4.068   0.151   6.614  0.4367 -1.0318 -0.0258
 4835TIP3   OH236139   0.783   6.760   0.397 -0.5062  0.2070 -0.8490
 4835TIP3    H136140   0.867   6.720   0.374 -2.1821 -3.7087 -0.6289
 4835TIP3    H236141   0.787   6.771   0.491  0.1211  0.9331 -0.9570
 4836TIP3   OH236142   7.078   3.979   6.880  0.1313  0.6311  0.8639
 4836TIP3    H136143   7.050   4.029   6.803  1.6959 -0.9323 -0.7682
 4836TIP3    H236144   7.020   4.009   6.950 -1.5430  1.8749 -0.9842
 4837TIP3   OH236145   2.242   1.578   1.031  0.1896 -0.6614  0.9379
 4837TIP3    H136146   2.313   1.621   1.078  0.1884  0.9105 -0.4628
 4837TIP3    H236147   2.260   1.595   0.938 -0.2342 -3.0358  0.3934
 4838TIP3   OH236148   2.601   3.516   1.413  0.1437  0.3369  0.2036
 4838TIP3    H136149   2.673   3.554   1.361  0.0331 -1.2681 -1.1617
 4838TIP3    H236150   2.646   3.466   1.481  0.3335 -1.0567 -0.9367
 4839TIP3   OH236151   3.795   6.806   8.477  0.4671 -0.3394 -0.1226
 4839TIP3    H136152   3.888   6.822   8.467  0.5549 -0.3583  0.5884
 4839TIP3    H236153   3.758   6.891   8.500  0.4924 -0.5641  0.7692
 4840TIP3   OH236154   4.089   3.496   6.559  0.2180 -0.0722  0.1791
 4840TIP3    H136155   4.129   3.577   6.529  0.9393 -0.6426 -0.4137
 4840TIP3    H236156   4.034   3.468   6.485  2.8255 -2.0414 -1.0836
 4841TIP3   OH236157   2.279   1.286   0.861 -0.4862 -0.2852 -0.0385
 4841TIP3    H136158   2.263   1.300   0.955 -2.4515 -1.3474 -0.1772
 4841TIP3    H236159   2.305   1.194   0.855 -1.2931 -0.4804 -0.6258
 4842TIP3   OH236160   2.730   1.680   8.246 -0.1514  0.2002  0.9523
 4842TIP3    H136161   2.726   1.739   8.321 -2.3506 -0.7976  1.6712
 4842TIP3    H236162   2.762   1.597   8.284  2.8261  0.8193 -0.0255
 4843TIP3   OH236163   2.909   4.390   1.191  0.4316 -0.0083 -0.1807
 4843TIP3    H136164   2.982   4.382   1.252  0.2775 -0.4856 -0.0524
 4843TIP3    H236165   2.947   4.425   1.111  0.7798 -0.1565 -0.0772
 4844TIP3   OH236166   2.684   1.367   2.350 -0.0021 -0.7321  0.2144
 4844TIP3    H136167   2.697   1.414   2.432  1.6791 -1.6047  0.4534
 4844TIP3    H236168   2.772   1.352   2.316 -0.6337 -1.3803 -1.1983
 4845TIP3   OH236169   2.791   3.567   1.040  0.0355 -0.0148 -0.1580
 4845TIP3    H136170   2.851   3.493   1.037 -0.2694 -0.2304 -1.3204
 4845TIP3    H236171   2.823   3.628   0.974 -0.3589  0.3835  0.0104
 4846TIP3   OH236172   5.374   1.011   7.765 -0.1993  0.6856 -0.2996
 4846TIP3    H136173   5.426   1.067   7.707  3.1329  1.7340  3.5061
 4846TIP3    H236174   5.409   0.923   7.752 -0.8327  0.5780 -1.3189
 4847TIP3   OH236175   2.030   3.562   1.200 -0.2339 -0.1606 -0.0209
 4847TIP3    H136176   1.980   3.482   1.217 -0.7164 -0.0348 -0.8514
 4847TIP3    H236177   1.974   3.614   1.143  0.4646  0.3731 -0.2236
 4848TIP3   OH236178   2.430   1.058   7.890  0.5124 -0.1874 -0.1226
 4848TIP3    H136179   2.390   0.973   7.903 -0.6682  0.6117  1.6570
 4848TIP3    H236180   2.357   1.117   7.870  1.3005  0.4399 -1.2390
 4849TIP3   OH236181   1.643   2.873   1.839 -0.0380  0.0450 -0.2235
 4849TIP3    H136182   1.699   2.901   1.911  0.1065  0.2662 -0.4208
 4849TIP3    H236183   1.577   2.942   1.832 -0.8376 -0.6166  0.5482
 4850TIP3   OH236184   2.141   2.253   6.738  0.1325 -0.0748  0.5134
 4850TIP3    H136185   2.060   2.303   6.749 -0.1811 -0.7611  1.3256
 4850TIP3    H236186   2.115   2.162   6.750  0.9527 -0.3321  0.3562
 4851TIP3   OH236187   2.565   4.292   0.589  0.3103 -0.7179  0.5606
 4851TIP3    H136188   2.590   4.384   0.582  0.4579 -0.7788  0.2822
 4851TIP3    H236189   2.478   4.288   0.548  1.0050 -1.0011 -0.9286
 4852TIP3   OH236190   4.929   0.412   7.708  0.4371 -0.4164  0.4725
 4852TIP3    H136191   4.891   0.324   7.710 -0.2746 -0.0909  2.2536
 4852TIP3    H236192   4.939   0.436   7.800  1.6708  0.9270  0.0125
 4853TIP3   OH236193   5.464   2.889   1.707 -0.2178 -0.1707 -0.0386
 4853TIP3    H136194   5.495   2.886   1.617 -1.0823  1.4321 -0.4036
 4853TIP3    H236195   5.382   2.939   1.703 -0.9872 -1.2981  1.4268
 4854TIP3   OH236196   1.698   5.073   1.463  0.1343  0.0673 -0.1526
 4854TIP3    H136197   1.778   5.025   1.483  0.0317  0.2282  0.6544
 4854TIP3    H236198   1.628   5.007   1.469 -0.1582  0.5382  2.1632
 4855TIP3   OH236199   2.399   5.825   0.292 -0.3858  0.0817 -0.2660
 4855TIP3    H136200   2.349   5.852   0.368 -0.6845  1.1456 -0.8382
 4855TIP3    H236201   2.397   5.729   0.295 -0.2832  0.1139  1.1251
 4856TIP3   OH236202   3.355   3.725   7.907 -0.1332  0.1022  0.3227
 4856TIP3    H136203   3.438   3.680   7.892 -0.1415 -0.1447  1.0275
 4856TIP3    H236204   3.349   3.788   7.835 -0.3227 -1.3077 -0.9021
 4857TIP3   OH236205   2.728   2.224   2.138  0.3252 -0.3379 -0.3448
 4857TIP3    H136206   2.819   2.237   2.115  0.2838  2.4785  0.9067
 4857TIP3    H236207   2.684   2.304   2.108 -1.6999 -1.5833 -0.7773
 4858TIP3   OH236208   5.577   3.351   7.680  0.1275  0.3982  0.0947
 4858TIP3    H136209   5.618   3.285   7.624  0.3225  1.6330 -1.2359
 4858TIP3    H236210   5.633   3.428   7.670 -0.9271  1.2162  0.4849
 4859TIP3   OH236211   4.657   3.213   0.092  0.6861  0.2187 -0.1428
 4859TIP3    H136212   4.727   3.237   0.152  1.5409 -1.7843 -0.3296
 4859TIP3    H236213   4.654   3.118   0.094 -1.0272  0.2217 -1.2839
 4860TIP3   OH236214   3.949   2.959   1.363  0.5715 -0.0223 -0.0061
 4860TIP3    H136215   3.881   3.010   1.319 -0.7002  1.5652  3.5970
 4860TIP3    H236216   3.927   2.868   1.345 -1.6035  0.5204 -0.1993
 4861TIP3   OH236217   3.302   2.389   0.473  0.2736  0.4045  0.1859
 4861TIP3    H136218   3.268   2.405   0.562  0.1437 -1.1629  0.4266
 4861TIP3    H236219   3.365   2.318   0.484  0.6863  0.5981 -0.8990
 4862TIP3   OH236220   4.645   0.089   1.137  0.6980 -0.0360 -0.2233
 4862TIP3    H136221   4.637   0.035   1.059 -0.0627 -0.7793  0.3591
 4862TIP3    H236222   4.614   0.175   1.110 -0.3105 -0.4943 -0.5418
 4863TIP3   OH236223   0.197   1.838   1.497 -0.4122  0.3032  0.5106
 4863TIP3    H136224   0.259   1.911   1.500 -0.2489  0.2515 -0.9432
 4863TIP3    H236225   0.116   1.874   1.534 -0.0670  0.9586  0.6415
 4864TIP3   OH236226   4.194   2.951   6.743  0.0883  0.3689 -0.6207
 4864TIP3    H136227   4.286   2.925   6.747 -0.1466 -0.4562 -0.5648
 4864TIP3    H236228   4.175   2.985   6.830 -0.2609 -1.5068  0.0451
 4865TIP3   OH236229   1.928   5.870   0.650 -0.6230 -0.2447 -0.3485
 4865TIP3    H136230   1.919   5.783   0.688 -0.9882 -0.4838 -0.9558
 4865TIP3    H236231   1.856   5.875   0.587  0.1043  0.0463 -1.1643
 4866TIP3   OH236232   2.652   1.363   7.372  0.3105  0.8707  0.3748
 4866TIP3    H136233   2.645   1.446   7.324  0.5922  1.2904  1.0540
 4866TIP3    H236234   2.670   1.298   7.304 -2.5334  0.9368 -0.5077
 4867TIP3   OH236235   4.915   2.441   1.960 -0.2180 -1.0030 -0.0332
 4867TIP3    H136236   4.965   2.360   1.958 -1.5402 -1.8325  0.4135
 4867TIP3    H236237   4.824   2.414   1.971 -0.6088  0.5562  0.7761
 4868TIP3   OH236238   3.648   2.838   8.248  0.2620 -0.1767 -0.1115
 4868TIP3    H136239   3.709   2.894   8.296  2.4956 -1.0063 -1.8670
 4868TIP3    H236240   3.604   2.897   8.187  0.5383  0.1407 -0.0052
 4869TIP3   OH236241   3.226   4.778   2.316 -0.3188  0.3116 -0.4049
 4869TIP3    H136242   3.158   4.784   2.249 -0.2277 -2.0783 -0.7454
 4869TIP3    H236243   3.305   4.753   2.268 -0.0618 -0.6096  0.4819
 4870TIP3   OH236244   2.752   2.924   1.333 -0.0793  0.0524 -0.7981
 4870TIP3    H136245   2.845   2.901   1.337  0.7566  2.9387 -2.1000
 4870TIP3    H236246   2.712   2.854   1.281  0.8498 -2.5885  1.9561
 4871TIP3   OH236247   2.313   2.874   2.138 -0.1074  0.1875  0.3033
 4871TIP3    H136248   2.350   2.870   2.050 -0.3836  0.5113  0.1709
 4871TIP3    H236249   2.329   2.787   2.174 -0.3141 -0.0618 -0.1989
 4872TIP3   OH236250   2.895   3.914   1.235  0.5709  0.0517  0.6450
 4872TIP3    H136251   2.981   3.872   1.233 -0.5528 -2.3012 -2.2449
 4872TIP3    H236252   2.898   3.978   1.165  0.2566  0.5960  1.1260
 4873TIP3   OH236253   4.214   2.694   1.394  0.5922  0.3277  0.0868
 4873TIP3    H136254   4.181   2.690   1.304  0.5904 -0.0361  0.1049
 4873TIP3    H236255   4.261   2.778   1.398  1.1931  0.0236 -0.4565
 4874TIP3   OH236256   4.075   3.083   0.650  0.1401  0.1092 -0.0839
 4874TIP3    H136257   4.128   3.018   0.604  1.8078 -0.7497  2.9543
 4874TIP3    H236258   3.996   3.035   0.676  0.1067  0.0558 -0.2829
 4875TIP3   OH236259   2.563   2.705   8.034  0.0943  0.8207  0.1112
 4875TIP3    H136260   2.589   2.657   7.956 -0.4879  0.0575  0.3720
 4875TIP3    H236261   2.498   2.769   8.003 -2.4951 -1.5570  0.3874
 4876TIP3   OH236262   1.997   0.863   0.963  0.2131  0.0889  0.1400
 4876TIP3    H136263   1.926   0.924   0.981 -1.4369 -1.5810 -0.5873
 4876TIP3    H236264   1.988   0.795   1.030  2.3531  0.8812  1.2710
 4877TIP3   OH236265   2.853   3.131   0.689 -0.1063  0.3944 -0.9820
 4877TIP3    H136266   2.932   3.182   0.671  0.4180 -0.4331 -1.0757
 4877TIP3    H236267   2.886   3.051   0.732 -0.9874  0.5408 -0.0091
 4878TIP3   OH236268   3.162   1.429   6.742  0.3913  0.1583  0.4083
 4878TIP3    H136269   3.140   1.341   6.712 -1.0937  0.3691  0.8320
 4878TIP3    H236270   3.254   1.441   6.717  0.8394 -1.7924  1.0353
 4879TIP3   OH236271   4.733   4.463   1.755 -0.2022  0.0246 -0.5308
 4879TIP3    H136272   4.696   4.439   1.840  2.4307  1.0414  0.9638
 4879TIP3    H236273   4.692   4.547   1.735 -0.1046  0.2621  0.2207
 4880TIP3   OH236274   1.532   5.272   1.563  0.3554  0.0880 -0.1831
 4880TIP3    H136275   1.596   5.212   1.526 -0.0204 -0.1869 -0.4003
 4880TIP3    H236276   1.555   5.278   1.656  0.3749 -0.4253 -0.1502
 4881TIP3   OH236277   2.144   4.674   8.089  0.7887 -0.5259  1.1135
 4881TIP3    H136278   2.203   4.626   8.147 -0.0146 -2.1745  0.5912
 4881TIP3    H236279   2.081   4.608   8.058  0.0448  0.7230 -0.1105
 4882TIP3   OH236280   4.999   2.624   7.775  0.4142  0.0565  0.1869
 4882TIP3    H136281   5.053   2.702   7.788  1.6029 -1.0381  2.1124
 4882TIP3    H236282   5.052   2.566   7.720  0.3624 -0.1824  0.3840
 4883TIP3   OH236283   3.859   0.772   0.109  0.7713 -0.2496  0.6002
 4883TIP3    H136284   3.810   0.840   0.061  3.0453  0.0301 -1.4484
 4883TIP3    H236285   3.815   0.690   0.086  0.0377  0.1908  0.4126
 4884TIP3   OH236286   2.690   0.665   2.333  0.1234 -0.7416 -0.4490
 4884TIP3    H136287   2.764   0.633   2.384  1.1165  1.4189 -0.4554
 4884TIP3    H236288   2.729   0.726   2.270 -1.9114  2.6233  1.3967
 4885TIP3   OH236289   3.177   0.466   1.834  0.4855 -0.1617 -0.4725
 4885TIP3    H136290   3.215   0.431   1.914 -0.5697 -1.0108 -0.3257
 4885TIP3    H236291   3.092   0.422   1.827 -0.5472  1.8493 -0.6859
 4886TIP3   OH236292   4.572   1.886   0.930 -0.1199 -0.4190 -0.1452
 4886TIP3    H136293   4.574   1.830   0.853  2.2257  0.4335 -0.7447
 4886TIP3    H236294   4.595   1.829   1.003 -0.9842 -0.9349 -0.2786
 4887TIP3   OH236295   1.428   0.031   6.299 -0.1407  0.6231  0.7334
 4887TIP3    H136296   1.406  -0.044   6.244 -1.1310  1.3720  0.0930
 4887TIP3    H236297   1.343   0.060   6.334  0.4344  0.3389  2.4183
 4888TIP3   OH236298   2.434   6.156   0.044 -0.3530 -0.1756  0.1394
 4888TIP3    H136299   2.466   6.199  -0.036  0.5612 -0.2643  0.4427
 4888TIP3    H236300   2.418   6.228   0.105  0.2446 -0.1908  0.3209
 4889TIP3   OH236301   1.058   0.611   2.448  0.0024 -0.3362  0.7721
 4889TIP3    H136302   1.148   0.604   2.480  0.6203  0.6338 -0.6943
 4889TIP3    H236303   1.014   0.668   2.512  0.9842  0.8547  0.4006
 4890TIP3   OH236304   6.747   5.040   0.656 -0.2817  0.0239 -0.4137
 4890TIP3    H136305   6.828   5.031   0.606 -0.1456 -1.8642  0.0886
 4890TIP3    H236306   6.689   4.973   0.619 -1.0424  0.2716  0.3172
 4891TIP3   OH236307   1.925   4.240   2.568 -0.1065  0.0867  0.0820
 4891TIP3    H136308   1.999   4.226   2.509  0.3035  2.2847  0.0365
 4891TIP3    H236309   1.882   4.154   2.573  1.8914 -0.9941 -0.6090
 4892TIP3   OH236310   4.442   3.161   0.406  0.0433  0.1927  0.2045
 4892TIP3    H136311   4.383   3.174   0.480  0.3703 -1.9786  0.8943
 4892TIP3    H236312   4.514   3.109   0.442  0.6889 -0.0491 -1.4155
 4893TIP3   OH236313   1.589   2.512   2.528 -0.0348  0.5467 -0.0678
 4893TIP3    H136314   1.646   2.452   2.577 -0.8942  0.2708  0.6077
 4893TIP3    H236315   1.644   2.589   2.511  1.1144 -0.4551 -1.0265
 4894TIP3   OH236316   3.411   6.254   8.065  0.2420 -0.4007  0.6922
 4894TIP3    H136317   3.454   6.332   8.100 -0.1829 -0.7320  1.9488
 4894TIP3    H236318   3.399   6.197   8.140  0.4666 -1.6547 -0.2048
 4895TIP3   OH236319   1.134   4.640   8.070  0.0410  0.3192 -0.0315
 4895TIP3    H136320   1.097   4.667   8.154 -0.2171 -2.3975  0.7947
 4895TIP3    H236321   1.100   4.703   8.007 -1.3080  1.2880  1.6140
 4896TIP3   OH236322   1.829   2.623   2.349 -0.7807  0.2332  0.0243
 4896TIP3    H136323   1.880   2.571   2.411 -1.2837 -0.7126 -0.3398
 4896TIP3    H236324   1.892   2.684   2.310 -0.1223 -0.2979  0.2537
 4897TIP3   OH236325   5.836   2.676   7.652 -0.2719  0.2311  0.0294
 4897TIP3    H136326   5.782   2.753   7.636  0.3967  0.6495 -0.2413
 4897TIP3    H236327   5.916   2.691   7.601 -0.7423 -1.3257 -1.1984
 4898TIP3   OH236328   3.840   2.551   0.376 -0.7043  0.4051  0.5792
 4898TIP3    H136329   3.891   2.480   0.339  0.6095  1.2431  0.7499
 4898TIP3    H236330   3.901   2.625   0.381 -1.8366  1.3285  1.0882
 4899TIP3   OH236331   3.893   2.734   0.051 -0.3348 -0.6103 -0.2936
 4899TIP3    H136332   3.872   2.768   0.138 -0.0006 -0.6119 -0.2096
 4899TIP3    H236333   3.857   2.799  -0.010  2.3985  1.1591 -0.1011
 4900TIP3   OH236334   2.775   2.871   0.524 -0.3773  0.3252 -0.5791
 4900TIP3    H136335   2.753   2.869   0.617 -1.9926 -0.3503 -0.9506
 4900TIP3    H236336   2.794   2.779   0.502 -1.0500  0.3129 -1.1337
 4901TIP3   OH236337   1.820   2.859   2.078  0.0408  0.3070 -0.4027
 4901TIP3    H136338   1.841   2.950   2.099  0.2483  0.1373  0.1535
 4901TIP3    H236339   1.895   2.809   2.111  1.4342  0.2198 -3.5823
 4902TIP3   OH236340   2.952   2.490   8.392 -0.3200  0.8201 -0.2691
 4902TIP3    H136341   2.865   2.459   8.418  0.2604 -0.4403  0.2064
 4902TIP3    H236342   3.012   2.422   8.424  0.9686  2.3602  0.6272
 4903TIP3   OH236343   5.317   3.563   1.443 -0.1855  0.2776  0.1710
 4903TIP3    H136344   5.311   3.658   1.430 -2.6126 -0.0605 -1.6133
 4903TIP3    H236345   5.333   3.528   1.355  0.4011 -0.9896  0.7708
 4904TIP3   OH236346   6.100   5.521   1.760 -0.3256  0.2221 -0.3324
 4904TIP3    H136347   6.045   5.480   1.826  1.5242 -0.0981  1.0586
 4904TIP3    H236348   6.171   5.561   1.810  1.5508 -0.6940 -2.1828
 4905TIP3   OH236349   5.202   4.559   2.388  0.0968 -0.2365  0.2471
 4905TIP3    H136350   5.109   4.580   2.373  0.0672 -0.7344 -0.2497
 4905TIP3    H236351   5.237   4.638   2.430 -0.3150  0.3493 -0.4862
 4906TIP3   OH236352   3.469   1.752   1.412 -0.2935 -0.4362  0.1483
 4906TIP3    H136353   3.462   1.660   1.389 -1.2068 -0.1902 -0.5855
 4906TIP3    H236354   3.379   1.779   1.430 -0.3576  0.9229 -2.0478
 4907TIP3   OH236355   2.121   2.968   2.404  0.5093  0.7033  0.0455
 4907TIP3    H136356   2.040   2.950   2.451 -0.0503  3.0820  0.1009
 4907TIP3    H236357   2.181   2.999   2.471  1.0099  0.2618 -0.2007
 4908TIP3   OH236358   2.950   2.900   1.859  0.2732  0.2311 -0.0304
 4908TIP3    H136359   2.980   2.820   1.816 -0.8008 -0.4967  0.5532
 4908TIP3    H236360   2.958   2.968   1.792 -0.3145 -0.6727 -1.0226
 4909TIP3   OH236361   3.120   2.950   1.634 -0.6639 -0.5090  0.7737
 4909TIP3    H136362   3.211   2.978   1.620 -1.7660  2.4927 -0.8315
 4909TIP3    H236363   3.109   2.874   1.577  0.9904 -1.2752  1.4444
 4910TIP3   OH236364   4.637   2.315   2.222  0.0716 -0.1779 -0.0895
 4910TIP3    H136365   4.687   2.237   2.200  2.1089  0.9343  0.4374
 4910TIP3    H236366   4.608   2.301   2.312 -0.9478 -0.9965 -0.5291
 4911TIP3   OH236367   3.894   1.281   7.739 -0.5407 -0.0445 -0.4643
 4911TIP3    H136368   3.907   1.309   7.649 -0.0753  0.0489 -0.3749
 4911TIP3    H236369   3.937   1.196   7.744 -1.6742 -0.6266 -0.6538
 4912TIP3   OH236370   3.136   3.224   0.864 -0.1857 -0.0889 -0.5270
 4912TIP3    H136371   3.184   3.219   0.782 -0.4983 -2.0527 -0.6148
 4912TIP3    H236372   3.192   3.178   0.927 -1.9496 -2.5149 -0.6552
 4913TIP3   OH236373   3.562   3.162   0.500  0.3792  0.4928  0.0079
 4913TIP3    H136374   3.624   3.089   0.502  0.3610  0.4948  0.9721
 4913TIP3    H236375   3.617   3.239   0.486  0.3776  0.2790 -1.2320
 4914TIP3   OH236376   3.222   2.300   1.131  0.2516 -0.1122 -0.3985
 4914TIP3    H136377   3.138   2.287   1.086  0.8562 -0.2434 -1.5078
 4914TIP3    H236378   3.238   2.394   1.123 -0.1380  0.0349  0.4609
 4915TIP3   OH236379   4.837   1.611   7.303  0.4316 -0.1950  0.0109
 4915TIP3    H136380   4.829   1.639   7.211  0.7358 -1.5013 -0.4226
 4915TIP3    H236381   4.893   1.678   7.343 -0.4754  0.8943 -0.5288
 4916TIP3   OH236382   3.173   6.584   1.648  0.0496  0.2737 -0.3195
 4916TIP3    H136383   3.257   6.608   1.686  0.7601  0.1359 -1.7760
 4916TIP3    H236384   3.150   6.658   1.591 -1.5012  0.9428  1.1548
 4917TIP3   OH236385   4.517   1.555   7.761  0.0440 -0.4585  0.1272
 4917TIP3    H136386   4.556   1.641   7.754 -2.3687  0.7490  0.8263
 4917TIP3    H236387   4.521   1.520   7.672  0.1358  0.7938 -0.3727
 4918TIP3   OH236388   2.307   5.258   1.009 -0.2615 -0.0569 -0.0227
 4918TIP3    H136389   2.287   5.325   0.944  0.3156 -1.7002 -1.9728
 4918TIP3    H236390   2.290   5.299   1.093 -0.6565  2.2600 -1.2077
 4919TIP3   OH236391   4.950   6.609   0.746 -0.0803  0.5895 -0.6619
 4919TIP3    H136392   4.941   6.591   0.839  0.1177 -1.4648 -1.0347
 4919TIP3    H236393   4.873   6.571   0.706  0.2811  0.6829 -1.4564
 4920TIP3   OH236394   1.828   4.875   0.775  0.1710  0.4142  0.0712
 4920TIP3    H136395   1.844   4.937   0.846 -0.3327  2.1939 -1.3253
 4920TIP3    H236396   1.911   4.867   0.730  0.5119 -0.7785  0.8794
 4921TIP3   OH236397   2.625   3.540   0.448 -0.1247 -0.4515 -0.2065
 4921TIP3    H136398   2.691   3.508   0.387 -1.0109 -0.2263 -1.2961
 4921TIP3    H236399   2.676   3.584   0.517  0.8891 -0.9070 -0.6484
 4922TIP3   OH236400   2.945   4.095   1.030  0.1074  0.2529  0.3451
 4922TIP3    H136401   3.019   4.154   1.046  0.9728 -0.3455 -1.3089
 4922TIP3    H236402   2.914   4.118   0.943 -0.6367 -0.5914  0.3762
 4923TIP3   OH236403   5.777   6.232   6.548 -0.0351  0.4260  0.1090
 4923TIP3    H136404   5.796   6.290   6.622 -1.7847  1.5883 -0.3397
 4923TIP3    H236405   5.849   6.246   6.487 -0.0208  1.5039  0.3718
 4924TIP3   OH236406   4.597   4.778   7.060  0.0363  0.3147  0.0407
 4924TIP3    H136407   4.655   4.819   6.996 -0.3599 -0.1246 -0.6121
 4924TIP3    H236408   4.622   4.816   7.144  1.6085 -0.2612 -0.1604
 4925TIP3   OH236409   4.735   2.941   2.736 -0.1373 -0.4438 -0.5318
 4925TIP3    H136410   4.663   2.983   2.783  0.6045 -0.2892  0.4938
 4925TIP3    H236411   4.726   2.848   2.755  1.0859 -0.2211  1.2512
 4926TIP3   OH236412   4.125   5.986   1.954 -0.2347 -0.1064  0.0376
 4926TIP3    H136413   4.039   5.991   1.994  0.2314  0.4435  0.9826
 4926TIP3    H236414   4.173   6.062   1.989  0.2549  0.2519 -1.3730
 4927TIP3   OH236415   4.655   4.429   0.659  0.0673 -0.4096  0.2700
 4927TIP3    H136416   4.715   4.384   0.719 -1.0219 -1.1338  0.8427
 4927TIP3    H236417   4.572   4.383   0.671 -1.3997  2.5028  1.7518
 4928TIP3   OH236418   4.709   3.055   6.626 -0.2800  0.3450 -0.3031
 4928TIP3    H136419   4.803   3.041   6.616 -0.6517 -1.3386 -1.5340
 4928TIP3    H236420   4.673   3.037   6.540 -2.1447 -2.4568  1.0238
 4929TIP3   OH236421   2.847   4.418   1.829 -0.1356  0.6048 -0.2937
 4929TIP3    H136422   2.860   4.498   1.881 -1.7236 -0.4974  1.9173
 4929TIP3    H236423   2.780   4.442   1.765  0.3260  1.3933 -0.4916
 4930TIP3   OH236424   1.079   4.945   8.153 -0.1572  0.3870 -0.9764
 4930TIP3    H136425   1.156   4.917   8.202 -0.9488 -0.5564 -0.2567
 4930TIP3    H236426   1.107   5.023   8.106  0.8050  0.8938  0.4313
 4931TIP3   OH236427   6.611   5.751   0.145  0.2591 -0.7662  0.1237
 4931TIP3    H136428   6.613   5.761   0.050 -3.3343 -1.1076 -0.0685
 4931TIP3    H236429   6.645   5.663   0.161  0.2167 -0.9746 -0.9125
 4932TIP3   OH236430   3.448   3.451   8.345  0.0330  0.0866 -0.4237
 4932TIP3    H136431   3.465   3.407   8.429 -2.0788  0.2417  0.1074
 4932TIP3    H236432   3.373   3.507   8.362  1.3528  2.2972 -1.6814
 4933TIP3   OH236433   0.013   0.452   0.955 -0.0557 -0.0794  0.6584
 4933TIP3    H136434  -0.002   0.535   0.999  3.7271  1.1306 -0.1026
 4933TIP3    H236435  -0.045   0.452   0.880 -1.4625  0.9999  1.7401
 4934TIP3   OH236436   4.714   3.047   0.657  0.4111 -0.0992 -0.3861
 4934TIP3    H136437   4.716   3.107   0.732  0.2074 -1.6182  0.8614
 4934TIP3    H236438   4.804   3.045   0.626 -0.1072  3.1776 -2.3725
 4935TIP3   OH236439   3.610   7.225   6.516 -0.0738 -0.4795 -0.4105
 4935TIP3    H136440   3.528   7.179   6.499  0.8786 -2.1507 -0.6107
 4935TIP3    H236441   3.659   7.167   6.574  0.4878  1.0395  0.6831
 4936TIP3   OH236442   4.935   2.020   1.042  0.3813  1.0268  0.3921
 4936TIP3    H136443   5.002   1.964   1.083  0.9791  1.0100 -0.6072
 4936TIP3    H236444   4.895   1.964   0.976 -1.9659  0.3972  2.2661
 4937TIP3   OH236445   0.380   3.507   6.877 -0.6290  0.3840 -0.6261
 4937TIP3    H136446   0.374   3.570   6.949 -0.4826 -0.8203  0.4678
 4937TIP3    H236447   0.446   3.444   6.907 -0.4711 -0.0550 -1.8814
 4938TIP3   OH236448   4.518   1.876   1.832 -0.4745 -0.1034 -0.3066
 4938TIP3    H136449   4.612   1.860   1.822 -0.3534  1.3080 -1.4413
 4938TIP3    H236450   4.481   1.788   1.838  0.6794 -0.7465 -2.0652
 4939TIP3   OH236451   3.546   1.082   8.295 -0.3319 -0.0153 -0.2845
 4939TIP3    H136452   3.532   1.045   8.208  2.0650  2.4102 -1.7838
 4939TIP3    H236453   3.464   1.126   8.316 -0.4441  0.6009 -1.9541
 4940TIP3   OH236454   1.726   4.696   1.720 -0.2768  0.0620 -0.0331
 4940TIP3    H136455   1.633   4.720   1.726 -0.1072  0.6906  0.0330
 4940TIP3    H236456   1.725   4.600   1.720 -0.8518  0.0537  1.1438
 4941TIP3   OH236457   4.804   2.667   8.206 -0.2628  0.4495 -0.0742
 4941TIP3    H136458   4.817   2.604   8.135  0.9558  1.3164 -0.6405
 4941TIP3    H236459   4.769   2.745   8.162  0.5282  1.0038  0.2712
 4942TIP3   OH236460   2.578   0.800   0.876  0.3603 -0.5669  0.4563
 4942TIP3    H136461   2.653   0.753   0.909  0.0026 -1.7091 -0.3215
 4942TIP3    H236462   2.591   0.890   0.905  1.1222 -1.1092  1.8254
 4943TIP3   OH236463   0.427   1.589   1.595  0.1510  0.4908 -0.3224
 4943TIP3    H136464   0.423   1.648   1.670 -2.5583  0.5373 -0.4392
 4943TIP3    H236465   0.414   1.646   1.519 -1.8808 -0.1146 -0.4708
 4944TIP3   OH236466   3.438   1.406   0.240  0.2834  0.3926 -0.0406
 4944TIP3    H136467   3.481   1.407   0.154  0.5234  0.5530  0.0827
 4944TIP3    H236468   3.485   1.471   0.291  0.2731  0.1446  0.2821
 4945TIP3   OH236469   3.311   3.321   0.235  0.3682  0.2283 -0.2016
 4945TIP3    H136470   3.350   3.279   0.312  1.0453  2.1981  0.5549
 4945TIP3    H236471   3.218   3.301   0.241  0.8280 -2.1257 -0.4845
 4946TIP3   OH236472   6.387   4.604   1.783  0.4513 -0.1935 -0.0420
 4946TIP3    H136473   6.394   4.608   1.878 -0.1743 -1.1663  0.0504
 4946TIP3    H236474   6.354   4.690   1.757  0.9768  0.1941  0.5927
 4947TIP3   OH236475   1.672   1.738   1.826 -0.2023  0.2951 -0.1221
 4947TIP3    H136476   1.725   1.817   1.822  0.8795 -0.3825  0.4298
 4947TIP3    H236477   1.585   1.765   1.796  0.3011  1.5538 -0.4650
 4948TIP3   OH236478   1.313   0.551   0.791  0.4876 -0.2316 -0.0968
 4948TIP3    H136479   1.321   0.580   0.882  1.3059 -2.4099  0.5424
 4948TIP3    H236480   1.244   0.607   0.754  1.0150  1.5217  1.4892
 4949TIP3   OH236481   1.027   1.379   2.414 -0.2622  0.4142  0.2138
 4949TIP3    H136482   1.093   1.310   2.410  0.0562  0.6768  0.8012
 4949TIP3    H236483   1.077   1.461   2.415 -0.4892  0.5785  2.2829
 4950TIP3   OH236484   2.690   3.435   1.844  0.0215  0.6779 -0.1964
 4950TIP3    H136485   2.595   3.432   1.831 -0.0966  1.5692  0.4765
 4950TIP3    H236486   2.706   3.376   1.918 -0.2632  2.2420  1.1328
 4951TIP3   OH236487   4.260   1.983   8.141 -0.3596  0.1440 -0.0610
 4951TIP3    H136488   4.322   1.996   8.068  0.5226  1.6250  0.9240
 4951TIP3    H236489   4.190   2.046   8.123  0.0797  0.8322  0.5782
 4952TIP3   OH236490   2.953   3.566   8.305  0.8210  0.1224 -0.4056
 4952TIP3    H136491   2.925   3.614   8.227  1.7332  0.0324 -0.8001
 4952TIP3    H236492   2.893   3.595   8.374 -1.0173 -0.9978 -1.4927
 4953TIP3   OH236493   0.659   5.340   0.968 -0.1272 -0.3506 -0.2768
 4953TIP3    H136494   0.649   5.327   1.062 -1.4298  0.2395 -0.3198
 4953TIP3    H236495   0.751   5.364   0.956  0.6872 -2.8611  0.5559
 4954TIP3   OH236496   3.405   4.695   1.213  0.0913 -0.2600  0.0979
 4954TIP3    H136497   3.355   4.761   1.164  1.3737  0.8312  0.2386
 4954TIP3    H236498   3.387   4.715   1.305  1.9787  1.1041  0.1919
 4955TIP3   OH236499   3.398   3.251   1.515  0.1918 -0.4119 -0.0690
 4955TIP3    H136500   3.407   3.169   1.563 -2.2470 -0.8569 -0.3144
 4955TIP3    H236501   3.323   3.295   1.555  0.3680  0.8822 -1.0940
 4956TIP3   OH236502   5.206   3.019   6.806 -0.3809 -0.2482 -0.6711
 4956TIP3    H136503   5.211   3.112   6.781 -1.9803 -0.2807 -1.1284
 4956TIP3    H236504   5.183   3.022   6.899 -1.3146 -0.1855 -0.8985
 4957TIP3   OH236505   5.024   4.477   1.763 -0.4212 -0.3714  0.5826
 4957TIP3    H136506   4.930   4.484   1.781 -0.6248  0.0114 -0.6099
 4957TIP3    H236507   5.056   4.568   1.766 -0.2438 -0.4192  0.1794
 4958TIP3   OH236508   2.289   3.499   1.450  0.2984  0.1854 -0.0538
 4958TIP3    H136509   2.367   3.545   1.420 -0.1994  0.1200 -1.4656
 4958TIP3    H236510   2.304   3.407   1.425 -0.8056  0.3951 -1.5242
 4959TIP3   OH236511   2.827   3.280   2.424 -0.0567  0.3212 -0.7124
 4959TIP3    H136512   2.890   3.223   2.468  1.0151  0.9457 -1.4215
 4959TIP3    H236513   2.878   3.358   2.401 -1.1609  0.9467 -1.0440
 4960TIP3   OH236514   2.779   2.203   0.044  0.0515  0.2812 -0.0887
 4960TIP3    H136515   2.748   2.186  -0.045  0.2298 -0.1739 -0.0692
 4960TIP3    H236516   2.699   2.209   0.096 -0.0803  1.2253 -0.3883
 4961TIP3   OH236517   3.091   1.901   1.963 -0.0208 -0.5166  0.1985
 4961TIP3    H136518   3.102   1.806   1.965 -0.2465 -0.5746 -0.9417
 4961TIP3    H236519   3.006   1.914   1.922  0.3233  0.2024 -0.2972
 4962TIP3   OH236520   2.822   0.459   0.406 -0.1314 -0.3941 -0.0618
 4962TIP3    H136521   2.834   0.474   0.499 -0.4262  1.3212 -0.2770
 4962TIP3    H236522   2.822   0.364   0.396  0.0887 -0.5799  1.6541
 4963TIP3   OH236523   3.616   0.407   0.353  0.5534  0.0902 -0.3454
 4963TIP3    H136524   3.666   0.413   0.271  0.8505  2.3209 -0.0405
 4963TIP3    H236525   3.609   0.314   0.370  0.2893 -0.4328 -3.0439
 4964TIP3   OH236526   2.932   0.532   2.100 -0.0058 -0.1933 -0.0800
 4964TIP3    H136527   2.912   0.469   2.170 -1.1446 -0.8669 -0.9886
 4964TIP3    H236528   3.027   0.533   2.096  0.0808 -0.1996  1.4302
 4965TIP3   OH236529   2.463   3.104   1.959  0.4917 -0.1016  0.0377
 4965TIP3    H136530   2.410   3.129   2.034  0.3163 -3.0554  0.9403
 4965TIP3    H236531   2.553   3.113   1.990  0.4467  0.0656  0.1234
 4966TIP3   OH236532   2.734   1.232   8.268 -0.1967  0.7559  0.0190
 4966TIP3    H136533   2.655   1.234   8.213  0.0894  0.4919 -0.4019
 4966TIP3    H236534   2.806   1.239   8.206  0.1582 -0.4406  0.2917
 4967TIP3   OH236535   3.483   1.197   1.757  0.3596 -0.3574  0.1817
 4967TIP3    H136536   3.492   1.206   1.852  0.3972 -1.8042  0.3185
 4967TIP3    H236537   3.393   1.168   1.743  0.6098 -0.9649 -0.1712
 4968TIP3   OH236538   3.996   4.366   0.254  0.0897 -0.1043 -0.0275
 4968TIP3    H136539   4.083   4.328   0.244 -0.3788 -1.3812  0.5170
 4968TIP3    H236540   4.006   4.458   0.232  2.3069  0.5300  3.2199
 4969TIP3   OH236541   2.314   1.323   1.941 -0.3725  0.2211  0.3748
 4969TIP3    H136542   2.328   1.344   1.849 -2.1269 -0.1455 -0.0039
 4969TIP3    H236543   2.399   1.292   1.973  0.4741  1.2321 -0.8733
 4970TIP3   OH236544   4.289   3.076   7.756 -0.2905  0.2207  0.3416
 4970TIP3    H136545   4.321   3.158   7.719  1.0528 -0.8177 -0.8801
 4970TIP3    H236546   4.363   3.043   7.808 -0.8821 -0.1150  0.9718
 4971TIP3   OH236547   2.030   5.408   0.150 -0.1338 -0.1446  0.1483
 4971TIP3    H136548   2.093   5.359   0.097 -0.7679 -1.5908  0.7073
 4971TIP3    H236549   1.946   5.396   0.105 -0.2952  0.4763  0.2691
 4972TIP3   OH236550   3.024   5.550   1.572  0.5694 -0.3681 -0.7026
 4972TIP3    H136551   3.079   5.471   1.577  0.9823 -0.0750 -0.5426
 4972TIP3    H236552   2.942   5.525   1.613  1.2693 -0.2338  0.8333
 4973TIP3   OH236553   2.666   0.915   7.817  0.6054  0.1424  0.3329
 4973TIP3    H136554   2.574   0.931   7.838  0.8457  2.9668 -0.5806
 4973TIP3    H236555   2.698   0.998   7.782  3.4485 -0.8634  0.3737
 4974TIP3   OH236556   1.665   0.295   7.949 -0.3083 -0.0213 -0.2942
 4974TIP3    H136557   1.691   0.207   7.921  1.4939 -0.2382  1.8901
 4974TIP3    H236558   1.633   0.283   8.038  0.9977  1.6539  0.4385
 4975TIP3   OH236559   2.942   2.632   8.153  0.3132  0.2605  0.6883
 4975TIP3    H136560   2.893   2.642   8.234  0.6119 -2.0053  1.1617
 4975TIP3    H236561   2.989   2.549   8.163 -1.6589 -1.3637 -2.8671
 4976TIP3   OH236562   4.089   7.058   7.383 -0.2586 -0.0008  0.3426
 4976TIP3    H136563   4.116   7.097   7.466  0.7959 -1.6711  0.8233
 4976TIP3    H236564   4.032   6.986   7.407 -1.3394  0.5666 -0.4759
 4977TIP3   OH236565   3.854   7.279   1.599 -0.0769  0.2031  0.2392
 4977TIP3    H136566   3.809   7.336   1.537 -0.7263 -1.4581 -0.8542
 4977TIP3    H236567   3.806   7.196   1.595  0.1247 -0.0726  2.6671
 4978TIP3   OH236568   3.471   4.970   1.034  0.6738 -0.3463  0.1902
 4978TIP3    H136569   3.562   4.950   1.054  1.9054  1.3137 -3.2678
 4978TIP3    H236570   3.458   4.938   0.944 -1.4254  1.5546 -0.2438
 4979TIP3   OH236571   3.047   3.244   0.245  0.1978  0.6606 -0.1848
 4979TIP3    H136572   3.021   3.182   0.313  0.7095  1.6960  0.9786
 4979TIP3    H236573   2.986   3.228   0.173  0.3889 -1.2351  0.0681
 4980TIP3   OH236574   3.816   6.472   1.360 -0.2823 -0.1146 -0.1192
 4980TIP3    H136575   3.805   6.416   1.283 -0.8016  2.2789 -1.8221
 4980TIP3    H236576   3.847   6.556   1.325  0.8742  0.5731  2.4245
 4981TIP3   OH236577   2.325   2.812   6.871  0.8776 -0.8334 -0.4645
 4981TIP3    H136578   2.295   2.784   6.784 -1.0439  1.1315 -0.5095
 4981TIP3    H236579   2.286   2.749   6.931 -1.3425  0.2044 -0.7425
 4982TIP3   OH236580   4.493   2.323   1.362 -0.4096  0.3638 -0.1289
 4982TIP3    H136581   4.437   2.246   1.361  0.3753 -0.2527  1.2873
 4982TIP3    H236582   4.528   2.329   1.273 -1.9148  0.1734 -0.7461
 4983TIP3   OH236583   5.314   1.438   7.934 -0.2940 -0.2774 -0.7373
 4983TIP3    H136584   5.238   1.389   7.903  0.6220 -0.5644 -2.6146
 4983TIP3    H236585   5.387   1.377   7.924 -0.0140 -0.5493  2.5471
 4984TIP3   OH236586   2.905   2.042   0.253 -1.0565 -0.9467 -0.1138
 4984TIP3    H136587   2.825   2.069   0.208 -1.6209 -2.5400 -0.0897
 4984TIP3    H236588   2.939   2.123   0.291 -1.9910 -0.0344 -1.1506
 4985TIP3   OH236589   4.011   3.692   7.477  0.3405  0.0396  0.0955
 4985TIP3    H136590   3.964   3.675   7.395 -0.1561 -0.7137  0.5306
 4985TIP3    H236591   4.104   3.684   7.454  0.1668 -1.6423 -0.0791
 4986TIP3   OH236592   2.310   3.727   8.088 -0.3080 -0.1073  0.3883
 4986TIP3    H136593   2.311   3.784   8.165  1.3998 -0.9376  1.0005
 4986TIP3    H236594   2.360   3.650   8.114  0.2779 -0.4116 -1.5276
 4987TIP3   OH236595   3.612   5.031   2.435  0.0901 -0.2439  0.0655
 4987TIP3    H136596   3.561   5.111   2.446 -1.7995 -1.4435  0.1409
 4987TIP3    H236597   3.611   4.990   2.521 -0.3157 -1.1529 -0.3696
 4988TIP3   OH236598   4.129   2.527   2.202 -0.3757 -0.5375  0.5644
 4988TIP3    H136599   4.082   2.593   2.253 -1.0789 -1.6024  1.2913
 4988TIP3    H236600   4.193   2.490   2.263 -0.8553 -1.4338  0.5274
 4989TIP3   OH236601   4.923   3.657   0.543 -0.0697 -0.1592 -0.1758
 4989TIP3    H136602   4.953   3.645   0.453  0.2629 -1.2738  0.0855
 4989TIP3    H236603   4.997   3.700   0.587 -0.3234  0.6090 -0.4854
 4990TIP3   OH236604   5.155   0.235   0.798  0.3924 -0.2328  0.0172
 4990TIP3    H136605   5.127   0.298   0.864  0.0284  0.7444 -1.0510
 4990TIP3    H236606   5.080   0.175   0.789 -0.4709  1.0137 -1.1774
 4991TIP3   OH236607   5.462   2.362   1.470 -0.9532 -0.2599  0.4666
 4991TIP3    H136608   5.507   2.434   1.426 -0.9378 -0.2364  0.5206
 4991TIP3    H236609   5.471   2.381   1.563  0.1590 -1.0094  0.5215
 4992TIP3   OH236610   2.545   2.958   1.495  0.0591  0.4861  0.5894
 4992TIP3    H136611   2.624   2.963   1.441  0.0552 -1.8996  0.2992
 4992TIP3    H236612   2.491   2.892   1.452 -0.3061 -0.8619  3.0282
 4993TIP3   OH236613   4.408   0.365   0.597 -0.0282  0.1893 -0.1119
 4993TIP3    H136614   4.452   0.283   0.618 -0.9419 -0.3141 -0.1252
 4993TIP3    H236615   4.340   0.340   0.535 -0.0634  1.0185 -0.4100
 4994TIP3   OH236616   5.197   2.677   2.204 -0.1431 -0.8125  0.3787
 4994TIP3    H136617   5.244   2.629   2.272  1.9608 -1.2922 -1.3642
 4994TIP3    H236618   5.189   2.616   2.132  1.3250  0.9487 -1.3421
 4995TIP3   OH236619   3.350   4.614   1.514 -0.2563 -0.4614  0.0844
 4995TIP3    H136620   3.424   4.576   1.562  2.2103  0.7643 -2.6050
 4995TIP3    H236621   3.308   4.539   1.472 -2.1899 -1.4950  3.6801
 4996TIP3   OH236622   2.409   3.093   1.677 -0.4827  0.0559 -0.3060
 4996TIP3    H136623   2.446   3.076   1.763 -0.2141 -0.7001 -0.5616
 4996TIP3    H236624   2.471   3.052   1.616  0.6051  2.6590 -1.0218
 4997TIP3   OH236625   6.033   1.648   0.677  0.1509  0.3871 -0.4995
 4997TIP3    H136626   6.076   1.675   0.758  0.5103  1.5538 -1.0739
 4997TIP3    H236627   6.010   1.556   0.692  0.7404  0.4250  0.6986
 4998TIP3   OH236628   3.565   3.480   1.885 -0.1297 -0.0799 -0.0956
 4998TIP3    H136629   3.595   3.503   1.973 -0.6233 -2.2873  0.7020
 4998TIP3    H236630   3.609   3.541   1.827  0.0260  1.5686  1.7126
 4999TIP3   OH236631   3.848   6.952   6.355 -0.0563 -0.1331 -0.0573
 4999TIP3    H136632   3.756   6.936   6.377 -0.1267  1.2365  0.7082
 4999TIP3    H236633   3.865   6.896   6.279 -1.7297  0.1606 -0.6654
 5000TIP3   OH236634   3.736   2.957   0.454 -0.3059 -0.1151 -0.5475
 5000TIP3    H136635   3.709   2.868   0.433 -0.0937  0.2985 -2.6868
 5000TIP3    H236636   3.829   2.960   0.432  0.0305  0.2691  0.8251
 5001TIP3   OH236637   2.941   2.221   2.508  0.0037 -0.4784  0.6076
 5001TIP3    H136638   2.965   2.280   2.580  0.6382 -0.6302  0.5233
 5001TIP3    H236639   3.023   2.181   2.482 -0.2260 -0.4258 -0.2076
 5002TIP3   OH236640   0.104   4.836   1.387 -0.4662 -0.1459  0.2580
 5002TIP3    H136641   0.062   4.849   1.302  0.1759 -0.8387 -0.1756
 5002TIP3    H236642   0.147   4.919   1.406  0.3266 -0.3411 -0.6341
 5003TIP3   OH236643   4.646   1.408   6.298 -0.0552  0.1410 -0.4623
 5003TIP3    H136644   4.720   1.422   6.357 -0.9644 -0.1836  0.7717
 5003TIP3    H236645   4.620   1.496   6.272  0.0313  0.3122  0.0176
 5004TIP3   OH236646   4.768   4.875   7.426  0.3678  0.3872 -0.3929
 5004TIP3    H136647   4.706   4.804   7.444 -0.5923  1.4750  0.7587
 5004TIP3    H236648   4.834   4.836   7.370 -0.8258 -1.0869 -0.8161
 5005TIP3   OH236649   6.307   7.308   8.102  0.0786  0.9763 -0.5926
 5005TIP3    H136650   6.265   7.337   8.183  0.4701  3.0385 -1.1098
 5005TIP3    H236651   6.260   7.355   8.033  1.7374  1.5686 -1.3356
 5006TIP3   OH236652   5.105   2.354   1.688 -0.1103  0.4120 -0.4650
 5006TIP3    H136653   5.171   2.296   1.725 -0.4274  0.8797  0.8738
 5006TIP3    H236654   5.062   2.301   1.621  0.2835 -0.5673  0.0399
 5007TIP3   OH236655   4.358   4.263   1.681 -0.2719  0.2480 -0.4779
 5007TIP3    H136656   4.421   4.208   1.634 -0.8998 -2.5999  1.8256
 5007TIP3    H236657   4.411   4.327   1.727  0.6077  0.6077 -1.9596
 5008TIP3   OH236658   5.450   3.716   0.462 -0.2496  0.2152  1.0810
 5008TIP3    H136659   5.529   3.671   0.432  0.7023  1.6743  1.3466
 5008TIP3    H236660   5.383   3.648   0.463  0.4495 -0.5526 -1.2745
 5009TIP3   OH236661   4.143   2.721   8.396  0.4053  0.2998  0.2227
 5009TIP3    H136662   4.115   2.776   8.323  1.1737  2.1052  1.2525
 5009TIP3    H236663   4.062   2.688   8.435 -0.0153 -0.3161 -1.1681
 5010TIP3   OH236664   2.206   3.650   7.242  0.2462  0.0045 -0.3595
 5010TIP3    H136665   2.170   3.642   7.330  1.8577 -1.4678  0.1980
 5010TIP3    H236666   2.286   3.702   7.254  0.4481 -0.1662 -0.9616
 5011TIP3   OH236667   3.560   2.817   0.686  0.4838  0.5655  0.0917
 5011TIP3    H136668   3.466   2.832   0.698  0.3652  0.6496 -0.9483
 5011TIP3    H236669   3.574   2.824   0.592  0.9041 -3.0460 -0.1812
 5012TIP3   OH236670   5.308   2.216   0.189  0.2396 -0.4606 -0.3572
 5012TIP3    H136671   5.400   2.193   0.173  0.1274 -0.0259 -1.6890
 5012TIP3    H236672   5.311   2.307   0.219  0.3533 -0.9055  1.0195
 5013TIP3   OH236673   3.366   0.416   0.136 -0.5683 -0.4315 -0.2288
 5013TIP3    H136674   3.436   0.450   0.192 -1.0496  0.3115 -0.0692
 5013TIP3    H236675   3.286   0.454   0.172 -0.8776  0.0602 -1.4378
 5014TIP3   OH236676   3.346   4.842   7.752  0.0167  0.1011  0.0028
 5014TIP3    H136677   3.380   4.914   7.698 -1.4275  0.9962  0.2650
 5014TIP3    H236678   3.251   4.845   7.739 -0.0611 -1.7393  0.0509
 5015TIP3   OH236679   3.446   3.316   6.820  0.0076 -0.6917 -0.2137
 5015TIP3    H136680   3.381   3.343   6.885  1.3762 -0.2100  1.0010
 5015TIP3    H236681   3.482   3.234   6.855  1.6764  0.2489  0.3493
 5016TIP3   OH236682   3.597   0.589   1.985  0.5269  0.3243 -0.1907
 5016TIP3    H136683   3.548   0.586   1.903  2.1369  2.1409 -1.2664
 5016TIP3    H236684   3.541   0.637   2.045 -0.3152 -0.3012 -0.4665
 5017TIP3   OH236685   3.044   7.017   8.338 -0.0003  0.0326  0.0317
 5017TIP3    H136686   3.067   6.982   8.424 -0.6358 -0.9835 -0.1977
 5017TIP3    H236687   2.948   7.025   8.341  0.1121  1.5322 -0.0132
 5018TIP3   OH236688   6.238   0.328   7.748  0.2305 -0.6957  1.1726
 5018TIP3    H136689   6.223   0.408   7.799  0.9035 -0.5189  1.0919
 5018TIP3    H236690   6.206   0.258   7.805 -1.1684 -0.3044  0.8881
 5019TIP3   OH236691   5.628   3.840   0.673  0.7098  0.6865  0.0323
 5019TIP3    H136692   5.609   3.892   0.750 -0.3676  0.8848 -0.3626
 5019TIP3    H236693   5.544   3.831   0.628  1.1172 -0.3368 -0.5538
 5020TIP3   OH236694   1.676   1.281   1.550  0.5623  0.5694 -0.4925
 5020TIP3    H136695   1.704   1.190   1.552 -0.5032  0.2423  2.0756
 5020TIP3    H236696   1.755   1.330   1.525  2.0746 -0.7874  1.4361
 5021TIP3   OH236697   3.627   3.650   1.637  0.9202  0.4413 -0.2603
 5021TIP3    H136698   3.549   3.679   1.590 -1.2527 -0.5031  2.5911
 5021TIP3    H236699   3.658   3.573   1.589 -2.1113 -1.3947  0.6077
 5022TIP3   OH236700   6.143   7.218   0.775  0.3455  0.2597  0.0658
 5022TIP3    H136701   6.178   7.306   0.770 -0.9708  0.7488 -1.0794
 5022TIP3    H236702   6.166   7.178   0.691  0.4874 -0.3101  0.3713
 5023TIP3   OH236703   2.507   4.319   1.802 -0.8447 -0.1621 -0.0672
 5023TIP3    H136704   2.529   4.313   1.895  0.2330  1.1897 -0.2198
 5023TIP3    H236705   2.541   4.404   1.774  1.0475 -1.5339 -2.2574
 5024TIP3   OH236706   5.488   4.500   2.110 -0.1757  0.0677 -0.2991
 5024TIP3    H136707   5.417   4.563   2.126  0.5719  0.9851 -0.5434
 5024TIP3    H236708   5.443   4.417   2.094 -1.1272  0.2361  1.3707
 5025TIP3   OH236709   3.972   3.828   1.073  0.1699 -0.1563 -0.2805
 5025TIP3    H136710   3.891   3.838   1.123  0.0514 -1.1090 -0.2774
 5025TIP3    H236711   3.998   3.918   1.052  0.2763  0.2837  1.5791
 5026TIP3   OH236712   0.663   4.810   1.456 -0.1850 -0.6382 -0.0617
 5026TIP3    H136713   0.733   4.835   1.396  1.2309 -0.2259  1.6971
 5026TIP3    H236714   0.666   4.876   1.525 -1.6044 -1.2283  0.5873
 5027TIP3   OH236715   3.355   4.195   6.557  0.3909 -0.3553 -0.6779
 5027TIP3    H136716   3.299   4.272   6.546  2.7159  1.3149 -1.2683
 5027TIP3    H236717   3.351   4.150   6.472 -2.3328 -1.8957  0.2087
 5028TIP3   OH236718   3.311   3.135   0.624  0.2325 -0.1026  0.6314
 5028TIP3    H136719   3.265   3.064   0.578 -0.2428  0.5195  0.1377
 5028TIP3    H236720   3.384   3.157   0.566 -0.9876  1.4171 -0.3676
 5029TIP3   OH236721   3.668   5.581   1.495  0.4358  0.2420 -0.0646
 5029TIP3    H136722   3.665   5.620   1.408  1.6083 -0.7035 -0.5311
 5029TIP3    H236723   3.579   5.549   1.510 -0.2797  2.1371 -0.1057
 5030TIP3   OH236724   2.458   4.419   0.851 -0.5544  0.4932  0.5575
 5030TIP3    H136725   2.541   4.386   0.884 -0.5157  0.8303  0.7939
 5030TIP3    H236726   2.458   4.396   0.758 -0.1132  0.6702  0.5135
 5031TIP3   OH236727   4.493   3.701   1.363 -0.4997 -0.2486  0.2151
 5031TIP3    H136728   4.436   3.742   1.298 -0.5701 -1.0923 -0.2680
 5031TIP3    H236729   4.441   3.628   1.398 -1.0452  1.1096  2.3364
 5032TIP3   OH236730   3.388   3.860   2.004 -0.3020 -0.3733  0.2776
 5032TIP3    H136731   3.355   3.896   2.086 -0.1950 -0.3196  0.2977
 5032TIP3    H236732   3.475   3.900   1.994  0.3846 -1.6470  0.9722
 5033TIP3   OH236733   5.528   1.891   0.716 -0.1921  0.0039  0.4632
 5033TIP3    H136734   5.487   1.885   0.802  0.0217  1.9327  0.7058
 5033TIP3    H236735   5.567   1.978   0.713  0.6267 -0.3971 -1.2258
 5034TIP3   OH236736   1.817   4.036   0.465  0.6234  0.3045  0.5651
 5034TIP3    H136737   1.728   4.069   0.482 -0.7189 -2.5389 -0.6996
 5034TIP3    H236738   1.868   4.066   0.541 -1.4074  1.9640  1.3234
 5035TIP3   OH236739   4.604   6.661   1.623  0.0615 -0.4781 -0.4541
 5035TIP3    H136740   4.586   6.617   1.539  1.0300  0.2450 -1.0512
 5035TIP3    H236741   4.539   6.624   1.683 -0.8575 -0.7828 -1.5952
 5036TIP3   OH236742   5.919   1.443   1.097 -0.1224 -0.4367 -0.1320
 5036TIP3    H136743   5.935   1.461   1.189  1.0925 -2.6821  0.1476
 5036TIP3    H236744   5.823   1.445   1.088 -0.1986  0.8112  0.9364
 5037TIP3   OH236745   3.743   3.918   1.508  0.0710 -0.2098  0.2894
 5037TIP3    H136746   3.808   3.940   1.575 -0.3332  0.2361  0.5413
 5037TIP3    H236747   3.661   3.952   1.543 -0.7577 -2.9293  1.1151
 5038TIP3   OH236748   4.138   5.158   1.582 -0.2757 -0.6111  0.4283
 5038TIP3    H136749   4.169   5.163   1.492 -2.5098  0.6167 -0.3261
 5038TIP3    H236750   4.047   5.130   1.575  0.0385 -2.2797  2.4396
 5039TIP3   OH236751   3.064   3.796   0.098  0.1841  0.4158  0.3163
 5039TIP3    H136752   3.017   3.822   0.019 -1.7942 -0.3252  1.2051
 5039TIP3    H236753   3.086   3.704   0.084 -1.2748 -0.0787  1.1002
 5040TIP3   OH236754   4.379   2.229   7.259 -0.0992 -0.6994  0.0599
 5040TIP3    H136755   4.388   2.283   7.337 -0.2498 -1.9164  0.9379
 5040TIP3    H236756   4.286   2.232   7.238  0.0503  0.2212 -0.5263
 5041TIP3   OH236757   5.451   2.950   7.764 -0.2925 -0.0178 -0.2067
 5041TIP3    H136758   5.523   2.996   7.807 -0.4280 -0.8160  0.8741
 5041TIP3    H236759   5.439   2.998   7.681  1.6321 -0.0178 -0.5135
 5042TIP3   OH236760   2.901   3.376   6.731 -0.1417  0.1169 -0.5080
 5042TIP3    H136761   2.885   3.319   6.807  1.6203  1.3946  0.8374
 5042TIP3    H236762   2.819   3.426   6.721 -0.2025  0.3086  0.8602
 5043TIP3   OH236763   5.012   1.343   7.902  0.0678  0.0842 -0.3488
 5043TIP3    H136764   5.007   1.270   7.963  1.1682  1.3533  1.3068
 5043TIP3    H236765   4.923   1.378   7.900  0.7844  2.5328  3.7581
 5044TIP3   OH236766   3.259   4.137   0.437  0.5005  0.4425  0.0291
 5044TIP3    H136767   3.341   4.165   0.396  0.4138 -1.4148 -1.4894
 5044TIP3    H236768   3.191   4.185   0.391  0.5284 -0.3465 -0.8431
 5045TIP3   OH236769   3.793   4.604   1.933  0.0130  0.0621 -0.0459
 5045TIP3    H136770   3.799   4.601   2.029  0.2522 -0.0455 -0.0639
 5045TIP3    H236771   3.882   4.625   1.905 -0.4443  1.9943 -0.1581
 5046TIP3   OH236772   3.752   2.155   2.280 -0.3065 -0.0680 -0.4203
 5046TIP3    H136773   3.806   2.170   2.202  0.1682  0.0472 -0.0718
 5046TIP3    H236774   3.756   2.060   2.293 -0.1540 -0.0545 -0.3698
 5047TIP3   OH236775   4.495   3.112   8.291 -0.2123  0.4128 -0.3090
 5047TIP3    H136776   4.406   3.126   8.323 -0.2352 -0.2275 -0.0871
 5047TIP3    H236777   4.487   3.116   8.196 -0.5268  0.1033 -0.2979
 5048TIP3   OH236778   2.753   3.615   0.677 -0.4126 -0.0894 -0.3366
 5048TIP3    H136779   2.840   3.634   0.715  0.1850 -1.3849 -1.0324
 5048TIP3    H236780   2.729   3.531   0.715 -1.5367  0.4328  0.1165
 5049TIP3   OH236781   4.023   6.979   1.108  0.3091  0.2459  0.0645
 5049TIP3    H136782   4.042   6.904   1.052  1.3847 -0.1312  0.9339
 5049TIP3    H236783   4.074   6.965   1.187 -0.7259  1.0934  0.9052
 5050TIP3   OH236784   6.118   1.779   2.638 -0.0365 -0.1494 -0.4090
 5050TIP3    H136785   6.097   1.751   2.549 -1.1434 -0.1118 -0.1730
 5050TIP3    H236786   6.196   1.729   2.661  0.8371  0.5632 -1.7488
 5051TIP3   OH236787   3.561   0.935   1.601 -0.4521  0.1176 -0.3152
 5051TIP3    H136788   3.552   0.910   1.693 -1.1781 -0.3446 -0.5048
 5051TIP3    H236789   3.492   1.000   1.587  0.4672  1.1381 -0.2146
 5052TIP3   OH236790   3.594   2.002   0.438 -0.2614 -0.0055 -0.0016
 5052TIP3    H136791   3.575   1.915   0.402  2.4637 -0.5802 -0.1465
 5052TIP3    H236792   3.609   1.986   0.531  1.7673  0.0442 -0.3012
 5053TIP3   OH236793   4.828   3.290   0.299  0.3458 -0.2630 -0.9094
 5053TIP3    H136794   4.793   3.330   0.379  0.2143 -1.5291 -0.3266
 5053TIP3    H236795   4.904   3.241   0.328 -0.5579 -1.9303 -1.3275
 5054TIP3   OH236796   3.972   3.841   2.429  0.2084 -0.0974 -0.0783
 5054TIP3    H136797   3.931   3.802   2.506 -1.5143 -1.6673 -1.7500
 5054TIP3    H236798   3.937   3.930   2.425 -0.4295 -0.3214  0.4048
 5055TIP3   OH236799   5.300   2.325   1.905 -0.3928 -0.3932  0.0893
 5055TIP3    H136800   5.270   2.240   1.937  1.1200 -1.1033 -0.3162
 5055TIP3    H236801   5.371   2.349   1.964  1.2255 -0.8816 -1.5886
 5056TIP3   OH236802   2.942   0.328   1.894  0.0591  0.0833  0.1679
 5056TIP3    H136803   2.897   0.351   1.976  1.7804 -0.7925  1.4091
 5056TIP3    H236804   2.887   0.261   1.854  0.4263 -1.3145  1.8973
 5057TIP3   OH236805   2.587   2.186   7.562 -0.5145 -1.0465  0.1030
 5057TIP3    H136806   2.673   2.183   7.520 -0.5089  0.9349 -0.0874
 5057TIP3    H236807   2.525   2.197   7.489 -0.9040 -2.1552  0.2615
 5058TIP3   OH236808   5.232   2.191   8.279  0.2225  0.0933 -0.1398
 5058TIP3    H136809   5.270   2.144   8.204  2.2564  2.2960 -0.5046
 5058TIP3    H236810   5.303   2.243   8.315 -1.2082  0.5011  2.2257
 5059TIP3   OH236811   0.247   3.956   7.004  0.3721  0.2670 -0.3664
 5059TIP3    H136812   0.158   3.986   6.986  0.5724  2.5133  2.0886
 5059TIP3    H236813   0.300   4.000   6.937  0.2618  3.1699  1.3536
 5060TIP3   OH236814   4.970   0.249   0.388 -0.3865 -0.5689  0.2888
 5060TIP3    H136815   4.919   0.231   0.467 -0.1208  0.4055  0.6908
 5060TIP3    H236816   5.001   0.339   0.400 -1.7082  0.1732 -1.6727
 5061TIP3   OH236817   5.705   4.533   1.921  0.0699  0.1396  0.5800
 5061TIP3    H136818   5.714   4.445   1.885  1.3389 -0.0817  1.3848
 5061TIP3    H236819   5.623   4.531   1.969 -0.8188 -0.0455 -0.9364
 5062TIP3   OH236820   5.720   2.079   2.310 -0.7789 -0.2763  0.0317
 5062TIP3    H136821   5.748   2.007   2.366  2.2380 -1.0050 -2.3164
 5062TIP3    H236822   5.678   2.036   2.235  1.6642  0.3201 -1.7239
 5063TIP3   OH236823   4.778   4.779   6.669 -0.4427 -0.3972  0.0079
 5063TIP3    H136824   4.826   4.769   6.587  2.2443 -0.5456  1.5316
 5063TIP3    H236825   4.805   4.865   6.702 -1.8033 -0.1645  0.5506
 5064TIP3   OH236826   4.878   1.248   8.125 -0.1260 -0.0068 -0.1232
 5064TIP3    H136827   4.820   1.179   8.157 -0.3117  0.1150 -0.1979
 5064TIP3    H236828   4.914   1.287   8.204  0.4086 -0.5586 -0.0960
 5065TIP3   OH236829   4.838   2.674   0.695 -0.3708 -0.1755 -0.3322
 5065TIP3    H136830   4.845   2.578   0.698  0.0946 -0.1170  0.9625
 5065TIP3    H236831   4.927   2.703   0.678 -0.4145  0.0468 -0.1784
 5066TIP3   OH236832   6.090   1.674   7.361  0.5137  0.0910  0.0657
 5066TIP3    H136833   6.038   1.717   7.429  0.3997  1.2631 -0.7563
 5066TIP3    H236834   6.042   1.690   7.280  1.7030  0.4423 -0.5760
 5067TIP3   OH236835   2.352   6.527   1.352  0.1735 -0.2480 -0.1396
 5067TIP3    H136836   2.386   6.577   1.426 -0.4173  2.1519 -1.4258
 5067TIP3    H236837   2.423   6.466   1.330  0.9094 -0.0135  1.4767
 5068TIP3   OH236838   2.604   2.738   1.186 -0.0668 -0.0572  0.0047
 5068TIP3    H136839   2.673   2.675   1.169 -0.2328 -0.6917  1.6032
 5068TIP3    H236840   2.523   2.687   1.182 -0.3105  0.3415 -0.1506
 5069TIP3   OH236841   4.465   6.750   7.790  0.5872 -0.5372 -0.1297
 5069TIP3    H136842   4.456   6.833   7.838 -0.5483 -0.7891  0.0899
 5069TIP3    H236843   4.557   6.749   7.762  1.0215  0.0582  1.2298
 5070TIP3   OH236844   6.337   3.026   1.524 -0.3356 -0.0684 -0.1225
 5070TIP3    H136845   6.300   3.022   1.435 -1.0176 -0.8130  0.1898
 5070TIP3    H236846   6.261   3.041   1.581 -0.0041 -0.4054  0.4116
 5071TIP3   OH236847   6.627   1.524   1.583  0.1708 -0.1059 -0.1612
 5071TIP3    H136848   6.662   1.446   1.626  0.6836  0.2984  0.1514
 5071TIP3    H236849   6.642   1.595   1.645  2.2259  0.7517 -1.5894
 5072TIP3   OH236850   5.496   1.085   1.902  0.1973 -0.5727 -0.0173
 5072TIP3    H136851   5.513   1.141   1.827 -1.5633 -0.2218 -0.1658
 5072TIP3    H236852   5.583   1.051   1.927  1.2004  1.6955 -0.3132
 5073TIP3   OH236853   2.893   2.538   2.114  0.1310  0.0395  0.0345
 5073TIP3    H136854   2.949   2.591   2.171 -0.4007  0.9432 -0.2757
 5073TIP3    H236855   2.804   2.555   2.144 -0.1702  0.6514 -1.1598
 5074TIP3   OH236856   2.812   4.346   8.320 -0.0698  0.2268  0.0365
 5074TIP3    H136857   2.801   4.297   8.239  0.0948  0.7135 -0.2797
 5074TIP3    H236858   2.754   4.301   8.383  1.3597 -1.4256  0.2231
 5075TIP3   OH236859   1.367   1.874   2.194  0.7708 -0.1103  0.5210
 5075TIP3    H136860   1.404   1.924   2.267 -0.7431 -1.5381  2.3243
 5075TIP3    H236861   1.272   1.887   2.202  0.5860 -0.4638 -1.0556
 5076TIP3   OH236862   3.904   2.942   1.052 -0.0875 -0.0140 -0.2674
 5076TIP3    H136863   3.989   2.942   1.009 -0.9531 -0.5540 -2.0313
 5076TIP3    H236864   3.896   2.855   1.091 -0.0892 -0.1763 -0.6290
 5077TIP3   OH236865   1.173   6.893   0.367  0.1297  0.1249  0.1281
 5077TIP3    H136866   1.134   6.830   0.427 -0.8329  0.2786 -0.3304
 5077TIP3    H236867   1.266   6.868   0.364 -0.0267 -0.5692  0.8125
 5078TIP3   OH236868   3.287   6.475   0.199  0.3482 -0.2381  0.2272
 5078TIP3    H136869   3.320   6.458   0.111  0.5297 -1.3673  0.5018
 5078TIP3    H236870   3.192   6.466   0.192  0.0430  3.1399 -0.5912
 5079TIP3   OH236871   4.995   3.773   7.265  0.0382 -0.4783 -0.0887
 5079TIP3    H136872   4.990   3.701   7.328  0.8172 -0.1717  0.3201
 5079TIP3    H236873   5.067   3.750   7.207  1.4647  0.8164  1.1154
 5080TIP3   OH236874   2.441   2.791   8.431 -0.1218 -0.6670 -0.2325
 5080TIP3    H136875   2.396   2.857   8.482  0.3114 -0.2338 -0.4103
 5080TIP3    H236876   2.491   2.740   8.495  1.2035  0.4941 -0.3298
 5081TIP3   OH236877   5.817   4.011   7.681 -0.1926  0.1699  0.3672
 5081TIP3    H136878   5.748   4.011   7.615 -0.1074 -0.9477  0.2715
 5081TIP3    H236879   5.895   3.982   7.634  0.1437  0.5431  0.6853
 5082TIP3   OH236880   5.136   4.784   1.538  0.0513  0.0487 -0.1710
 5082TIP3    H136881   5.048   4.746   1.527 -1.1745  2.5804  0.3235
 5082TIP3    H236882   5.169   4.746   1.619  0.4472 -2.7978 -1.6266
 5083TIP3   OH236883   4.587   1.510   7.473  0.6107 -0.0617 -0.0495
 5083TIP3    H136884   4.518   1.570   7.441  1.5300  2.3019  2.2284
 5083TIP3    H236885   4.668   1.561   7.464  1.3755 -0.8395  2.2937
 5084TIP3   OH236886   3.906   2.696   1.263  0.0312  0.4726  0.1199
 5084TIP3    H136887   3.822   2.694   1.216  0.4267 -0.9982 -0.5812
 5084TIP3    H236888   3.895   2.632   1.334  0.6418  0.0632 -0.1500
 5085TIP3   OH236889   4.136   1.982   2.005  0.2503 -0.1963  0.5968
 5085TIP3    H136890   4.177   1.936   2.078  0.8003 -0.0214  0.3936
 5085TIP3    H236891   4.166   2.072   2.013  2.0118 -0.6134 -1.0824
 5086TIP3   OH236892   4.725   1.808   8.453 -0.6217  0.3731  0.2226
 5086TIP3    H136893   4.788   1.780   8.519 -1.0581  0.4584  0.6770
 5086TIP3    H236894   4.778   1.824   8.375 -0.0649  0.5626  0.6368
 5087TIP3   OH236895   1.237   4.814   0.140  0.1729  0.1521 -0.6607
 5087TIP3    H136896   1.214   4.722   0.130  1.9821 -0.4532  0.5424
 5087TIP3    H236897   1.157   4.854   0.176 -0.5071 -1.0159 -0.8377
 5088TIP3   OH236898   5.750   0.927   1.942 -0.1133  0.1379  0.4414
 5088TIP3    H136899   5.692   0.851   1.939 -1.6933  1.2799  1.5404
 5088TIP3    H236900   5.821   0.900   2.000 -0.0266 -0.9310 -0.1459
 5089TIP3   OH236901   3.451   2.210   0.201  0.1486  0.0211 -0.2364
 5089TIP3    H136902   3.386   2.147   0.230  0.5220  0.2158  1.0662
 5089TIP3    H236903   3.504   2.163   0.137 -2.8107  0.6219 -3.2337
 5090TIP3   OH236904   4.993   3.197   8.028  0.2703 -0.5447 -0.3308
 5090TIP3    H136905   4.970   3.253   8.102  1.7284  1.0224 -1.0269
 5090TIP3    H236906   5.087   3.182   8.037 -0.0837 -2.9451 -0.1478
 5091TIP3   OH236907   5.354   3.846   0.725  0.2174 -0.0180 -0.4707
 5091TIP3    H136908   5.330   3.755   0.708  0.5402 -0.0647 -0.6809
 5091TIP3    H236909   5.325   3.863   0.815 -2.1605  0.4261 -1.2593
 5092TIP3   OH236910   2.617   2.153   0.275  0.0650  0.4002 -0.7266
 5092TIP3    H136911   2.615   2.125   0.367  0.6950  1.6134 -0.3317
 5092TIP3    H236912   2.529   2.136   0.243  0.4290 -2.0502 -0.5234
 5093TIP3   OH236913   5.150   1.863   1.091  0.1190  0.5085 -0.3543
 5093TIP3    H136914   5.206   1.844   1.167 -0.6257  2.1247  0.6353
 5093TIP3    H236915   5.207   1.905   1.028  0.4432  0.3719 -0.1503
 5094TIP3   OH236916   4.402   2.306   6.976 -0.5742 -0.0004 -0.3952
 5094TIP3    H136917   4.435   2.384   7.021 -2.3610  0.9810 -0.7760
 5094TIP3    H236918   4.434   2.315   6.886  0.2747 -0.3527 -0.1379
 5095TIP3   OH236919   3.319   0.875   1.895 -0.1523  0.4283  0.5294
 5095TIP3    H136920   3.356   0.959   1.921  1.7652  0.4131 -1.8996
 5095TIP3    H236921   3.394   0.815   1.895 -1.0566 -0.7322  0.0067
 5096TIP3   OH236922   0.457   3.174   1.778 -0.0695 -0.5607  0.6754
 5096TIP3    H136923   0.421   3.085   1.782  0.6247 -0.8773 -0.0041
 5096TIP3    H236924   0.539   3.169   1.826  1.3431 -0.9714 -1.7100
 5097TIP3   OH236925   5.543   1.762   1.841  0.0017 -0.2542  0.0190
 5097TIP3    H136926   5.461   1.713   1.841 -0.0950 -0.0872 -0.3586
 5097TIP3    H236927   5.610   1.696   1.857 -0.1307 -0.5098 -0.4794
 5098TIP3   OH236928   5.091   2.713   0.583  0.1859  0.4611 -0.6864
 5098TIP3    H136929   5.133   2.628   0.575  0.5431  0.5928 -0.2389
 5098TIP3    H236930   5.115   2.760   0.503  1.9686  1.0122  0.1512
 5099TIP3   OH236931   4.988   0.979   1.236  0.4171  0.1898 -0.0028
 5099TIP3    H136932   4.933   1.056   1.248 -0.1777 -0.2595  0.1459
 5099TIP3    H236933   5.041   0.976   1.316 -1.0436 -0.7549  0.9555
 5100TIP3   OH236934   4.640   4.324   2.019 -0.0471  0.0312 -0.3150
 5100TIP3    H136935   4.726   4.335   2.058  0.0321  0.0517 -0.4915
 5100TIP3    H236936   4.638   4.233   1.989  0.1908  0.2325 -0.9618
 5101TIP3   OH236937   6.145   7.329   0.141  0.0556 -0.2974  0.0429
 5101TIP3    H136938   6.081   7.261   0.159 -2.0882  1.4219 -0.8447
 5101TIP3    H236939   6.152   7.377   0.224  0.8386 -0.9782  0.3808
 5102TIP3   OH236940   7.147   3.706   7.305  0.3300  0.5352 -0.4252
 5102TIP3    H136941   7.067   3.730   7.258 -0.1397 -0.8928 -0.3808
 5102TIP3    H236942   7.117   3.685   7.394  0.8225  0.4999 -0.2695
 5103TIP3   OH236943   4.862   3.802   0.031  0.1055  0.3442 -0.0823
 5103TIP3    H136944   4.776   3.808   0.075  0.1648 -1.3241  0.2971
 5103TIP3    H236945   4.905   3.729   0.074  1.1202  0.1969 -1.3305
 5104TIP3   OH236946   0.547   6.759   1.866  0.1146  0.3773  0.0452
 5104TIP3    H136947   0.556   6.788   1.957 -0.9409  1.9960 -0.3334
 5104TIP3    H236948   0.590   6.674   1.863  0.3963  0.4297  1.9983
 5105TIP3   OH236949   5.490   2.364   1.163  0.2392 -0.2138 -0.2895
 5105TIP3    H136950   5.454   2.436   1.111  0.1531  0.5147  0.7741
 5105TIP3    H236951   5.468   2.385   1.253  0.8457 -1.2102  0.1079
 5106TIP3   OH236952   1.593   6.066   0.968 -0.5978 -0.5599  0.2260
 5106TIP3    H136953   1.608   5.972   0.952 -0.8613 -0.3336 -1.4724
 5106TIP3    H236954   1.636   6.083   1.051  2.4006 -1.4880 -1.0499
 5107TIP3   OH236955   4.379   4.778   0.694 -0.2612  0.2125 -0.6180
 5107TIP3    H136956   4.474   4.778   0.707 -0.6050  0.8620  2.3039
 5107TIP3    H236957   4.361   4.864   0.654  0.3280  0.2199 -0.8797
 5108TIP3   OH236958   2.657   3.787   1.160 -0.1770 -0.0511  0.5036
 5108TIP3    H136959   2.664   3.709   1.105  0.3623 -0.8858  1.7359
 5108TIP3    H236960   2.745   3.799   1.195  0.1049  1.9804 -0.8212
 5109TIP3   OH236961   6.236   0.103   0.360  0.3490 -0.2447 -0.3701
 5109TIP3    H136962   6.201   0.189   0.335  1.6081  0.1291 -0.9360
 5109TIP3    H236963   6.264   0.114   0.450 -1.5538 -0.7406  0.3074
 5110TIP3   OH236964   4.929   2.673   1.415 -0.8337  0.3256 -0.2662
 5110TIP3    H136965   4.982   2.606   1.372 -1.1064  0.4459 -0.7989
 5110TIP3    H236966   4.961   2.676   1.505 -0.3940 -0.0747 -0.4108
 5111TIP3   OH236967   5.797   5.517   6.034 -0.0755 -0.0333 -0.4431
 5111TIP3    H136968   5.716   5.539   5.988  0.9500 -0.1047 -2.3466
 5111TIP3    H236969   5.779   5.536   6.126 -2.1780  0.1320 -0.8703
 5112TIP3   OH236970   3.369   3.649   7.468  0.0204  0.1237  0.4169
 5112TIP3    H136971   3.321   3.573   7.501  0.9739 -0.7531 -0.1855
 5112TIP3    H236972   3.312   3.687   7.402  0.3628 -1.2516 -0.7043
 5113TIP3   OH236973   1.832   5.831   1.169  0.5112 -0.4160 -0.1415
 5113TIP3    H136974   1.886   5.789   1.235 -1.5890 -2.5612  0.2640
 5113TIP3    H236975   1.825   5.922   1.197  1.5213 -0.7973  1.3428
 5114TIP3   OH236976   4.472   6.490   1.403  0.1705 -0.6108 -0.1157
 5114TIP3    H136977   4.517   6.501   1.319 -0.2563 -1.7212 -0.4991
 5114TIP3    H236978   4.419   6.411   1.391 -2.5652  1.1257 -0.0138
 5115TIP3   OH236979   3.558   3.548   6.235 -0.7910 -0.0979  0.0382
 5115TIP3    H136980   3.540   3.636   6.203 -1.0823 -0.8784 -2.0242
 5115TIP3    H236981   3.471   3.510   6.249 -0.6661  0.0441  1.2532
 5116TIP3   OH236982   2.716   2.410   2.432 -0.8841 -0.4544  0.1681
 5116TIP3    H136983   2.773   2.336   2.416  0.4040  0.5540  0.0099
 5116TIP3    H236984   2.647   2.376   2.490 -0.2882 -1.7430  0.1259
 5117TIP3   OH236985   4.936   2.336   0.496 -0.3845  0.3596  0.4263
 5117TIP3    H136986   4.997   2.407   0.475  0.9590 -0.6853  0.7719
 5117TIP3    H236987   4.863   2.349   0.434  0.8918  0.7149 -1.0404
 5118TIP3   OH236988   3.571   1.597   1.008 -0.4489 -0.1410 -0.1728
 5118TIP3    H136989   3.587   1.522   0.950  2.4388 -0.9589  1.5650
 5118TIP3    H236990   3.488   1.576   1.051 -0.2479 -1.8077 -0.5338
 5119TIP3   OH236991   1.651   3.291   1.740 -0.4939 -0.2319  0.2973
 5119TIP3    H136992   1.744   3.275   1.756 -0.0738  0.5462 -1.2684
 5119TIP3    H236993   1.607   3.211   1.769  0.4275  0.2144  3.0801
 5120TIP3   OH236994   3.106   2.417   7.890 -0.2620  0.3435  0.3431
 5120TIP3    H136995   3.038   2.482   7.870  0.3871  1.4928  1.8117
 5120TIP3    H236996   3.188   2.465   7.881  0.4190 -1.0893 -1.6174
 5121TIP3   OH236997   3.619   3.248   7.849  0.1932  0.5132 -0.8737
 5121TIP3    H136998   3.587   3.268   7.761 -3.5686  0.7626  0.4735
 5121TIP3    H236999   3.582   3.316   7.904  0.8102 -0.8093  1.2183
 5122TIP3   OH237000   5.518   1.120   0.890  0.2551  0.2537  0.4736
 5122TIP3    H137001   5.488   1.058   0.824 -0.3167  1.9108 -0.8637
 5122TIP3    H237002   5.580   1.176   0.843  1.6986 -0.0709  1.9715
 5123TIP3   OH237003   2.072   2.856   8.066 -0.3239 -0.2139 -0.3088
 5123TIP3    H137004   2.162   2.830   8.083 -0.0675  1.6183  1.1850
 5123TIP3    H237005   2.021   2.813   8.134 -0.2339  0.9554  0.5041
 5124TIP3   OH237006   2.708   2.193   1.565  0.1605  0.1986  0.3286
 5124TIP3    H137007   2.626   2.241   1.570  0.5068  0.8312 -0.0308
 5124TIP3    H237008   2.728   2.170   1.656  0.7380  1.9961  0.6751
 5125TIP3   OH237009   3.020   2.752   0.974  0.0246  0.3582 -0.1974
 5125TIP3    H137010   3.105   2.707   0.971 -0.7813 -1.2159 -0.0302
 5125TIP3    H237011   3.038   2.834   1.019  1.6501  0.4767 -1.0159
 5126TIP3   OH237012   5.064   1.886   2.462 -0.9502  0.6534  0.3759
 5126TIP3    H137013   4.980   1.915   2.426 -0.5988  0.1612 -0.8648
 5126TIP3    H237014   5.062   1.791   2.452 -0.1572  0.6614  0.1454
 5127TIP3   OH237015   5.703   0.743   1.184 -0.0508 -0.8620 -0.4138
 5127TIP3    H137016   5.648   0.814   1.152 -0.3101 -1.3892 -1.1403
 5127TIP3    H237017   5.774   0.787   1.232  0.8730 -0.0254 -2.5016
 5128TIP3   OH237018   4.635   2.131   0.767 -0.0123  0.1196  0.6547
 5128TIP3    H137019   4.567   2.166   0.709 -1.6006 -1.9432  1.2299
 5128TIP3    H237020   4.603   2.044   0.793  2.0066 -0.1638  2.3552
 5129TIP3   OH237021   2.017   6.887   1.559 -0.0408 -0.2682  0.1357
 5129TIP3    H137022   2.088   6.836   1.596  1.1930  0.8132 -0.6789
 5129TIP3    H237023   1.955   6.898   1.631  2.2030  1.6374  1.8728
 5130TIP3   OH237024   1.893   1.905   6.304  0.0036  0.5113 -0.4108
 5130TIP3    H137025   1.970   1.904   6.248  1.4642  1.3673  1.5257
 5130TIP3    H237026   1.900   1.826   6.358  0.4929  1.5044  1.0114
 5131TIP3   OH237027   0.791   5.855   7.290  0.2323  0.7274 -0.5790
 5131TIP3    H137028   0.812   5.868   7.197 -0.8956 -0.8548 -1.0868
 5131TIP3    H237029   0.695   5.861   7.294  0.1594 -0.6336  0.2155
 5132TIP3   OH237030   1.857   3.364   0.861 -0.4719 -0.5891  0.2656
 5132TIP3    H137031   1.823   3.284   0.822  1.1389 -1.7720  1.1933
 5132TIP3    H237032   1.918   3.399   0.796  0.4476 -1.2931  0.7413
 5133TIP3   OH237033   4.866   4.250   8.468  0.4670  0.8505  0.0829
 5133TIP3    H137034   4.778   4.273   8.498  0.1588 -1.4358  1.0211
 5133TIP3    H237035   4.924   4.292   8.532 -0.0203  0.4493  0.7941
 5134TIP3   OH237036   6.716   5.232   8.441 -0.0393 -0.1714 -0.0876
 5134TIP3    H137037   6.810   5.215   8.441  0.1982  1.0468  0.9423
 5134TIP3    H237038   6.681   5.175   8.373  1.1495 -2.2648  1.0308
 5135TIP3   OH237039   5.298   1.558   6.284 -0.2931 -0.1981 -0.0464
 5135TIP3    H137040   5.237   1.501   6.237  0.0972 -1.1750  0.6041
 5135TIP3    H237041   5.380   1.551   6.236 -1.0845  2.3728 -1.8615
 5136TIP3   OH237042   5.375   5.517   7.089 -0.1714 -0.1139 -0.3469
 5136TIP3    H137043   5.335   5.562   7.015  1.4517 -0.7244 -1.6213
 5136TIP3    H237044   5.464   5.554   7.095  1.0455 -2.7721 -1.1409
 5137TIP3   OH237045   4.290   2.986   7.362  0.3304  0.4998  0.0204
 5137TIP3    H137046   4.331   2.919   7.418  0.0371  0.2084 -0.1133
 5137TIP3    H237047   4.364   3.032   7.322  0.5556  1.0215  1.0179
 5138TIP3   OH237048   6.067   3.727   2.190  0.2369 -0.6719  0.3220
 5138TIP3    H137049   6.132   3.759   2.253  1.3293  0.1985 -1.2252
 5138TIP3    H237050   6.044   3.640   2.222  0.0753  0.1211  2.4489
 5139TIP3   OH237051   3.473   4.226   0.271  0.3229 -0.2379 -0.3047
 5139TIP3    H137052   3.549   4.180   0.238 -1.2956 -0.9257 -3.2736
 5139TIP3    H237053   3.492   4.319   0.255  0.2195 -0.4625 -1.7346
 5140TIP3   OH237054   2.785   2.150   8.282 -0.3627 -0.0353  0.1593
 5140TIP3    H137055   2.869   2.117   8.251 -0.0416  0.3733  0.5760
 5140TIP3    H237056   2.722   2.127   8.214  0.2540  0.4632 -0.5809
 5141TIP3   OH237057   3.961   2.305   6.678 -0.9835 -0.5234  0.6460
 5141TIP3    H137058   3.958   2.343   6.766 -1.8351 -2.0749  1.3186
 5141TIP3    H237059   3.901   2.359   6.626 -0.7079  0.2129  1.0884
 5142TIP3   OH237060   5.101   2.707   8.375  0.8431 -0.1805  0.9184
 5142TIP3    H137061   5.057   2.756   8.306  1.2678  1.5719  1.8807
 5142TIP3    H237062   5.072   2.617   8.362  0.3435  0.2428 -1.0886
 5143TIP3   OH237063   6.363   0.091   2.242 -0.2107 -0.8307 -0.1547
 5143TIP3    H137064   6.421   0.082   2.318 -2.1267 -1.8322  1.2544
 5143TIP3    H237065   6.420   0.079   2.166  1.7131 -0.0509  1.1301
 5144TIP3   OH237066   3.712   0.502   0.107  0.3345 -0.3294  0.1784
 5144TIP3    H137067   3.651   0.576   0.106  0.0005 -0.5759  1.3160
 5144TIP3    H237068   3.686   0.448   0.032  0.5955  0.7058 -0.6737
 5145TIP3   OH237069   4.771   4.583   8.448 -0.2886  0.8222 -0.8603
 5145TIP3    H137070   4.761   4.542   8.362  0.6890  1.0600 -1.0997
 5145TIP3    H237071   4.834   4.654   8.434  1.6729 -0.5931  0.5050
 5146TIP3   OH237072   4.100   3.104   7.561  0.3828  0.1624 -0.2628
 5146TIP3    H137073   4.145   3.086   7.644  0.7883 -0.4255 -0.6023
 5146TIP3    H237074   4.162   3.076   7.494  1.2691  3.3282 -0.8638
 5147TIP3   OH237075   6.158   2.553   2.039 -0.1011 -0.1708  0.5936
 5147TIP3    H137076   6.133   2.511   2.122  0.4886 -1.5573  0.0852
 5147TIP3    H237077   6.249   2.527   2.026 -0.3739 -0.4443 -0.7983
 5148TIP3   OH237078   5.384   3.132   1.060  0.6045  0.0697  0.2330
 5148TIP3    H137079   5.349   3.202   1.115 -1.2449 -1.2721  0.8042
 5148TIP3    H237080   5.466   3.107   1.103 -0.3381 -0.3027  1.8279
 5149TIP3   OH237081   3.411   6.739   0.490 -0.6431 -0.0648  0.3811
 5149TIP3    H137082   3.425   6.644   0.489 -4.0977 -0.6247 -0.5964
 5149TIP3    H237083   3.391   6.759   0.581  0.1189 -0.2517  0.5956
 5150TIP3   OH237084   6.401   2.056   1.290  0.4757 -0.2450 -0.1194
 5150TIP3    H137085   6.412   2.143   1.252 -0.2763  0.7489  1.8475
 5150TIP3    H237086   6.455   2.057   1.369 -3.0774  0.0876  2.4211
 5151TIP3   OH237087   3.222   4.785   7.352  0.5240 -0.3717  0.5369
 5151TIP3    H137088   3.227   4.846   7.279  0.0374  0.1440  0.9338
 5151TIP3    H237089   3.181   4.707   7.315 -0.2711  0.1061  0.3988
 5152TIP3   OH237090   2.471   3.701   7.244  0.1287 -0.1642  0.0696
 5152TIP3    H137091   2.498   3.774   7.189  0.6166  0.3312  0.9652
 5152TIP3    H237092   2.472   3.625   7.185 -2.6425  0.9091 -1.4578
 5153TIP3   OH237093   2.964   0.820   0.316  0.2418  0.1489 -0.1873
 5153TIP3    H137094   2.919   0.894   0.357  0.4388 -0.4212  1.0695
 5153TIP3    H237095   3.043   0.858   0.277 -0.5209  0.8855 -1.0562
 5154TIP3   OH237096   6.994   1.185   1.865 -0.2350  0.2850  0.1332
 5154TIP3    H137097   6.986   1.097   1.829 -0.8721 -0.4438  1.9918
 5154TIP3    H237098   7.088   1.202   1.869 -0.0502 -0.9736  1.2984
 5155TIP3   OH237099   0.870   3.878   7.355  0.0000  0.0810 -0.1874
 5155TIP3    H137100   0.900   3.867   7.446  0.9942  1.4816 -0.3269
 5155TIP3    H237101   0.831   3.793   7.332  0.4859 -0.5526  1.2735
 5156TIP3   OH237102   5.763   5.518   7.398  0.1590  0.1817  0.0423
 5156TIP3    H137103   5.841   5.462   7.394 -0.0283 -0.0926  0.2566
 5156TIP3    H237104   5.704   5.481   7.332  0.4009  0.6767 -0.4534
 5157TIP3   OH237105   3.614   2.397   1.710  0.5463  0.2732 -0.2894
 5157TIP3    H137106   3.655   2.467   1.659 -0.3043 -0.9226 -2.6997
 5157TIP3    H237107   3.524   2.393   1.678  0.4373 -1.5724  0.1745
 5158TIP3   OH237108   5.750   5.245   1.635 -0.1875 -0.2405  0.7278
 5158TIP3    H137109   5.783   5.199   1.557  0.5177 -0.6892  1.2837
 5158TIP3    H237110   5.828   5.259   1.689 -0.6829  0.0295  1.3728
 5159TIP3   OH237111   2.186   5.944   1.322 -0.4851 -0.4076  0.1748
 5159TIP3    H137112   2.196   6.010   1.391 -1.2545 -1.3189  1.1694
 5159TIP3    H237113   2.185   5.860   1.369  2.6824 -1.3091 -1.2415
 5160TIP3   OH237114   3.859   3.064   1.600  0.1843  0.2877  0.3463
 5160TIP3    H137115   3.894   3.002   1.536  0.6400  2.1800 -1.3048
 5160TIP3    H237116   3.921   3.062   1.672 -0.8406 -2.6047  1.2331
 5161TIP3   OH237117   4.278   4.175   1.941 -0.0011 -0.0393  0.2720
 5161TIP3    H137118   4.278   4.189   1.846  0.8702  0.5460  0.3546
 5161TIP3    H237119   4.223   4.246   1.975 -0.0281 -0.0465  0.2436
 5162TIP3   OH237120   4.958   5.355   0.972 -0.1442 -0.2419 -0.2567
 5162TIP3    H137121   4.991   5.306   1.047 -1.5058  0.2121  0.6433
 5162TIP3    H237122   4.863   5.357   0.984 -0.3928 -0.3141 -2.0824
 5163TIP3   OH237123   4.052   6.842   7.691 -0.4417 -0.1424 -0.7843
 5163TIP3    H137124   4.094   6.927   7.702  1.0998 -1.1547  1.3250
 5163TIP3    H237125   4.056   6.826   7.597 -0.2632  1.8490 -1.1456
 5164TIP3   OH237126   3.867   2.793   0.713  0.0953  0.2182 -0.5229
 5164TIP3    H137127   3.772   2.789   0.727 -0.0954 -0.6385 -2.0301
 5164TIP3    H237128   3.896   2.702   0.718  0.8811  0.5044  0.1874
 5165TIP3   OH237129   4.499   5.334   0.767 -0.7093 -0.1657 -0.5646
 5165TIP3    H137130   4.521   5.292   0.684  1.8809 -0.6235  0.2852
 5165TIP3    H237131   4.515   5.427   0.751 -0.9956 -0.1616 -0.8239
 5166TIP3   OH237132   3.425   5.403   1.993 -0.9353  0.1764  0.1591
 5166TIP3    H137133   3.493   5.463   1.963 -1.4921  1.2720  1.0775
 5166TIP3    H237134   3.358   5.406   1.924  0.5300 -1.9507 -1.4251
 5167TIP3   OH237135   3.164   2.217   6.975  0.7042 -0.9248  0.6525
 5167TIP3    H137136   3.174   2.307   7.006  1.0390 -0.5297 -0.5762
 5167TIP3    H237137   3.070   2.206   6.964  0.8068  0.0029 -1.2854
 5168TIP3   OH237138   3.302   2.469   0.109 -0.6358 -0.2556 -0.3112
 5168TIP3    H137139   3.351   2.481   0.027  1.4429  0.5794  0.9914
 5168TIP3    H237140   3.326   2.381   0.138  0.7803  0.4334  0.7127
 5169TIP3   OH237141   4.160   3.801   8.390  0.2121 -0.6335  0.0896
 5169TIP3    H137142   4.194   3.717   8.421 -1.6561 -1.4184  0.0756
 5169TIP3    H237143   4.093   3.825   8.454 -1.0603 -0.4201 -1.3048
 5170TIP3   OH237144   5.268   1.954   0.303 -0.2985 -0.5219 -0.3640
 5170TIP3    H137145   5.338   1.900   0.267  1.9871  1.4843  0.8938
 5170TIP3    H237146   5.289   2.043   0.272 -1.8205  0.2339  0.7185
 5171TIP3   OH237147   4.359   0.553   8.021 -0.1989  0.8774  0.0529
 5171TIP3    H137148   4.297   0.588   7.956 -2.5182 -0.1147  1.6429
 5171TIP3    H237149   4.350   0.458   8.014  2.4392  0.6666 -0.8423
 5172TIP3   OH237150   3.982   6.369   8.119 -0.3684  0.0495 -0.1071
 5172TIP3    H137151   4.062   6.322   8.099 -1.9667 -2.4589 -0.7530
 5172TIP3    H237152   3.995   6.401   8.209  0.8560 -1.4069  0.2547
 5173TIP3   OH237153   6.125   3.947   7.936 -0.4005 -0.2285 -0.2996
 5173TIP3    H137154   6.208   3.968   7.978  0.4041 -0.8295 -1.5731
 5173TIP3    H237155   6.106   4.024   7.882  0.5429 -1.0757 -1.8656
 5174TIP3   OH237156   3.186   1.699   8.490  0.6101  0.0090  0.2588
 5174TIP3    H137157   3.121   1.726   8.425  0.9874 -1.4248 -0.7530
 5174TIP3    H237158   3.135   1.680   8.569 -0.0377  0.2806 -0.0922
 5175TIP3   OH237159   4.526   2.729   1.497  0.0628  0.1196 -0.6589
 5175TIP3    H137160   4.597   2.676   1.534 -0.2340 -0.2536 -0.6138
 5175TIP3    H237161   4.456   2.723   1.562 -0.3471 -0.2775 -1.1250
 5176TIP3   OH237162   1.131   6.968   1.067 -0.0352 -0.6297 -0.0416
 5176TIP3    H137163   1.084   6.902   1.119  1.1166 -0.9120  0.6722
 5176TIP3    H237164   1.171   7.026   1.133 -0.2613  0.2283 -0.6529
 5177TIP3   OH237165   0.784   4.507   1.655  0.8275 -0.3284  0.5994
 5177TIP3    H137166   0.711   4.502   1.717  0.2425 -0.5748 -0.1120
 5177TIP3    H237167   0.828   4.422   1.663  1.6017  0.1629  1.7111
 5178TIP3   OH237168   5.803   1.765   1.433  0.0502 -0.5798 -0.2649
 5178TIP3    H137169   5.722   1.787   1.480 -0.3275 -0.5205 -0.9403
 5178TIP3    H237170   5.867   1.749   1.502 -0.3507  0.0838  0.2597
 5179TIP3   OH237171   3.619   5.574   0.624 -0.7006 -0.8953  0.3247
 5179TIP3    H137172   3.590   5.506   0.685  0.3816 -1.1888  0.5157
 5179TIP3    H237173   3.687   5.532   0.572  1.4120  0.6202  1.7974
 5180TIP3   OH237174   4.435   0.918   8.085 -0.1310  0.0458 -0.1140
 5180TIP3    H137175   4.377   0.953   8.153 -0.7366  0.8900 -1.0379
 5180TIP3    H237176   4.458   0.831   8.116 -1.8692 -0.2903  0.3206
 5181TIP3   OH237177   1.909   0.613   0.764 -0.4606 -0.4048 -0.6319
 5181TIP3    H137178   1.818   0.593   0.785 -0.7442  2.2369  0.9914
 5181TIP3    H237179   1.942   0.657   0.843  2.0908 -0.9678 -1.3569
 5182TIP3   OH237180   2.892   4.371   7.600 -0.3708  0.4682 -0.3300
 5182TIP3    H137181   2.985   4.382   7.581 -0.5616  1.0670 -0.9177
 5182TIP3    H237182   2.849   4.377   7.515 -0.8275 -1.2186 -0.2419
 5183TIP3   OH237183   7.061   6.264   8.417 -0.0391 -0.7654  0.0993
 5183TIP3    H137184   7.130   6.222   8.468  1.2064  0.7853 -0.3009
 5183TIP3    H237185   7.100   6.279   8.331 -0.4386  1.2723  0.2499
 5184TIP3   OH237186   2.043   2.956   1.297 -0.0077  0.3819 -0.2338
 5184TIP3    H137187   2.073   2.955   1.388 -0.5514  0.7953 -0.0486
 5184TIP3    H237188   2.067   2.869   1.264  1.4065  0.6966 -0.0966
 5185TIP3   OH237189   5.535   2.556   8.478 -0.5512  0.0391 -0.1163
 5185TIP3    H137190   5.606   2.583   8.419 -0.2764  1.6262  0.9275
 5185TIP3    H237191   5.465   2.619   8.461 -1.2588 -0.7635 -0.2242
 5186TIP3   OH237192   6.046   4.660   7.589  0.1385  0.3433 -0.1893
 5186TIP3    H137193   6.098   4.680   7.511  1.4556  0.2747  0.6585
 5186TIP3    H237194   6.095   4.698   7.662 -0.2138 -1.0506  0.8037
 5187TIP3   OH237195   2.704   1.534   1.888 -0.2670 -0.8378 -0.5026
 5187TIP3    H137196   2.711   1.439   1.878 -0.7681 -1.1684  1.9564
 5187TIP3    H237197   2.675   1.565   1.803 -1.5511 -3.0653 -0.9220
 5188TIP3   OH237198   1.218   4.192   1.512 -0.2731  0.1053  0.5567
 5188TIP3    H137199   1.271   4.174   1.590  0.0180  1.6768  0.7550
 5188TIP3    H237200   1.250   4.131   1.446  0.6340 -0.1047  1.1848
 5189TIP3   OH237201   4.999   7.159   0.829  0.2976 -0.0490 -0.9119
 5189TIP3    H137202   5.069   7.102   0.797  1.6009 -0.7192  2.8956
 5189TIP3    H237203   5.040   7.246   0.834  0.1998 -0.0165 -0.6919
 5190TIP3   OH237204   6.993   1.820   2.192 -0.1461  0.0941 -0.0082
 5190TIP3    H137205   7.020   1.778   2.273 -0.6474  0.3791  0.3104
 5190TIP3    H237206   6.968   1.747   2.134 -0.5913 -0.0731  0.3894
 5191TIP3   OH237207   2.751   3.205   1.995  0.5653 -0.2848  0.2462
 5191TIP3    H137208   2.799   3.272   2.044  0.9422 -0.5053  0.1843
 5191TIP3    H237209   2.727   3.140   2.062  0.9798 -0.5290  0.1607
 5192TIP3   OH237210   4.743   2.406   1.487  0.5515 -0.1471  0.0451
 5192TIP3    H137211   4.666   2.360   1.452 -0.7909  0.5058  2.0417
 5192TIP3    H237212   4.706   2.469   1.549  2.7555 -0.2302  1.4772
 5193TIP3   OH237213   6.751   2.947   1.111  1.0968 -0.1876  0.6489
 5193TIP3    H137214   6.821   2.896   1.070  1.4278 -0.4036  1.4747
 5193TIP3    H237215   6.778   2.955   1.203  1.3538  2.0007  0.4072
 5194TIP3   OH237216   5.937   7.310   0.440  0.0623 -0.2726 -0.0108
 5194TIP3    H137217   5.877   7.345   0.374  1.3071  0.6058 -0.6965
 5194TIP3    H237218   5.883   7.253   0.494 -0.7980 -1.8428 -2.4224
 5195TIP3   OH237219   6.398   0.207   1.437  0.2210 -0.2086 -0.2293
 5195TIP3    H137220   6.383   0.261   1.359 -0.6080 -0.4346 -0.2310
 5195TIP3    H237221   6.337   0.134   1.428 -0.1286 -0.0522  0.8042
 5196TIP3   OH237222   3.600   3.084   1.993 -0.4707  0.1189  0.6698
 5196TIP3    H137223   3.514   3.061   2.029  0.1725  0.2356  2.3287
 5196TIP3    H237224   3.649   3.118   2.068  0.4409  1.7022 -0.6216
 5197TIP3   OH237225   2.726   0.466   1.232 -0.0704  0.7715 -0.6115
 5197TIP3    H137226   2.689   0.525   1.298 -2.2302 -0.4772 -0.6663
 5197TIP3    H237227   2.668   0.476   1.156  1.1942  0.6611 -1.6094
 5198TIP3   OH237228   5.070   1.430   0.144  0.2293 -0.2787 -0.2960
 5198TIP3    H137229   5.101   1.471   0.064 -0.8868 -1.6852 -1.4648
 5198TIP3    H237230   5.027   1.349   0.116  1.4660 -1.7755  1.8529
 5199TIP3   OH237231   3.849   6.151   1.755  0.7884  0.2370 -0.0011
 5199TIP3    H137232   3.892   6.172   1.837  2.7864  0.5994 -1.0969
 5199TIP3    H237233   3.809   6.233   1.727 -0.8352 -0.1547  1.1351
 5200TIP3   OH237234   5.395   0.823   1.081 -0.1157 -0.0695 -0.2620
 5200TIP3    H137235   5.405   0.846   0.989 -0.8029  0.7239 -0.1424
 5200TIP3    H237236   5.428   0.899   1.129  2.4325 -1.3948  0.1772
 5201TIP3   OH237237   3.782   3.147   1.208  0.1607  0.5771  0.8728
 5201TIP3    H137238   3.739   3.225   1.172  0.3206  0.3348  0.1522
 5201TIP3    H237239   3.791   3.088   1.133 -0.8734 -0.5462  1.6089
 5202TIP3   OH237240   4.262   1.562   0.162  0.2033 -0.0389 -0.4666
 5202TIP3    H137241   4.289   1.642   0.117 -2.2746  0.6534 -0.7676
 5202TIP3    H237242   4.265   1.494   0.094 -0.2782  0.3322 -0.8611
 5203TIP3   OH237243   6.366   3.062   0.377 -0.1293  0.0663  0.0402
 5203TIP3    H137244   6.342   3.149   0.409 -0.7993  0.2785 -1.0075
 5203TIP3    H237245   6.460   3.067   0.360 -0.0222  0.3486  0.6947
 5204TIP3   OH237246   4.949   5.461   0.686 -0.0028  0.2684 -0.6446
 5204TIP3    H137247   4.882   5.527   0.704  1.3948  1.1909  1.3165
 5204TIP3    H237248   4.970   5.424   0.771  0.3203 -1.6726 -1.5445
 5205TIP3   OH237249   1.244   2.960   1.701 -0.0990 -0.2247 -0.2144
 5205TIP3    H137250   1.273   2.921   1.619  0.6542 -0.8834  0.3636
 5205TIP3    H237251   1.150   2.976   1.688 -0.5962 -2.9413 -0.1938
 5206TIP3   OH237252   3.336   2.634   0.347  0.2544 -0.0276 -0.1093
 5206TIP3    H137253   3.332   2.618   0.252  0.0577 -0.3801 -0.0417
 5206TIP3    H237254   3.362   2.550   0.384  0.5872  0.1796  0.1306
 5207TIP3   OH237255   4.608   1.892   6.882  0.0360  0.9117  0.1551
 5207TIP3    H137256   4.592   1.875   6.975 -2.1167 -0.1471 -0.3818
 5207TIP3    H237257   4.629   1.806   6.845 -1.2224  0.9712 -0.7319
 5208TIP3   OH237258   5.060   4.379   7.531 -0.3866  0.0519  0.4715
 5208TIP3    H137259   5.147   4.411   7.554  0.1225 -0.7230 -0.3551
 5208TIP3    H237260   5.000   4.436   7.580  0.6011 -0.0618  1.8376
 5209TIP3   OH237261   4.653   2.360   7.823 -0.1927 -0.6955  0.1797
 5209TIP3    H137262   4.744   2.329   7.816  0.5033  0.5651  3.0559
 5209TIP3    H237263   4.655   2.449   7.787  0.3203  0.3271  2.6346
 5210TIP3   OH237264   6.853   2.967   2.185 -0.2787  0.1058  0.3468
 5210TIP3    H137265   6.919   2.899   2.176 -0.8722 -0.3758 -0.4238
 5210TIP3    H237266   6.805   2.943   2.264  1.2914  1.1859  1.6718
 5211TIP3   OH237267   6.529   3.819   0.545  0.0901 -0.2841 -0.1203
 5211TIP3    H137268   6.543   3.857   0.458 -0.4948 -0.3163 -0.2287
 5211TIP3    H237269   6.435   3.826   0.560  0.0576 -1.1581  0.1064
 5212TIP3   OH237270   1.935   3.655   2.038 -0.4241 -0.6692  0.2198
 5212TIP3    H137271   1.868   3.703   1.991  0.2449 -0.1551 -0.2101
 5212TIP3    H237272   1.983   3.721   2.087 -0.1253 -1.0158  0.4019
 5213TIP3   OH237273   2.773   2.223   0.843 -0.5757 -0.0493  0.1442
 5213TIP3    H137274   2.716   2.146   0.840  1.0132 -1.3017  0.9319
 5213TIP3    H237275   2.816   2.224   0.757 -0.5569 -0.0688  0.1533
 5214TIP3   OH237276   6.250   0.771   0.716 -0.6526  0.4911 -0.4307
 5214TIP3    H137277   6.305   0.785   0.638 -1.2841  0.3359 -0.9070
 5214TIP3    H237278   6.169   0.818   0.697 -1.3671 -0.7334 -0.4839
 5215TIP3   OH237279   5.116   0.424   1.007  0.1112  0.0348  0.2347
 5215TIP3    H137280   5.182   0.364   1.040 -1.9682 -1.0809  2.5116
 5215TIP3    H237281   5.141   0.509   1.042  1.5722  0.0392 -0.7825
 5216TIP3   OH237282   6.142   4.112   1.367  0.0148 -0.2190  0.6005
 5216TIP3    H137283   6.056   4.110   1.409 -0.6212  1.0364 -0.5688
 5216TIP3    H237284   6.196   4.166   1.425 -0.4927  0.4310  0.4784
 5217TIP3   OH237285   4.910   0.996   6.916 -0.3933  0.2110 -0.3270
 5217TIP3    H137286   4.858   1.074   6.894  1.6734  1.1845 -1.9300
 5217TIP3    H237287   4.847   0.924   6.911 -2.6182  1.8451  2.3019
 5218TIP3   OH237288   6.486   1.131   1.615  0.0102 -0.2206  0.0235
 5218TIP3    H137289   6.412   1.074   1.594 -0.1401 -0.1508  0.3615
 5218TIP3    H237290   6.480   1.203   1.552  1.1633 -1.4230 -1.4941
 5219TIP3   OH237291   5.541   2.696   7.878  0.6048 -0.0809  0.0723
 5219TIP3    H137292   5.510   2.774   7.832  1.7296  1.2927  1.5737
 5219TIP3    H237293   5.504   2.703   7.966  0.0424 -1.6855 -0.0096
 5220TIP3   OH237294   5.985   2.024   2.565  0.3755  0.2330 -0.0470
 5220TIP3    H137295   6.034   1.954   2.607  1.3945  0.3497 -1.0225
 5220TIP3    H237296   5.904   1.983   2.534  0.6506 -0.3498  0.0182
 5221TIP3   OH237297   0.393   2.592   1.655  0.6451  0.2052  0.6533
 5221TIP3    H137298   0.357   2.599   1.743  1.7031  1.4067  1.0075
 5221TIP3    H237299   0.360   2.669   1.609  0.0062 -0.4743 -0.0426
 5222TIP3   OH237300   5.951   1.711   1.640  0.0187 -0.7709  0.3080
 5222TIP3    H137301   5.960   1.627   1.686 -1.5877 -0.9926  0.2316
 5222TIP3    H237302   5.964   1.777   1.709  2.6143 -1.0336  0.1307
 5223TIP3   OH237303   0.137   1.565   1.586  0.3853 -0.2547 -0.1253
 5223TIP3    H137304   0.172   1.644   1.545 -0.3928  0.6726  0.9609
 5223TIP3    H237305   0.210   1.530   1.637 -0.2303  1.7546  2.2567
 5224TIP3   OH237306   4.785   1.675   1.041  0.4122  0.6060  0.7259
 5224TIP3    H137307   4.837   1.684   1.121  1.2680  3.4473 -0.0820
 5224TIP3    H237308   4.849   1.674   0.970 -0.3640 -1.5631  0.0068
 5225TIP3   OH237309   6.026   2.536   7.200 -0.1400 -0.2707  0.5402
 5225TIP3    H137310   6.115   2.515   7.227  0.1577  2.1845  1.5958
 5225TIP3    H237311   6.029   2.529   7.104  1.3817  0.4435  0.5084
 5226TIP3   OH237312   6.756   2.216   2.318  0.2311  0.5063 -0.5205
 5226TIP3    H137313   6.805   2.160   2.257 -0.7516 -2.1812  1.0742
 5226TIP3    H237314   6.823   2.257   2.373  0.8834 -0.2945 -0.7065
 5227TIP3   OH237315   5.855   4.180   1.174 -0.0573  0.3468 -0.3847
 5227TIP3    H137316   5.830   4.271   1.190  2.8183  1.6353 -2.6480
 5227TIP3    H237317   5.940   4.186   1.129 -0.5989 -3.4147 -2.1069
 5228TIP3   OH237318   4.903   4.371   2.109  0.3670  0.5841 -0.7058
 5228TIP3    H137319   4.952   4.445   2.071  1.0722  1.2307  1.3411
 5228TIP3    H237320   4.909   4.386   2.204 -0.3700 -1.5612 -0.3043
 5229TIP3   OH237321   0.868   6.938   0.925  0.1505 -0.2634  0.2466
 5229TIP3    H137322   0.955   6.968   0.954  0.6954 -2.2608  0.7384
 5229TIP3    H237323   0.845   6.868   0.986 -0.1937 -2.2460 -2.1066
 5230TIP3   OH237324   5.812   2.695   0.840 -0.3335  0.2180 -0.5492
 5230TIP3    H137325   5.767   2.628   0.892  0.7620 -0.2537 -0.1721
 5230TIP3    H237326   5.874   2.735   0.901 -1.2174  1.8175 -0.6946
 5231TIP3   OH237327   5.557   2.210   7.617 -0.1634  0.4412 -0.4402
 5231TIP3    H137328   5.597   2.238   7.535  1.2051  0.8205  0.3513
 5231TIP3    H237329   5.570   2.284   7.676  0.5945 -0.5935  0.6999
 5232TIP3   OH237330   4.906   4.394   1.194 -0.3810  0.2382 -0.4028
 5232TIP3    H137331   4.851   4.465   1.160 -0.1536  0.8435  0.4785
 5232TIP3    H237332   4.876   4.316   1.147 -0.9947  0.8237 -0.9970
 5233TIP3   OH237333   0.140   4.451   2.278 -0.6017  0.7347 -0.4591
 5233TIP3    H137334   0.114   4.359   2.280  0.8970  0.2864 -0.5545
 5233TIP3    H237335   0.136   4.479   2.369  0.1167  0.2143 -0.2612
 5234TIP3   OH237336   5.837   4.474   1.425 -0.3047  0.5584  0.3699
 5234TIP3    H137337   5.911   4.451   1.369 -2.1615 -2.9314 -0.7745
 5234TIP3    H237338   5.809   4.560   1.393  0.3005 -0.1959 -2.2963
 5235TIP3   OH237339   5.443   7.199   0.826 -0.4952  0.1270 -0.6058
 5235TIP3    H137340   5.349   7.201   0.842 -0.6467 -0.2562 -1.4560
 5235TIP3    H237341   5.482   7.200   0.913 -1.2536  1.9582 -0.2638
 5236TIP3   OH237342   0.528   6.227   2.336 -0.0803  0.2255  0.1723
 5236TIP3    H137343   0.531   6.317   2.367 -2.7022  0.4094 -0.0702
 5236TIP3    H237344   0.597   6.183   2.387  0.1131  1.9732  1.4792
 5237TIP3   OH237345   4.955   4.338   6.469 -0.4751  0.1047 -0.4416
 5237TIP3    H137346   4.898   4.391   6.412 -0.5098 -0.8997 -1.3661
 5237TIP3    H237347   4.895   4.281   6.517 -0.2652 -0.9531 -1.4143
 5238TIP3   OH237348   0.682   4.063   2.126 -0.4329 -0.1790 -0.1903
 5238TIP3    H137349   0.606   4.043   2.181 -1.2012  0.8651 -0.8494
 5238TIP3    H237350   0.732   3.981   2.124 -0.4120 -0.2435  1.9975
 5239TIP3   OH237351   5.261   1.312   8.299 -0.0743  0.5435 -0.3544
 5239TIP3    H137352   5.309   1.393   8.285  0.1781 -0.0246 -3.0332
 5239TIP3    H237353   5.310   1.246   8.251 -2.1040 -0.5493 -0.9834
 5240TIP3   OH237354   2.398   3.478   8.091 -0.8904 -0.0293 -0.1320
 5240TIP3    H137355   2.428   3.464   8.002 -0.7648 -0.0441 -0.0871
 5240TIP3    H237356   2.468   3.442   8.146 -0.9712 -0.0307 -0.0277
 5241TIP3   OH237357   4.613   1.272   7.347  0.5461  0.0371 -0.2567
 5241TIP3    H137358   4.634   1.358   7.386  1.2052  0.3650 -1.3135
 5241TIP3    H237359   4.528   1.249   7.385 -0.6354  2.1207 -1.5242
 5242TIP3   OH237360   0.990   3.325   1.565  0.6267  0.6769 -0.0527
 5242TIP3    H137361   0.984   3.229   1.563  1.1261  0.6295  0.7347
 5242TIP3    H237362   1.012   3.348   1.474  0.3037  0.0635 -0.2963
 5243TIP3   OH237363   6.278   2.950   2.497 -0.4551  0.0607 -0.4782
 5243TIP3    H137364   6.271   3.012   2.570 -2.8887 -0.6918 -0.0421
 5243TIP3    H237365   6.362   2.971   2.457 -0.5798  2.7201  0.5232
 5244TIP3   OH237366   1.091   1.820   2.197  0.6960  0.7101  0.7382
 5244TIP3    H137367   1.077   1.903   2.242  0.2225  2.1809 -2.0382
 5244TIP3    H237368   1.004   1.793   2.169  1.0508  0.0393  0.2672
 5245TIP3   OH237369   5.324   7.205   0.526  0.6072  0.5549 -0.4086
 5245TIP3    H137370   5.298   7.269   0.460 -0.3585  1.8322  1.1643
 5245TIP3    H237371   5.393   7.248   0.576  3.6465 -1.6243 -2.5295
 5246TIP3   OH237372   5.090   2.163   7.766 -0.1602 -0.0972 -0.1265
 5246TIP3    H137373   5.150   2.091   7.787 -1.0290 -1.4609 -2.1482
 5246TIP3    H237374   5.089   2.218   7.845  3.8946  0.0929 -0.0924
 5247TIP3   OH237375   6.789   3.148   1.521 -0.0525  0.0646 -0.0791
 5247TIP3    H137376   6.717   3.156   1.458  0.6831  1.2698 -0.7914
 5247TIP3    H237377   6.855   3.095   1.476 -0.1799 -0.3812  0.2659
 5248TIP3   OH237378   4.103   6.925   1.388 -0.0318  0.0685 -0.1380
 5248TIP3    H137379   4.147   6.841   1.401 -0.4359 -0.3087 -1.1415
 5248TIP3    H237380   4.172   6.990   1.403  0.1019 -0.4019  1.4039
 5249TIP3   OH237381   0.840   6.125   0.506 -0.6018  0.4612  0.3229
 5249TIP3    H137382   0.885   6.178   0.572 -1.3042  0.1500  1.0713
 5249TIP3    H237383   0.907   6.065   0.473 -0.4507  0.0220  1.3978
 5250TIP3   OH237384   4.471   0.474   0.048 -0.3240 -0.7810 -0.2883
 5250TIP3    H137385   4.493   0.383   0.030 -0.7609 -1.0793  0.7072
 5250TIP3    H237386   4.467   0.480   0.143 -1.8248 -0.0759 -0.3864
 5251TIP3   OH237387   4.864   4.592   6.944  0.0180  0.2491 -0.1809
 5251TIP3    H137388   4.813   4.513   6.965  1.6043 -0.6692  0.3262
 5251TIP3    H237389   4.806   4.644   6.890 -0.5989 -1.8679 -1.6257
 5252TIP3   OH237390   4.945   0.076   0.931 -0.1416  0.3394 -0.1631
 5252TIP3    H137391   4.867   0.022   0.918  0.2218 -0.2389  0.0179
 5252TIP3    H237392   4.940   0.105   1.022 -1.4848  2.4616 -0.8911
 5253TIP3   OH237393   3.986   7.202   1.833 -0.6410 -0.0125 -0.5844
 5253TIP3    H137394   3.927   7.258   1.781  0.6727  1.2300 -0.7759
 5253TIP3    H237395   4.049   7.169   1.770  1.0440  1.6079  0.2034
 5254TIP3   OH237396   5.769   4.724   1.293 -0.0549 -0.0825  0.0662
 5254TIP3    H137397   5.816   4.798   1.254  1.7286 -0.9651  0.5169
 5254TIP3    H237398   5.681   4.730   1.256 -0.1096  2.5759  0.4711
 5255TIP3   OH237399   4.240   2.900   0.531 -0.0595 -0.2635  0.4303
 5255TIP3    H137400   4.333   2.922   0.540 -0.1286  0.2558 -0.0605
 5255TIP3    H237401   4.225   2.899   0.436 -0.2707 -1.5752  0.4759
 5256TIP3   OH237402   5.297   2.042   0.924 -0.0676 -0.0308 -0.1906
 5256TIP3    H137403   5.253   2.127   0.928 -0.3800 -0.2429  1.0600
 5256TIP3    H237404   5.387   2.061   0.949  0.0420  0.0510 -0.6438
 5257TIP3   OH237405   0.564   5.145   2.096 -0.3659  0.3211 -0.1278
 5257TIP3    H137406   0.619   5.223   2.091  2.3167 -1.6275 -2.6336
 5257TIP3    H237407   0.485   5.174   2.142  0.6664  4.4087 -0.7777
 5258TIP3   OH237408   7.164   3.363   1.777  0.0564 -0.1985  0.4101
 5258TIP3    H137409   7.201   3.274   1.780  0.3633 -0.0228  1.8207
 5258TIP3    H237410   7.148   3.386   1.868  0.0428  1.2313  0.0560
 5259TIP3   OH237411   6.205   0.710   7.534 -0.2740 -0.1273 -0.7685
 5259TIP3    H137412   6.299   0.705   7.516 -0.1230 -0.0628 -0.0288
 5259TIP3    H237413   6.195   0.790   7.586 -0.6805 -0.3528 -0.4987
 5260TIP3   OH237414   5.984   3.034   0.867 -0.7720  0.0364  0.0305
 5260TIP3    H137415   5.989   2.951   0.915  0.6640  0.6705  1.0123
 5260TIP3    H237416   5.917   3.084   0.912  0.4218  0.5458  1.2642
 5261TIP3   OH237417   5.941   1.025   1.040 -0.9149  0.1322 -0.5702
 5261TIP3    H137418   6.018   1.081   1.033 -1.1264  0.3513 -1.2095
 5261TIP3    H237419   5.899   1.052   1.122  0.3836 -0.8981  0.4649
 5262TIP3   OH237420   4.965   1.633   8.279  0.2487  0.4344  0.2144
 5262TIP3    H137421   4.877   1.623   8.242 -0.2563 -2.1777  1.9500
 5262TIP3    H237422   4.977   1.727   8.290 -1.7284  0.9069 -1.4214
 5263TIP3   OH237423   4.681   0.606   8.291 -0.0359 -0.5644 -0.2806
 5263TIP3    H137424   4.743   0.659   8.243  0.3613 -0.0974  0.7333
 5263TIP3    H237425   4.730   0.528   8.317 -0.0875 -0.5496 -0.1364
 5264TIP3   OH237426   4.460   0.695   1.474 -0.1104  0.2709 -0.3552
 5264TIP3    H137427   4.401   0.746   1.418 -0.8183 -0.1538  0.0103
 5264TIP3    H237428   4.548   0.727   1.451 -0.5528  1.6894 -0.0949
 5265TIP3   OH237429   4.387   4.575   1.389  0.3140  0.1800  0.3565
 5265TIP3    H137430   4.477   4.545   1.374  0.6513  0.7678  1.1788
 5265TIP3    H237431   4.387   4.607   1.479 -0.0836  2.5057 -0.4451
 5266TIP3   OH237432   6.829   1.407   1.799 -0.1351 -0.8819  0.1115
 5266TIP3    H137433   6.893   1.339   1.817  0.1785 -0.4169  0.7795
 5266TIP3    H237434   6.823   1.456   1.881  0.6391  0.7202 -0.7712
 5267TIP3   OH237435   4.171   6.420   1.364  0.2724 -0.1316 -0.2650
 5267TIP3    H137436   4.145   6.379   1.281 -0.5158  0.9394 -0.5523
 5267TIP3    H237437   4.168   6.349   1.428  0.7328 -0.9332 -1.1206
 5268TIP3   OH237438   5.349   3.648   8.280 -0.1749 -0.1951 -0.7398
 5268TIP3    H137439   5.384   3.715   8.223 -1.0689 -0.3806 -1.5319
 5268TIP3    H237440   5.264   3.682   8.308  0.3109 -0.0405  0.6052
 5269TIP3   OH237441   5.865   5.765   0.632 -0.6667 -0.0518  0.1665
 5269TIP3    H137442   5.781   5.727   0.658 -0.6495 -0.9075 -0.9569
 5269TIP3    H237443   5.851   5.860   0.637 -1.8438 -0.1764 -0.4303
 5270TIP3   OH237444   5.350   0.718   1.422 -0.0427 -0.0637  0.0833
 5270TIP3    H137445   5.369   0.680   1.508  0.2960  0.3480  0.1891
 5270TIP3    H237446   5.427   0.771   1.401  0.2194 -0.7978 -0.8318
 5271TIP3   OH237447   6.774   2.120   2.585 -0.2851  0.3492  0.0834
 5271TIP3    H137448   6.843   2.184   2.567  0.9170 -0.7770  0.5869
 5271TIP3    H237449   6.730   2.106   2.501 -0.8497  2.1552  0.0660
 5272TIP3   OH237450   3.451   1.728   0.801 -0.1973 -0.0783  0.5312
 5272TIP3    H137451   3.423   1.639   0.777  1.3181 -0.4192 -0.0239
 5272TIP3    H237452   3.502   1.716   0.881  1.5838  0.0313 -0.5536
 5273TIP3   OH237453   6.349   2.034   2.396 -0.1864  0.1393 -0.1365
 5273TIP3    H137454   6.406   2.077   2.459 -1.3546  0.5679  0.6576
 5273TIP3    H237455   6.310   1.961   2.444  0.6187 -0.8777 -1.0277
 5274TIP3   OH237456   6.815   4.274   2.031 -0.2272 -0.0141  0.5337
 5274TIP3    H137457   6.797   4.223   2.110 -1.3238 -0.6768 -0.1266
 5274TIP3    H237458   6.910   4.268   2.019 -0.1130 -0.2944  1.5346
 5275TIP3   OH237459   0.461   3.293   1.162  0.2912 -0.6472 -0.5553
 5275TIP3    H137460   0.458   3.353   1.087  2.0981 -0.7241 -0.7095
 5275TIP3    H237461   0.532   3.326   1.217 -1.9423  0.2216  1.8467
 5276TIP3   OH237462   6.617   5.193   0.842  0.2463  0.0528  0.2207
 5276TIP3    H137463   6.634   5.107   0.803  0.1033  1.2129 -2.5806
 5276TIP3    H237464   6.532   5.220   0.804  0.8681  1.9242  0.0830
 5277TIP3   OH237465   3.512   0.677   0.086  0.2228 -0.7848 -0.2428
 5277TIP3    H137466   3.490   0.715   0.001  1.0964  0.4905  0.0930
 5277TIP3    H237467   3.529   0.752   0.143 -0.7651 -1.6126  1.1886
 5278TIP3   OH237468   6.011   1.150   0.354  0.5131 -0.8748 -0.1772
 5278TIP3    H137469   6.043   1.080   0.296  1.7329  0.2894 -0.9346
 5278TIP3    H237470   6.014   1.229   0.300 -0.3312 -0.1358  0.8480
 5279TIP3   OH237471   5.849   1.760   0.924 -0.1885  0.0412  0.6683
 5279TIP3    H137472   5.815   1.683   0.878  0.6775 -0.8571  1.5121
 5279TIP3    H237473   5.943   1.746   0.928  0.2402  2.1790 -1.0208
 5280TIP3   OH237474   4.217   5.219   0.615  0.0897  0.1199  0.2860
 5280TIP3    H137475   4.179   5.283   0.675 -0.8140 -0.1886  0.0494
 5280TIP3    H237476   4.230   5.267   0.534 -1.5788 -0.2571 -0.2216
 5281TIP3   OH237477   5.648   4.352   0.658 -0.5056 -0.3757 -0.2978
 5281TIP3    H137478   5.587   4.423   0.683  0.9568  0.2085  1.7366
 5281TIP3    H237479   5.628   4.282   0.720  1.8218  0.3540  1.3549
 5282TIP3   OH237480   3.692   3.662   0.347  0.5719  0.3500 -0.2105
 5282TIP3    H137481   3.633   3.636   0.418  0.4753 -0.4594 -0.5787
 5282TIP3    H237482   3.716   3.579   0.305 -0.1160  0.8873 -1.7012
 5283TIP3   OH237483   1.394   5.073   1.154  0.5216  0.2917  0.0771
 5283TIP3    H137484   1.390   5.077   1.058 -1.2314  1.0913  0.1581
 5283TIP3    H237485   1.323   5.013   1.178  0.5558  0.5781  0.9044
 5284TIP3   OH237486   1.289   6.044   1.898  0.2066 -1.1051 -0.3137
 5284TIP3    H137487   1.231   6.117   1.919  0.1052 -0.7196 -1.8502
 5284TIP3    H237488   1.355   6.044   1.968 -0.0818  0.1551 -0.0382
 5285TIP3   OH237489   6.583   3.349   2.157 -0.1055 -0.3764 -0.8199
 5285TIP3    H137490   6.605   3.363   2.065 -0.8064  1.0747 -0.7709
 5285TIP3    H237491   6.487   3.356   2.160  0.0879  2.0725  0.4297
 5286TIP3   OH237492   6.060   2.184   1.952 -0.5184 -0.4006 -0.0058
 5286TIP3    H137493   6.147   2.177   1.992 -1.1709  1.2416  1.7503
 5286TIP3    H237494   6.077   2.215   1.863  0.6429  0.7941  0.6183
 5287TIP3   OH237495   5.620   6.883   1.465  0.4205  0.0343  0.6742
 5287TIP3    H137496   5.714   6.867   1.475  0.7941 -0.7709 -3.2300
 5287TIP3    H237497   5.614   6.968   1.422 -0.6137 -0.1970  0.3433
 5288TIP3   OH237498   4.894   4.701   1.469 -0.5628  0.3793 -0.2001
 5288TIP3    H137499   4.843   4.739   1.540 -0.4969  0.7612 -0.3552
 5288TIP3    H237500   4.859   4.742   1.390  1.0418  1.8309 -0.1755
 5289TIP3   OH237501   3.837   5.260   1.252 -1.0886  0.1154 -0.5249
 5289TIP3    H137502   3.931   5.265   1.264 -1.2366 -0.6541  1.0377
 5289TIP3    H237503   3.824   5.183   1.196 -0.7837  0.3411 -0.9065
 5290TIP3   OH237504   7.312   0.695   1.537 -0.0084 -0.3197 -0.0456
 5290TIP3    H137505   7.325   0.699   1.631 -0.0866  0.2809 -0.0580
 5290TIP3    H237506   7.217   0.684   1.526 -0.2040  1.3100 -0.0873
 5291TIP3   OH237507   5.731   0.692   8.358  0.1166 -0.1892  0.1465
 5291TIP3    H137508   5.698   0.749   8.427 -1.2078  1.0197 -1.4512
 5291TIP3    H237509   5.783   0.750   8.302 -1.1749 -0.5330 -1.4418
 5292TIP3   OH237510   6.956   0.579   1.901 -0.2324 -0.3256  0.1879
 5292TIP3    H137511   6.931   0.536   1.819 -1.0721 -0.7547  0.6682
 5292TIP3    H237512   6.892   0.548   1.965  0.4832 -0.0787  1.0318
 5293TIP3   OH237513   6.678   4.829   7.354  0.1998  0.0070  0.2629
 5293TIP3    H137514   6.716   4.914   7.331 -1.2598  0.0772 -2.1063
 5293TIP3    H237515   6.595   4.852   7.397 -0.7932 -0.1926 -1.4962
 5294TIP3   OH237516   3.622   6.629   8.350  0.1278  0.7020 -0.0772
 5294TIP3    H137517   3.548   6.689   8.344  0.5832  1.3218  0.3829
 5294TIP3    H237518   3.686   6.676   8.403  0.0118 -0.6764  1.3321
 5295TIP3   OH237519   4.095   1.377   7.308  0.1657 -0.0615  0.2752
 5295TIP3    H137520   4.125   1.445   7.367  0.4663  0.1489 -0.1137
 5295TIP3    H237521   4.051   1.424   7.237  1.9060 -0.1273 -0.8947
 5296TIP3   OH237522   4.158   2.029   7.739  0.8834  0.0644  0.3813
 5296TIP3    H137523   4.096   2.098   7.713  2.3137  0.9203 -0.8465
 5296TIP3    H237524   4.190   2.058   7.824  1.4167  0.9091 -0.0909
 5297TIP3   OH237525   6.880   1.941   1.371 -0.5293 -0.1420  0.6084
 5297TIP3    H137526   6.838   1.855   1.376  0.3927 -0.5963  0.7659
 5297TIP3    H237527   6.857   1.985   1.452 -0.2250 -0.6064  0.9450
 5298TIP3   OH237528   6.765   6.280   0.515 -0.1816  0.1661 -0.3081
 5298TIP3    H137529   6.809   6.354   0.557 -0.4247  0.3491 -0.3770
 5298TIP3    H237530   6.700   6.320   0.457 -0.1562 -0.0968 -0.5153
 5299TIP3   OH237531   0.338   3.681   2.132 -0.5363 -0.3037 -0.3536
 5299TIP3    H137532   0.360   3.751   2.070  1.1281  0.7562  1.3646
 5299TIP3    H237533   0.251   3.703   2.165 -0.1087  0.8629  0.0181
 5300TIP3   OH237534   7.092   3.449   2.024 -0.3186 -0.1197  0.0273
 5300TIP3    H137535   7.001   3.477   2.020  0.0716  1.0899 -0.6220
 5300TIP3    H237536   7.103   3.415   2.113 -1.0038  1.1268  0.6034
 5301TIP3   OH237537   3.637   1.078   0.234  0.0332 -0.5315 -0.3959
 5301TIP3    H137538   3.554   1.036   0.255 -0.1328  0.0167  0.0525
 5301TIP3    H237539   3.664   1.038   0.151 -0.2817 -1.2817 -0.1410
 5302TIP3   OH237540   6.215   4.414   2.274  0.0613  0.6398  0.1873
 5302TIP3    H137541   6.276   4.479   2.307 -0.2559  0.1901  1.6804
 5302TIP3    H237542   6.131   4.436   2.315  0.1990 -1.3604  1.6122
 5303TIP3   OH237543   5.377   0.349   2.205 -0.6130 -0.1746  0.5947
 5303TIP3    H137544   5.284   0.336   2.227 -0.2596 -0.5329  1.9614
 5303TIP3    H237545   5.418   0.370   2.289  0.6038 -0.3492  0.0540
 5304TIP3   OH237546   0.667   5.434   1.452 -0.5402 -0.7924  0.6828
 5304TIP3    H137547   0.647   5.526   1.464  1.2601 -0.5305  1.8909
 5304TIP3    H237548   0.620   5.389   1.523 -1.8038 -0.8785 -0.1904
 5305TIP3   OH237549   5.726   4.769   6.632 -0.4738  0.1207 -0.0128
 5305TIP3    H137550   5.751   4.726   6.550 -1.9255  0.0635 -0.4307
 5305TIP3    H237551   5.803   4.822   6.655  0.3939 -0.7856 -0.7811
 5306TIP3   OH237552   4.186   2.954   0.267  0.3053  1.2681  0.0753
 5306TIP3    H137553   4.198   2.874   0.217 -0.5639  0.0517  1.7761
 5306TIP3    H237554   4.238   3.020   0.221 -1.3673  0.4753 -3.0615
 5307TIP3   OH237555   6.597   5.692   1.144 -0.0832 -0.2895 -0.4781
 5307TIP3    H137556   6.555   5.770   1.108  0.4728 -0.3650 -1.2974
 5307TIP3    H237557   6.649   5.657   1.072  2.5450  0.6042  0.9190
 5308TIP3   OH237558   6.161   0.616   1.586  0.1626 -0.1469 -0.3845
 5308TIP3    H137559   6.167   0.670   1.665 -1.3806 -0.1199 -0.2664
 5308TIP3    H237560   6.223   0.545   1.601 -0.5790 -0.4861  1.1440
 5309TIP3   OH237561   7.291   5.350   1.221 -0.0588  0.5836  0.0089
 5309TIP3    H137562   7.264   5.379   1.135 -1.7329  0.6465  0.5273
 5309TIP3    H237563   7.234   5.397   1.282  1.3112  0.7864  1.1663
 5310TIP3   OH237564   4.548   1.177   0.435 -0.3518  0.5450 -0.2770
 5310TIP3    H137565   4.472   1.232   0.418  0.0864  1.5480  0.9606
 5310TIP3    H237566   4.603   1.228   0.494 -1.2039 -2.2903  3.1841
 5311TIP3   OH237567   6.001   0.751   1.018  1.3238 -0.1330  0.3205
 5311TIP3    H137568   5.951   0.833   1.016 -0.7773 -1.3935 -2.0342
 5311TIP3    H237569   6.090   0.778   1.037  0.4997  2.6283  0.5141
 5312TIP3   OH237570   4.583   1.559   0.862 -0.4038 -0.8796 -0.4351
 5312TIP3    H137571   4.652   1.593   0.918 -1.7028  0.5722  0.3071
 5312TIP3    H237572   4.611   1.583   0.773 -0.2007  0.1781 -0.0975
 5313TIP3   OH237573   5.811   2.606   1.447  0.1051  0.3340  0.2225
 5313TIP3    H137574   5.764   2.664   1.507 -1.1893  0.1823 -0.6244
 5313TIP3    H237575   5.837   2.532   1.501 -0.7759  0.3429  0.6742
 5314TIP3   OH237576   3.533   5.682   0.980 -0.7181 -0.2078  0.1020
 5314TIP3    H137577   3.502   5.688   0.890 -0.0495 -0.0432 -0.1176
 5314TIP3    H237578   3.462   5.720   1.032 -2.4612 -3.1319 -0.0458
 5315TIP3   OH237579   6.885   0.771   1.022 -0.1876  0.4463 -0.2907
 5315TIP3    H137580   6.953   0.704   1.030 -0.1657  0.1724 -2.5408
 5315TIP3    H237581   6.804   0.722   1.011 -0.2554  0.7799 -1.3109
 5316TIP3   OH237582   5.965   4.530   2.369 -0.6666  0.4281  0.0043
 5316TIP3    H137583   5.917   4.508   2.448  0.4036 -3.4885 -0.3367
 5316TIP3    H237584   5.900   4.523   2.299 -1.2353  2.3315  0.3061
 5317TIP3   OH237585   2.593   3.378   2.177  0.0186 -0.2174 -0.0722
 5317TIP3    H137586   2.523   3.425   2.223 -3.1149 -1.6192 -3.1735
 5317TIP3    H237587   2.663   3.370   2.242 -1.0480  4.7349  1.9435
 5318TIP3   OH237588   4.339   2.309   1.814  0.3604  0.1774  0.0289
 5318TIP3    H137589   4.341   2.381   1.752  1.1874 -0.0219 -0.1837
 5318TIP3    H237590   4.336   2.351   1.900  2.6868  0.5191 -0.0076
 5319TIP3   OH237591   5.895   1.328   8.117  0.0316  0.1860  0.3492
 5319TIP3    H137592   5.909   1.386   8.192  0.1822 -0.0135  0.4733
 5319TIP3    H237593   5.868   1.387   8.046  0.2077  0.4136  0.4716
 5320TIP3   OH237594   5.947   4.822   2.399 -0.3184  0.7107 -0.0008
 5320TIP3    H137595   5.993   4.750   2.355 -0.2801  1.0624 -0.5482
 5320TIP3    H237596   5.856   4.793   2.404  0.1985 -0.6093  2.3875
 5321TIP3   OH237597   5.306   2.656   1.533 -0.1136  0.6400  0.7221
 5321TIP3    H137598   5.318   2.592   1.603 -0.9537  0.4794  0.7187
 5321TIP3    H237599   5.276   2.735   1.577  0.1905  0.8031  0.6388
 5322TIP3   OH237600   0.032   2.404   1.870  0.3885  0.6600  0.0579
 5322TIP3    H137601   0.029   2.340   1.941  0.1487  0.2446 -0.3248
 5322TIP3    H237602   0.108   2.378   1.818 -0.0995  0.2852 -0.4737
 5323TIP3   OH237603   4.756   1.210   6.835 -1.1760 -0.1315  0.0814
 5323TIP3    H137604   4.732   1.302   6.842 -1.0428  0.0468 -1.5577
 5323TIP3    H237605   4.675   1.167   6.807 -0.4629 -0.0398 -2.1689
 5324TIP3   OH237606   6.099   2.237   2.740 -0.0013  0.2041  0.3676
 5324TIP3    H137607   6.102   2.317   2.688  1.4124 -0.4423 -0.5674
 5324TIP3    H237608   6.045   2.177   2.689  2.8906 -1.0643 -1.3317
 5325TIP3   OH237609   5.554   2.120   1.058  0.0040  0.0927  0.1151
 5325TIP3    H137610   5.619   2.072   1.109  1.9720  0.8013 -1.6471
 5325TIP3    H237611   5.538   2.199   1.110  2.3105  1.0168 -0.5037
 5326TIP3   OH237612   0.597   3.895   1.209  0.0432  0.1630  0.1031
 5326TIP3    H137613   0.581   3.982   1.172  0.2844  0.5966  1.0134
 5326TIP3    H237614   0.651   3.911   1.286  2.7964 -1.0916 -1.5188
 5327TIP3   OH237615   7.132   2.129   1.759  0.1106  0.3936 -0.2813
 5327TIP3    H137616   7.145   2.199   1.695 -0.1526  0.1549 -0.6001
 5327TIP3    H237617   7.075   2.167   1.826  0.0126  0.4996 -0.4253
 5328TIP3   OH237618   2.257   3.743   2.002 -0.0571  0.4565  0.3214
 5328TIP3    H137619   2.349   3.736   2.029 -0.5545 -3.7552  1.2246
 5328TIP3    H237620   2.256   3.710   1.912 -0.8976 -1.2194  0.9186
 5329TIP3   OH237621   5.128   0.294   2.341 -0.6058  0.2272 -0.1443
 5329TIP3    H137622   5.046   0.320   2.299 -1.0542  0.0585  0.6195
 5329TIP3    H237623   5.108   0.295   2.434 -0.8203 -3.4521 -0.0851
 5330TIP3   OH237624   7.105   5.857   1.778 -0.3521 -0.1285  0.2080
 5330TIP3    H137625   7.099   5.800   1.855 -0.0553 -1.5745 -0.8119
 5330TIP3    H237626   7.025   5.838   1.729  0.3368 -0.5635 -0.7501
 5331TIP3   OH237627   0.155   3.929   1.606  0.2598  0.4051  0.0946
 5331TIP3    H137628   0.078   3.985   1.596  1.0436  1.5843  0.5227
 5331TIP3    H237629   0.176   3.900   1.517 -2.0974 -1.9076  0.2358
 5332TIP3   OH237630   7.127   3.055   6.852  0.0884 -0.5812 -0.1924
 5332TIP3    H137631   7.153   3.047   6.760  0.9489  0.4442 -0.0397
 5332TIP3    H237632   7.131   3.149   6.871 -1.2127 -0.6640  0.5724
 5333TIP3   OH237633   1.566   2.647   1.685 -0.1215 -0.4169 -0.2123
 5333TIP3    H137634   1.583   2.727   1.735 -0.7675 -0.8335  0.6927
 5333TIP3    H237635   1.472   2.633   1.694 -0.0386 -1.1874 -0.5199
 5334TIP3   OH237636   6.634   4.126   8.449  0.2008 -0.1363 -0.2560
 5334TIP3    H137637   6.641   4.042   8.403  2.2643 -0.0041 -0.2435
 5334TIP3    H237638   6.567   4.174   8.400 -0.7736 -1.6460 -0.4585
 5335TIP3   OH237639   1.087   3.967   2.262  0.0106  0.2913  0.0820
 5335TIP3    H137640   1.033   3.901   2.219 -0.2885  1.8683 -2.0466
 5335TIP3    H237641   1.078   4.045   2.208  1.0502  1.8455  2.0536
 5336TIP3   OH237642   0.071   4.962   2.411  0.0001  0.3934  0.0209
 5336TIP3    H137643   0.135   5.022   2.371  0.6508 -0.9819 -1.0554
 5336TIP3    H237644   0.065   4.991   2.502  2.7382  0.0917  0.3481
 5337TIP3   OH237645   6.821   4.351   7.942 -0.8129 -0.5133  0.1689
 5337TIP3    H137646   6.785   4.398   8.017 -1.2817 -1.2598  0.4136
 5337TIP3    H237647   6.909   4.325   7.970 -0.7507 -0.2472  0.2250
 5338TIP3   OH237648   6.238   2.429   1.410 -0.0849 -0.1433 -0.4633
 5338TIP3    H137649   6.204   2.363   1.470  0.1959 -0.2445 -0.4178
 5338TIP3    H237650   6.218   2.513   1.453 -1.4372 -0.1526 -1.0367
 5339TIP3   OH237651   5.291   1.679   1.843  0.1289  0.6328  0.0060
 5339TIP3    H137652   5.245   1.702   1.924  0.2840 -0.8790  0.5513
 5339TIP3    H237653   5.223   1.644   1.786  0.5826 -1.8647  0.9149
 5340TIP3   OH237654   0.087   6.582   6.559 -0.1999  0.4713 -0.3147
 5340TIP3    H137655   0.168   6.566   6.512 -0.0086  0.2077  0.1063
 5340TIP3    H237656   0.018   6.569   6.493  0.0688  0.1889 -0.5401
 5341TIP3   OH237657   6.243   2.048   2.829 -0.6371  0.2455 -0.5764
 5341TIP3    H137658   6.202   1.971   2.790 -0.4165  0.0709 -0.4630
 5341TIP3    H237659   6.203   2.123   2.784  0.4292  0.0200 -1.9092
 5342TIP3   OH237660   6.196   3.709   1.370 -0.3388 -0.2974  0.1553
 5342TIP3    H137661   6.221   3.737   1.282  1.8799  0.0462  0.8728
 5342TIP3    H237662   6.194   3.790   1.421  1.5737 -0.8651  1.1694
 5343TIP3   OH237663   7.089   4.795   1.090 -0.1642  0.2064  0.0150
 5343TIP3    H137664   7.061   4.713   1.130  0.5010 -0.8273 -1.5386
 5343TIP3    H237665   7.150   4.767   1.021 -0.6485  1.9470 -1.1482
 5344TIP3   OH237666   6.495   3.606   1.739  0.0964  0.1293 -0.7087
 5344TIP3    H137667   6.542   3.528   1.708 -1.2459 -1.0779  0.1738
 5344TIP3    H237668   6.484   3.590   1.833  0.0896  1.5458 -0.4709
 5345TIP3   OH237669   5.923   1.106   7.805  0.1067  0.1250 -0.0210
 5345TIP3    H137670   5.944   1.179   7.747 -0.6007  0.1225 -0.2777
 5345TIP3    H237671   5.942   1.139   7.893 -1.3661  1.0251 -0.0394
 5346TIP3   OH237672   5.018   3.297   2.456 -0.6313  0.5195  0.6538
 5346TIP3    H137673   5.046   3.206   2.455 -1.2469  0.3295  0.4604
 5346TIP3    H237674   4.960   3.305   2.532 -1.5278  0.4497 -0.0066
 5347TIP3   OH237675   6.297   0.613   1.903  0.1383  0.5161 -0.4050
 5347TIP3    H137676   6.241   0.660   1.964  2.0337 -0.3221  2.0588
 5347TIP3    H237677   6.353   0.680   1.864 -0.9255  1.0247 -1.0738
 5348TIP3   OH237678   5.186   7.331   0.958 -0.1834  0.4547  1.1515
 5348TIP3    H137679   5.095   7.361   0.956 -0.2544  0.1983  0.4429
 5348TIP3    H237680   5.237   7.411   0.944 -0.3522  0.3762  0.0121
 5349TIP3   OH237681   5.660   4.339   7.912 -0.1683  0.1413 -0.2631
 5349TIP3    H137682   5.678   4.311   8.001 -0.5078  1.1398  0.1281
 5349TIP3    H237683   5.567   4.320   7.899 -0.2374  0.4519 -0.2287
 5350TIP3   OH237684   3.893   2.562   1.503 -0.7417 -0.6970  0.3882
 5350TIP3    H137685   3.933   2.491   1.554  0.1399  1.9486  3.5393
 5350TIP3    H237686   3.823   2.596   1.559 -0.8127  1.2435 -0.8385
 5351TIP3   OH237687   6.870   2.325   0.993 -0.0486 -0.1584 -0.0468
 5351TIP3    H137688   6.911   2.247   1.031 -0.2293 -0.7251 -0.9720
 5351TIP3    H237689   6.941   2.367   0.943  0.1629  0.5194  0.8270
 5352TIP3   OH237690   2.697   6.043   0.770 -0.2375  0.4410  0.0169
 5352TIP3    H137691   2.767   6.028   0.706  1.3761  3.9834  0.8217
 5352TIP3    H237692   2.651   6.121   0.737 -2.6024 -0.6708  0.5617
 5353TIP3   OH237693   2.851   0.742   0.853  0.8586  0.2614 -0.1427
 5353TIP3    H137694   2.931   0.755   0.904  1.5019  0.2583 -1.1489
 5353TIP3    H237695   2.841   0.822   0.802 -0.3974  0.7308  0.7926
 5354TIP3   OH237696   0.082   4.194   2.300 -0.1688  0.6175  0.1336
 5354TIP3    H137697   0.129   4.115   2.326  0.5898  0.9192 -0.2890
 5354TIP3    H237698   0.035   4.170   2.221 -0.0077  0.5618  0.0545
 5355TIP3   OH237699   5.577   1.209   7.652  0.9231  0.0197  0.0733
 5355TIP3    H137700   5.505   1.273   7.655  3.3919  2.8438  3.7070
 5355TIP3    H237701   5.637   1.243   7.586  1.7759  0.9825  1.3258
 5356TIP3   OH237702   6.282   6.496   1.757 -0.2611 -0.3341  0.1055
 5356TIP3    H137703   6.335   6.418   1.774  0.0209 -0.0394  0.6205
 5356TIP3    H237704   6.242   6.516   1.842  1.0116  1.0681  0.3977
 5357TIP3   OH237705   2.973   4.292   1.528  0.5921  0.1682  0.0538
 5357TIP3    H137706   3.034   4.347   1.576  0.8619  0.9627 -1.1882
 5357TIP3    H237707   3.022   4.263   1.451  0.3980 -1.6580  0.5896
 5358TIP3   OH237708   5.145   4.467   7.987  0.2353  0.0368  0.2185
 5358TIP3    H137709   5.176   4.381   7.956  0.2722  1.0191 -2.6472
 5358TIP3    H237710   5.225   4.514   8.008  0.5138  0.8224 -2.3728
 5359TIP3   OH237711   6.494   5.241   6.763 -0.4354  0.0400  0.4360
 5359TIP3    H137712   6.531   5.156   6.740 -0.7151  0.2439 -0.7938
 5359TIP3    H237713   6.512   5.297   6.688  0.7971  1.4273  1.7093
 5360TIP3   OH237714   6.335   1.613   1.742 -0.2923 -0.1125  0.0585
 5360TIP3    H137715   6.366   1.526   1.767 -0.7772 -0.7976 -1.7057
 5360TIP3    H237716   6.246   1.618   1.777  0.3712  0.3810  1.7346
 5361TIP3   OH237717   0.270   4.140   0.637 -0.6962 -0.4995 -0.0622
 5361TIP3    H137718   0.196   4.098   0.681  0.2314 -1.4699  0.5640
 5361TIP3    H237719   0.236   4.160   0.549 -1.8073 -0.6330  0.3243
 5362TIP3   OH237720   4.584   3.217   2.231  0.0146 -0.0270 -0.3793
 5362TIP3    H137721   4.669   3.173   2.228  0.2283  0.3984 -0.7152
 5362TIP3    H237722   4.533   3.169   2.296  0.5079 -0.2952 -0.1954
 5363TIP3   OH237723   5.660   0.433   0.973  0.3196 -0.1078 -0.8069
 5363TIP3    H137724   5.699   0.351   0.945 -0.6227 -0.3172 -1.5444
 5363TIP3    H237725   5.601   0.408   1.044 -1.2240 -0.3333 -2.1248
 5364TIP3   OH237726   6.454   5.044   7.972 -0.6833  0.2258  0.8829
 5364TIP3    H137727   6.531   5.015   7.922  0.7348  0.8347  2.6892
 5364TIP3    H237728   6.455   5.139   7.965 -1.9307  0.1858 -0.0216
 5365TIP3   OH237729   3.403   5.892   1.145  0.3322  0.1830 -0.0291
 5365TIP3    H137730   3.434   5.983   1.149 -0.0666  0.3599 -0.9094
 5365TIP3    H237731   3.312   5.898   1.176  0.0534  0.2091 -0.8438
 5366TIP3   OH237732   6.418   0.185   7.592  0.0996 -0.1297  0.2029
 5366TIP3    H137733   6.380   0.247   7.655 -1.5518  0.6858 -1.5684
 5366TIP3    H237734   6.356   0.113   7.590 -0.3049  0.2513 -1.1543
 5367TIP3   OH237735   6.625   2.135   1.854 -1.0886 -0.1805 -0.1247
 5367TIP3    H137736   6.552   2.185   1.817 -1.1363 -0.7574 -0.8032
 5367TIP3    H237737   6.639   2.175   1.940 -2.3199 -0.1664  0.0830
 5368TIP3   OH237738   6.433   0.128   1.968  0.0193 -0.8239 -0.1183
 5368TIP3    H137739   6.477   0.045   1.950 -0.4349 -0.9354 -0.7138
 5368TIP3    H237740   6.380   0.144   1.891  2.6103  1.6702 -1.4576
 5369TIP3   OH237741   5.951   0.747   2.090  0.2530 -0.2860 -0.8383
 5369TIP3    H137742   5.932   0.656   2.071  0.7666 -0.3468 -1.0646
 5369TIP3    H237743   5.904   0.765   2.172  0.0531 -0.7167 -0.8607
 5370TIP3   OH237744   3.315   4.965   2.482 -0.1475  0.5071 -0.5410
 5370TIP3    H137745   3.318   5.028   2.410 -0.3966  1.6333  0.4341
 5370TIP3    H237746   3.290   4.883   2.440 -0.5933  1.2191 -1.6927
 5371TIP3   OH237747   5.877   1.369   7.181  0.3088  1.0104 -0.1460
 5371TIP3    H137748   5.822   1.440   7.148 -1.2677 -0.0191  0.2051
 5371TIP3    H237749   5.838   1.290   7.145  2.9018  0.3773 -1.7408
 5372TIP3   OH237750   4.991   7.001   1.227 -0.3471 -0.4354 -0.6934
 5372TIP3    H137751   4.968   7.093   1.240  1.6163  0.0864 -0.7295
 5372TIP3    H237752   4.994   6.964   1.315 -2.2355 -0.7717 -0.7429
 5373TIP3   OH237753   0.528   1.062   1.462 -0.0195  0.2021 -0.0932
 5373TIP3    H137754   0.592   1.043   1.531  0.6165  0.5622 -0.5876
 5373TIP3    H237755   0.575   1.043   1.381  0.2829  2.8764 -0.5663
 5374TIP3   OH237756   3.207   3.393   1.620  0.4691 -0.5103  0.2817
 5374TIP3    H137757   3.135   3.454   1.602  0.1054 -1.2758 -0.9386
 5374TIP3    H237758   3.177   3.341   1.694 -1.6536 -2.9788 -2.1865
 5375TIP3   OH237759   5.005   2.180   1.954  0.3424 -0.5010 -0.0819
 5375TIP3    H137760   5.072   2.123   1.992  0.8980  0.4796  0.4385
 5375TIP3    H237761   4.979   2.136   1.873  1.3529 -1.0838 -0.1015
 5376TIP3   OH237762   5.286   4.303   1.398  0.6281 -0.3179  0.3272
 5376TIP3    H137763   5.259   4.295   1.490 -1.2594 -0.9647 -0.2755
 5376TIP3    H237764   5.265   4.394   1.376 -0.8489 -0.7283 -0.0449
 5377TIP3   OH237765   6.383   2.267   1.791  0.0886  0.3012  0.3985
 5377TIP3    H137766   6.315   2.272   1.724 -2.0507  0.2025  2.4841
 5377TIP3    H237767   6.410   2.358   1.805  1.5879  0.1889 -1.5769
 5378TIP3   OH237768   5.646   3.484   6.719 -0.1996  0.6039  0.4473
 5378TIP3    H137769   5.658   3.394   6.687  1.4838  0.7942  0.4813
 5378TIP3    H237770   5.578   3.477   6.785 -0.4137 -0.5805  0.1117
 5379TIP3   OH237771   5.431   1.551   0.607 -0.1544 -0.2119  0.1714
 5379TIP3    H137772   5.397   1.608   0.675  1.5055  1.6408 -0.5229
 5379TIP3    H237773   5.460   1.610   0.538 -0.8429 -2.0124 -1.7129
 5380TIP3   OH237774   0.871   6.966   8.471 -0.4960 -0.0873  0.0876
 5380TIP3    H137775   0.886   6.874   8.490 -1.0713  0.2956  2.6206
 5380TIP3    H237776   0.926   6.985   8.395  0.2285 -2.3039  0.0370
 5381TIP3   OH237777   4.977   1.907   8.292  0.3195 -0.3143  0.8483
 5381TIP3    H137778   5.021   1.940   8.214 -0.9885  0.2853  0.3572
 5381TIP3    H237779   5.004   1.968   8.362 -1.8960  1.7094 -0.0043
 5382TIP3   OH237780   6.987   5.820   0.622  0.1145 -0.6701  0.0447
 5382TIP3    H137781   6.902   5.847   0.587  0.6046  0.3644 -0.3844
 5382TIP3    H237782   7.010   5.743   0.571 -2.0228 -2.9320  2.3321
 5383TIP3   OH237783   2.625   3.837   0.114  0.4573  0.0594  0.4174
 5383TIP3    H137784   2.571   3.781   0.169 -0.1233 -0.8115 -1.0309
 5383TIP3    H237785   2.688   3.876   0.175 -1.6600  0.9589  2.1028
 5384TIP3   OH237786   6.078   3.056   1.726 -0.7873  0.8946 -0.2860
 5384TIP3    H137787   6.127   3.134   1.751 -2.3571  1.7840  0.0610
 5384TIP3    H237788   6.061   3.010   1.808  1.5566 -0.7085 -0.6405
 5385TIP3   OH237789   6.329   5.574   8.153  0.4686  0.3350  0.0138
 5385TIP3    H137790   6.240   5.610   8.146  0.3662  0.1261  0.2580
 5385TIP3    H237791   6.375   5.635   8.211  0.0444 -0.4064  1.1533
 5386TIP3   OH237792   6.713   0.682   2.121 -0.0809  0.0981  0.3890
 5386TIP3    H137793   6.658   0.625   2.067 -0.4611  0.0668  0.8057
 5386TIP3    H237794   6.668   0.766   2.120 -0.0098  0.1370  0.5370
 5387TIP3   OH237795   1.225   6.583   7.172 -0.0590  0.4384  0.1068
 5387TIP3    H137796   1.249   6.626   7.090 -0.8739  1.8410  0.5706
 5387TIP3    H237797   1.210   6.656   7.233 -2.4438 -0.4722  0.6559
 5388TIP3   OH237798   3.179   2.069   1.598 -0.0685 -0.3522 -0.1808
 5388TIP3    H137799   3.100   2.015   1.603 -0.5111  0.1896 -1.0674
 5388TIP3    H237800   3.248   2.010   1.568 -0.1157 -0.8542  0.7114
 5389TIP3   OH237801   7.245   6.951   1.353  0.2262  0.2329 -0.5981
 5389TIP3    H137802   7.207   7.008   1.419  1.9115 -0.7069  1.2084
 5389TIP3    H237803   7.199   6.868   1.363  1.3540 -0.2980  0.2608
 5390TIP3   OH237804   7.283   4.132   8.422 -0.2082  0.0716 -0.2496
 5390TIP3    H137805   7.295   4.038   8.434 -0.2879 -0.2007 -2.1808
 5390TIP3    H237806   7.219   4.140   8.351  0.4609  1.5749 -0.7211
 5391TIP3   OH237807   1.316   3.955   2.005 -0.1947  0.3610  0.1519
 5391TIP3    H137808   1.349   3.923   2.089  0.7681  1.5513  0.2427
 5391TIP3    H237809   1.254   4.025   2.028  0.1688  0.7758 -0.1245
 5392TIP3   OH237810   5.699   3.594   0.374  0.2567  0.0801 -0.4591
 5392TIP3    H137811   5.728   3.661   0.311 -0.8487 -1.2519 -2.4443
 5392TIP3    H237812   5.775   3.581   0.431  0.5406  2.8913 -0.1403
 5393TIP3   OH237813   5.580   2.806   7.065 -1.0548 -0.3451  0.1991
 5393TIP3    H137814   5.529   2.736   7.023 -2.3970  1.3946 -1.1163
 5393TIP3    H237815   5.658   2.815   7.011 -1.7744  0.4363 -0.7287
 5394TIP3   OH237816   7.138   5.473   1.958 -0.0753  0.0848 -0.0416
 5394TIP3    H137817   7.091   5.556   1.958  0.2548  0.2790 -1.3351
 5394TIP3    H237818   7.159   5.457   2.050 -0.4021  1.2845  0.2440
 5395TIP3   OH237819   5.411   5.047   1.484  0.5138 -0.4522  0.1247
 5395TIP3    H137820   5.316   5.045   1.495  0.6076  0.0814  1.0936
 5395TIP3    H237821   5.444   4.981   1.544  0.8774  0.8443  1.3929
 5396TIP3   OH237822   0.655   0.903   1.642 -0.1168 -0.2611 -0.0082
 5396TIP3    H137823   0.659   0.822   1.592 -1.4632  0.0721 -0.6952
 5396TIP3    H237824   0.709   0.886   1.720  0.8798 -1.2548 -0.9018
 5397TIP3   OH237825   7.008   4.117   6.655 -0.2566  0.2867  0.4284
 5397TIP3    H137826   7.082   4.102   6.595 -2.4362 -0.4961 -2.1292
 5397TIP3    H237827   6.994   4.212   6.652  0.5716  0.4346  0.8890
 5398TIP3   OH237828   0.802   5.569   0.817 -0.0955 -0.2504 -0.1843
 5398TIP3    H137829   0.823   5.548   0.726  0.4161  2.1919 -0.6636
 5398TIP3    H237830   0.729   5.512   0.838 -0.6988 -0.3353 -2.3742
 5399TIP3   OH237831   0.008   0.573   1.273  0.3210  0.4897  0.1103
 5399TIP3    H137832   0.056   0.505   1.320 -0.2756 -0.5735 -0.7672
 5399TIP3    H237833  -0.008   0.641   1.338 -0.7457 -1.0660  1.5440
 5400TIP3   OH237834   7.142   3.074   2.210  0.1477 -0.0487 -0.5761
 5400TIP3    H137835   7.104   3.160   2.229  0.2803  0.0489 -0.7466
 5400TIP3    H237836   7.209   3.061   2.277  0.4737  0.2040 -0.8512
 5401TIP3   OH237837   4.585   0.161   6.966 -0.2595 -0.3177 -0.1982
 5401TIP3    H137838   4.552   0.130   6.881  0.9696 -0.5670 -0.6023
 5401TIP3    H237839   4.575   0.085   7.024 -1.6240  0.0270  0.0406
 5402TIP3   OH237840   7.258   2.463   1.379 -0.3007 -0.0928  0.1877
 5402TIP3    H137841   7.176   2.417   1.399 -0.7137  0.3086 -0.5517
 5402TIP3    H237842   7.262   2.464   1.284 -1.2408  3.0063  0.1285
 5403TIP3   OH237843   0.501   2.863   1.794 -0.2668 -0.0785 -0.2800
 5403TIP3    H137844   0.448   2.784   1.792 -0.7977  0.2546  0.2640
 5403TIP3    H237845   0.514   2.881   1.888  1.6149 -0.6913 -0.4104
 5404TIP3   OH237846   6.613   1.695   1.788  0.4106  0.3280  0.0634
 5404TIP3    H137847   6.619   1.685   1.883  2.6096  2.4117  0.1795
 5404TIP3    H237848   6.520   1.681   1.769  0.0169 -0.6388  2.4351
 5405TIP3   OH237849   2.793   5.781   0.292  0.5336  0.2643 -0.1135
 5405TIP3    H137850   2.786   5.730   0.211 -0.6877  0.5102 -0.1663
 5405TIP3    H237851   2.730   5.852   0.281  1.2109  0.9799  0.5655
 5406TIP3   OH237852   2.693   3.014   8.155 -0.3420 -0.2487  0.0141
 5406TIP3    H137853   2.602   3.023   8.185 -0.0870 -3.4078  1.9404
 5406TIP3    H237854   2.744   3.010   8.236  1.0093 -3.0617 -0.9478
 5407TIP3   OH237855   0.167   5.317   8.137 -0.2495 -0.0753  0.6248
 5407TIP3    H137856   0.232   5.318   8.066 -1.1639 -1.2725 -0.2685
 5407TIP3    H237857   0.139   5.408   8.144  0.1624  0.1369 -0.2800
 5408TIP3   OH237858   1.542   4.344   1.057 -0.0153 -0.5463 -0.1210
 5408TIP3    H137859   1.549   4.398   1.136 -1.9933 -3.5421  2.2484
 5408TIP3    H237860   1.627   4.300   1.049  1.1537  1.8550 -1.3280
 5409TIP3   OH237861   3.673   0.313   1.686 -0.2962 -0.8288  0.4779
 5409TIP3    H137862   3.709   0.300   1.774  0.6564 -2.3673 -0.1287
 5409TIP3    H237863   3.584   0.279   1.691 -0.6859  0.2531  1.1740
 5410TIP3   OH237864   6.603   2.915   0.834 -0.4910 -0.4409 -0.6946
 5410TIP3    H137865   6.595   2.874   0.748  0.9465 -0.2979 -0.9211
 5410TIP3    H237866   6.668   2.985   0.820 -1.1665  0.3757  0.2215
 5411TIP3   OH237867   6.849   2.800   1.584  0.1104  0.0212  0.0915
 5411TIP3    H137868   6.873   2.739   1.654 -2.6644  0.7190  1.7377
 5411TIP3    H237869   6.880   2.885   1.614  0.7014  0.0063 -0.4705
 5412TIP3   OH237870   5.317   1.204   0.591  0.4502  0.4040 -0.4189
 5412TIP3    H137871   5.256   1.133   0.571 -0.7045  0.6519  1.9839
 5412TIP3    H237872   5.319   1.257   0.512 -3.7884  1.2838 -0.0885
 5413TIP3   OH237873   5.892   6.581   0.373 -0.2794 -0.7840 -0.2674
 5413TIP3    H137874   5.970   6.591   0.319 -0.0708  1.2789  0.3833
 5413TIP3    H237875   5.920   6.526   0.446  1.3095  2.0206  1.3214
 5414TIP3   OH237876   2.354   2.844   7.476  0.0114  0.2795 -0.2691
 5414TIP3    H137877   2.321   2.787   7.406  0.0995  0.2286 -0.2695
 5414TIP3    H237878   2.310   2.928   7.461 -0.8576 -0.0679  0.3167
 5415TIP3   OH237879   0.217   4.725   8.483 -0.2054  0.1967  0.1849
 5415TIP3    H137880   0.141   4.726   8.425  0.3519  0.8558 -0.5367
 5415TIP3    H237881   0.250   4.636   8.479 -0.5581  0.0743  0.0043
 5416TIP3   OH237882   3.076   6.468   6.775  0.1421  0.1004 -0.1067
 5416TIP3    H137883   3.063   6.560   6.799  0.7706  0.0815  0.3064
 5416TIP3    H237884   3.067   6.467   6.680  2.0825  0.9333 -0.3319
 5417TIP3   OH237885   0.460   5.442   0.118 -0.1538  0.3026  0.0016
 5417TIP3    H137886   0.421   5.377   0.059  1.5446 -0.0417 -0.7595
 5417TIP3    H237887   0.391   5.460   0.182 -0.9715 -1.5693 -0.3117
 5418TIP3   OH237888   1.439   6.595   0.802 -0.4894  0.2461  0.0661
 5418TIP3    H137889   1.360   6.620   0.851 -1.8624  0.4337 -2.1742
 5418TIP3    H237890   1.408   6.529   0.741  1.3750 -0.5832  0.0160
 5419TIP3   OH237891   6.766   6.557   2.326  0.5649 -0.5562 -0.1077
 5419TIP3    H137892   6.859   6.573   2.341  0.6813 -1.2697 -0.0336
 5419TIP3    H237893   6.725   6.644   2.329  1.1171 -0.3162  0.6308
 5420TIP3   OH237894   6.814   4.932   1.391  0.1885  0.0091  0.4355
 5420TIP3    H137895   6.905   4.944   1.362  0.3764 -0.5069  0.7999
 5420TIP3    H237896   6.761   4.961   1.317  0.6570 -0.2961 -0.0247
 5421TIP3   OH237897   7.079   7.152   1.928  0.7843  0.7504  0.2296
 5421TIP3    H137898   6.999   7.205   1.929 -0.1518 -0.6435  1.8694
 5421TIP3    H237899   7.055   7.074   1.878  2.2195  1.9224 -2.3546
 5422TIP3   OH237900   5.108   4.317   0.809 -0.0423  0.1455  0.2641
 5422TIP3    H137901   5.111   4.227   0.839  0.6871 -0.8216 -2.5254
 5422TIP3    H237902   5.154   4.367   0.876  0.2540 -1.6803  1.4404
 5423TIP3   OH237903   3.630   5.903   7.092 -0.5137 -0.1981  0.3190
 5423TIP3    H137904   3.693   5.860   7.151 -0.5823 -0.8938 -0.1104
 5423TIP3    H237905   3.662   5.993   7.084 -1.4361  0.4103  2.7746
 5424TIP3   OH237906   2.034   6.558   8.212 -0.3784  0.0579 -0.6413
 5424TIP3    H137907   2.037   6.652   8.230  1.0912  0.1362 -1.2184
 5424TIP3    H237908   2.014   6.551   8.119 -0.4485 -0.2030 -0.6090
 5425TIP3   OH237909   0.764   0.718   1.155  0.3852 -0.4600 -0.3369
 5425TIP3    H137910   0.690   0.740   1.099  1.5971 -0.4293 -1.9523
 5425TIP3    H237911   0.796   0.635   1.122  4.0930  1.8232 -2.8702
 5426TIP3   OH237912   7.149   5.829   7.042  0.5692 -0.1167  0.2397
 5426TIP3    H137913   7.188   5.755   7.088  1.4843  0.5713  0.5882
 5426TIP3    H237914   7.107   5.881   7.111 -2.6377 -1.8007 -0.3194
 5427TIP3   OH237915   0.211   6.004   0.068  0.3302  0.1917 -0.1554
 5427TIP3    H137916   0.209   6.012  -0.028 -1.9945 -1.9366 -0.3398
 5427TIP3    H237917   0.225   5.910   0.083  0.4840  0.4926  1.5968
 5428TIP3   OH237918   3.460   2.721   1.210  0.0290  0.5152  0.2625
 5428TIP3    H137919   3.418   2.705   1.125  0.1217  0.3927  0.2398
 5428TIP3    H237920   3.431   2.809   1.235  0.2448  0.6730 -0.0381
 5429TIP3   OH237921   6.830   4.024   1.118  0.4012  0.1601  0.4556
 5429TIP3    H137922   6.816   3.942   1.165  1.5804  0.1582  0.7983
 5429TIP3    H237923   6.770   4.086   1.161 -0.8904 -0.6361 -0.1544
 5430TIP3   OH237924   5.796   2.307   7.460  0.2260  0.0442  0.4816
 5430TIP3    H137925   5.838   2.230   7.422  1.1200  0.2576  1.0093
 5430TIP3    H237926   5.811   2.376   7.395  1.0513  0.2168  0.8535
 5431TIP3   OH237927   0.741   6.945   6.636  0.1545 -0.1297  0.2948
 5431TIP3    H137928   0.709   7.032   6.661 -1.1486 -0.4139 -0.3553
 5431TIP3    H237929   0.754   6.899   6.719 -0.5019  0.2120  0.5864
 5432TIP3   OH237930   3.101   5.971   8.225 -0.0432 -0.2375  0.0919
 5432TIP3    H137931   3.119   6.065   8.223  0.4788 -0.3499 -0.7699
 5432TIP3    H237932   3.115   5.942   8.135  0.3995 -1.2504  0.4753
 5433TIP3   OH237933   3.465   6.010   1.783 -0.0448  0.3268 -0.7468
 5433TIP3    H137934   3.463   6.099   1.818 -1.7756 -0.7126  1.9660
 5433TIP3    H237935   3.388   6.005   1.727 -0.0994  0.4541 -0.6835
 5434TIP3   OH237936   1.036   0.286   1.818  0.0619 -0.8474 -0.2525
 5434TIP3    H137937   1.059   0.374   1.788  0.0863 -1.1466 -1.1378
 5434TIP3    H237938   1.065   0.283   1.909  0.5507 -0.1131 -0.3791
 5435TIP3   OH237939   0.140   3.774   0.926  0.1933  0.0426 -0.6711
 5435TIP3    H137940   0.233   3.791   0.941  0.0625  1.3320 -1.2442
 5435TIP3    H237941   0.110   3.732   1.007  1.1056  0.3275 -0.1757
 5436TIP3   OH237942   6.375   3.995   8.033 -0.4481 -0.3019  0.0506
 5436TIP3    H137943   6.461   3.972   7.998  0.6308  3.7710 -0.2650
 5436TIP3    H237944   6.393   4.028   8.121 -1.7272  0.2165  0.1289
 5437TIP3   OH237945   6.553   3.800   1.452 -0.2978 -0.2344  0.4994
 5437TIP3    H137946   6.606   3.808   1.373 -1.1877  0.3049 -0.0451
 5437TIP3    H237947   6.534   3.706   1.458  0.0918 -0.3309  0.2937
 5438TIP3   OH237948   6.319   4.830   2.128 -0.0408  0.5930  0.4899
 5438TIP3    H137949   6.333   4.736   2.115 -0.8281  0.4858  0.3830
 5438TIP3    H237950   6.257   4.854   2.059  1.3085  1.5007 -0.4341
 5439TIP3   OH237951   0.794   3.627   7.306 -0.1825 -0.3435 -0.5490
 5439TIP3    H137952   0.712   3.599   7.267 -0.1392 -0.9609 -0.1988
 5439TIP3    H237953   0.847   3.548   7.311 -0.0097 -0.1841  0.3277
 5440TIP3   OH237954   5.662   4.665   8.099 -0.1464 -0.3193  0.0883
 5440TIP3    H137955   5.754   4.691   8.085  0.3605 -2.9732 -1.8098
 5440TIP3    H237956   5.612   4.724   8.042  0.8300 -2.0301 -2.6465
 5441TIP3   OH237957   1.002   4.696   8.325  0.0121  0.1029 -0.3334
 5441TIP3    H137958   0.921   4.697   8.376 -0.5962 -0.0811 -1.2692
 5441TIP3    H237959   1.021   4.788   8.308 -1.0706  0.0891 -1.7372
 5442TIP3   OH237960   3.006   4.784   2.128 -0.1359 -0.3040 -0.2321
 5442TIP3    H137961   2.946   4.858   2.120  0.6036  0.3212 -0.1231
 5442TIP3    H237962   2.972   4.732   2.200 -0.1202  0.4583  0.3275
 5443TIP3   OH237963   4.714   2.868   8.081  0.4456  0.5635  0.4377
 5443TIP3    H137964   4.708   2.953   8.125  0.1670  0.9021 -0.2375
 5443TIP3    H237965   4.669   2.882   7.998  0.0689 -0.3564  0.4843
 5444TIP3   OH237966   0.659   4.614   1.031  0.5616 -0.0318 -0.3150
 5444TIP3    H137967   0.709   4.630   1.111  1.8494  3.7013 -1.7768
 5444TIP3    H237968   0.578   4.663   1.043  1.0138  1.0424 -1.4849
 5445TIP3   OH237969   5.918   5.486   0.017  0.0754 -0.0687  0.3647
 5445TIP3    H137970   5.881   5.536  -0.056 -2.2566  0.6463  1.9711
 5445TIP3    H237971   5.947   5.553   0.079 -0.0408 -0.6861  1.0822
 5446TIP3   OH237972   1.567   5.640   1.149  0.3122 -0.2744 -0.1523
 5446TIP3    H137973   1.533   5.667   1.234  1.7070 -2.0130  0.9899
 5446TIP3    H237974   1.492   5.648   1.090 -0.9443  0.0056  1.4412
 5447TIP3   OH237975   4.903   5.363   8.009 -0.0840  0.6416  0.2151
 5447TIP3    H137976   4.978   5.317   7.971 -1.1571 -0.3213 -0.7959
 5447TIP3    H237977   4.861   5.406   7.934 -1.4791 -0.1974  0.4978
 5448TIP3   OH237978   4.911   1.294   1.653  0.3279 -0.0043  0.5219
 5448TIP3    H137979   4.983   1.328   1.706  1.5784  1.4549 -1.9934
 5448TIP3    H237980   4.839   1.355   1.669  1.7939  2.5435 -2.0424
 5449TIP3   OH237981   1.088   4.593   0.127 -0.3826  0.3312 -0.0248
 5449TIP3    H137982   1.009   4.586   0.073 -0.8970  0.7578  0.6501
 5449TIP3    H237983   1.059   4.564   0.214  0.2242  0.4159  0.2070
 5450TIP3   OH237984   4.388   4.617   1.672 -0.3119 -0.4746  0.3530
 5450TIP3    H137985   4.330   4.657   1.737  0.7700 -0.5282  1.3769
 5450TIP3    H237986   4.441   4.555   1.723  1.8173  0.8023 -0.2511
 5451TIP3   OH237987   6.558   5.665   2.027 -0.4378 -0.2515 -0.2838
 5451TIP3    H137988   6.582   5.583   2.069 -1.6713  0.4195  1.8465
 5451TIP3    H237989   6.581   5.732   2.092  0.2295  1.0490 -1.8426
 5452TIP3   OH237990   3.867   4.915   0.043 -0.2802 -0.0695 -0.8933
 5452TIP3    H137991   3.807   4.979   0.081 -0.4023  0.3263 -1.7287
 5452TIP3    H237992   3.919   4.965  -0.020  1.6642 -0.1969  0.5938
 5453TIP3   OH237993   2.585   3.733   1.967  0.1431 -0.1124 -0.0267
 5453TIP3    H137994   2.605   3.642   1.984  0.1093 -0.0411  0.3988
 5453TIP3    H237995   2.659   3.765   1.916  2.3075  0.7633  3.4522
 5454TIP3   OH237996   1.235   3.892   1.543 -0.3277  0.3261 -0.2764
 5454TIP3    H137997   1.171   3.916   1.610 -0.3390 -1.4508  0.3679
 5454TIP3    H237998   1.183   3.882   1.463 -0.4993  1.2084 -0.2796
 5455TIP3   OH237999   6.545   3.600   0.301  1.1344  0.4371 -0.1632
 5455TIP3    H138000   6.483   3.668   0.328 -0.5694 -2.2354  3.0011
 5455TIP3    H238001   6.491   3.535   0.256  1.4141 -2.2405  3.1880
 5456TIP3   OH238002   7.183   5.401   2.217 -0.0544  0.3530 -0.8825
 5456TIP3    H138003   7.155   5.428   2.305 -0.4601 -1.5668 -0.4132
 5456TIP3    H238004   7.276   5.378   2.228 -0.4200 -1.0612 -0.6776
 5457TIP3   OH238005   3.264   4.798   1.685 -0.1362 -0.4016  0.1469
 5457TIP3    H138006   3.254   4.888   1.654 -2.0165 -0.6088  0.1201
 5457TIP3    H238007   3.273   4.746   1.605 -0.5333 -0.4023  0.0990
 5458TIP3   OH238008   7.299   3.613   1.464 -0.3257  0.6613  0.3554
 5458TIP3    H138009   7.330   3.523   1.464  0.9200  1.0808  1.1875
 5458TIP3    H238010   7.376   3.666   1.485 -1.5117  1.7467  2.0866
 5459TIP3   OH238011   0.049   3.788   7.649  0.3606  0.2782  0.2126
 5459TIP3    H138012   0.139   3.811   7.626  0.2612  1.0622  0.5866
 5459TIP3    H238013  -0.001   3.869   7.635  0.1629  0.5592  2.3737
 5460TIP3   OH238014   6.860   3.004   6.919  0.3857  0.3565  0.4248
 5460TIP3    H138015   6.955   3.012   6.914  0.2873  0.9991 -0.4070
 5460TIP3    H238016   6.827   3.087   6.885 -0.4996 -0.3267 -0.4148
 5461TIP3   OH238017   1.926   0.612   1.097 -0.6983  0.1423  0.0167
 5461TIP3    H138018   1.978   0.621   1.178 -1.3567 -1.0162  0.5814
 5461TIP3    H238019   1.962   0.534   1.054  0.4463  1.4338 -1.4209
 5462TIP3   OH238020   4.017   4.037   1.937  0.3469  0.3965  0.1348
 5462TIP3    H138021   3.950   4.015   2.002  0.7351 -1.1485  0.0509
 5462TIP3    H238022   4.010   4.131   1.925 -1.8218  0.2572  0.1116
 5463TIP3   OH238023   1.691   5.166   1.162  0.3757  0.3893 -0.2255
 5463TIP3    H138024   1.640   5.088   1.141  1.7362 -0.1858 -1.3943
 5463TIP3    H238025   1.699   5.164   1.258 -2.6481  1.0374  0.0856
 5464TIP3   OH238026   4.501   6.371   8.237  0.0750 -0.0372  0.4257
 5464TIP3    H138027   4.423   6.329   8.275 -0.5887  0.1910 -0.6648
 5464TIP3    H238028   4.545   6.302   8.188 -0.1731  0.1563 -0.0741
 5465TIP3   OH238029   0.092   6.535   1.353 -0.1813 -0.2655 -0.0469
 5465TIP3    H138030   0.135   6.456   1.321 -0.1526 -0.4377  0.4086
 5465TIP3    H238031   0.034   6.504   1.422  1.0473  0.2884  1.2766
 5466TIP3   OH238032   6.577   2.019   1.493 -0.3953  1.4854 -0.2494
 5466TIP3    H138033   6.625   2.039   1.573  0.4492 -1.1475 -0.0618
 5466TIP3    H238034   6.508   1.959   1.522  0.5986 -0.3620 -1.6437
 5467TIP3   OH238035   6.768   2.876   1.934 -0.2106 -0.1886 -0.5485
 5467TIP3    H138036   6.770   2.944   1.866 -1.1496 -0.3392 -0.7370
 5467TIP3    H238037   6.859   2.867   1.962 -0.1825  1.7091  0.0279
 5468TIP3   OH238038   2.545   3.220   0.946 -0.1343 -0.0620  0.2393
 5468TIP3    H138039   2.541   3.127   0.970  0.8407  0.4085  2.3180
 5468TIP3    H238040   2.566   3.265   1.028 -2.9210  2.2548 -0.2211
 5469TIP3   OH238041   1.439   4.734   1.022 -0.1759  0.2273 -0.1068
 5469TIP3    H138042   1.347   4.759   1.031 -0.2813  0.3862 -1.4910
 5469TIP3    H238043   1.480   4.808   0.978  0.5046 -0.0573  0.0468
 5470TIP3   OH238044   2.807   4.339   7.888  0.0992 -0.0988 -0.0875
 5470TIP3    H138045   2.833   4.352   7.797 -0.5371 -0.0624 -0.2643
 5470TIP3    H238046   2.836   4.250   7.909 -0.0936 -0.2482 -0.4433
 5471TIP3   OH238047   0.275   3.319   1.904 -0.4180 -0.0617  0.0548
 5471TIP3    H138048   0.311   3.408   1.899 -1.2414  0.3807  1.4980
 5471TIP3    H238049   0.335   3.266   1.854 -0.5999  1.5295 -1.9163
 5472TIP3   OH238050   2.053   3.631   0.146  0.2744 -0.2221 -0.4738
 5472TIP3    H138051   2.077   3.688   0.073  0.6598 -0.8991 -0.8802
 5472TIP3    H238052   1.957   3.634   0.148  0.2628 -0.1826 -0.9964
 5473TIP3   OH238053   5.944   3.332   0.140 -0.3501 -0.4644  0.2096
 5473TIP3    H138054   5.989   3.344   0.224  1.4377  0.5297 -0.8631
 5473TIP3    H238055   5.959   3.414   0.094  0.6923 -1.8631 -2.0130
 5474TIP3   OH238056   4.390   3.663   0.738 -0.0493  0.6682 -0.1795
 5474TIP3    H138057   4.380   3.578   0.695 -0.0268 -0.1557  1.4133
 5474TIP3    H238058   4.312   3.713   0.712 -0.6568 -0.2671 -0.1557
 5475TIP3   OH238059   2.054   2.976   6.624  0.1326  0.1352 -0.3584
 5475TIP3    H138060   2.128   3.026   6.590 -0.5227  0.7965 -0.8154
 5475TIP3    H238061   2.005   2.948   6.547 -0.1843 -0.1685 -0.0521
 5476TIP3   OH238062   4.420   3.924   7.756  0.0707 -0.3882 -0.0803
 5476TIP3    H138063   4.454   3.994   7.812  0.2563  0.2978 -1.0333
 5476TIP3    H238064   4.344   3.962   7.713 -0.0035 -0.8684 -0.3800
 5477TIP3   OH238065   0.892   4.895   0.375  0.3366  0.4163  0.0636
 5477TIP3    H138066   0.826   4.944   0.424 -0.0150 -0.8313  0.8634
 5477TIP3    H238067   0.874   4.916   0.284  0.6579  2.3393  0.4009
 5478TIP3   OH238068   0.094   4.861   6.897  0.2651  0.1813  0.4200
 5478TIP3    H138069   0.172   4.901   6.858  0.3025 -0.0598  0.2445
 5478TIP3    H238070   0.032   4.934   6.906  0.7452  0.5035  1.1769
 5479TIP3   OH238071   0.563   4.943   1.890 -0.2305  0.2390 -0.4328
 5479TIP3    H138072   0.564   4.985   1.977 -1.2748 -0.4064 -0.0949
 5479TIP3    H238073   0.550   4.850   1.909  1.9874 -0.2654 -1.1790
 5480TIP3   OH238074   1.081   2.390   2.136 -0.4333  0.1752 -0.0418
 5480TIP3    H138075   0.989   2.415   2.139 -0.5656 -0.5130  2.4271
 5480TIP3    H238076   1.127   2.459   2.183  0.2730  0.2552 -0.8267
 5481TIP3   OH238077   0.693   5.434   8.451  0.3798 -0.3129  0.3620
 5481TIP3    H138078   0.628   5.484   8.500  0.5800  0.3716 -0.0568
 5481TIP3    H238079   0.762   5.497   8.433  0.6618 -0.7626 -0.1341
 5482TIP3   OH238080   0.942   4.383   0.947 -0.1436  0.5938  0.1167
 5482TIP3    H138081   1.035   4.398   0.931  0.0661  1.0213  1.7162
 5482TIP3    H238082   0.900   4.466   0.924  0.1567  1.2006  1.7058
 5483TIP3   OH238083   0.856   1.861   1.873  0.0185 -0.0015 -0.3534
 5483TIP3    H138084   0.780   1.826   1.826 -1.7738  1.3382  1.4094
 5483TIP3    H238085   0.818   1.927   1.932  2.6777  1.2864 -0.0340
 5484TIP3   OH238086   6.123   4.561   7.983  0.6357  0.0035  0.4131
 5484TIP3    H138087   6.051   4.556   7.920 -0.2379 -0.9633  1.4514
 5484TIP3    H238088   6.114   4.481   8.035  2.1640  0.1304  0.8841
 5485TIP3   OH238089   6.025   3.317   6.655 -0.3594  0.4925 -0.5430
 5485TIP3    H138090   5.942   3.304   6.611 -0.3831 -0.9612 -0.1006
 5485TIP3    H238091   6.005   3.374   6.730 -1.2219 -1.0173  0.3800
 5486TIP3   OH238092   1.124   5.697   5.952  0.2921 -0.6768 -0.1421
 5486TIP3    H138093   1.120   5.703   6.047  0.4937  1.0133 -0.2330
 5486TIP3    H238094   1.213   5.669   5.933  0.2960 -0.8664  0.1480
 5487TIP3   OH238095   6.538   4.038   0.245 -0.0224 -0.3452  0.2389
 5487TIP3    H138096   6.618   4.012   0.291 -0.6299 -2.6862  0.0566
 5487TIP3    H238097   6.564   4.047   0.154  0.2101 -0.2247  0.3163
 5488TIP3   OH238098   0.370   4.212   1.453 -0.7563  0.3208 -0.4658
 5488TIP3    H138099   0.438   4.238   1.391 -0.2707  0.7753  0.2554
 5488TIP3    H238100   0.418   4.180   1.530 -1.3512  0.5426  0.0072
 5489TIP3   OH238101   0.242   4.462   6.677 -0.1244 -0.0575  0.1473
 5489TIP3    H138102   0.209   4.487   6.591 -0.1788  2.3930  0.8608
 5489TIP3    H238103   0.267   4.370   6.666 -1.7597 -0.3004 -1.9831
 5490TIP3   OH238104   3.273   3.711   6.245 -0.5242 -0.3412 -0.1760
 5490TIP3    H138105   3.202   3.774   6.239  1.3792  1.8695 -0.3457
 5490TIP3    H238106   3.340   3.745   6.186  1.2977 -1.4951  1.1629
 5491TIP3   OH238107   0.563   2.716   2.561  0.4337 -0.9178  0.1310
 5491TIP3    H138108   0.480   2.739   2.519  0.0884 -1.1112  0.7108
 5491TIP3    H238109   0.584   2.630   2.526  1.4331 -0.0006 -1.5943
 5492TIP3   OH238110   0.295   2.671   1.897 -0.1913 -0.2410 -0.4304
 5492TIP3    H138111   0.235   2.744   1.913 -0.9415 -0.6123 -1.4509
 5492TIP3    H238112   0.349   2.667   1.976 -0.3189  1.2350 -0.2491
 5493TIP3   OH238113   5.949   0.531   0.869 -0.0307 -0.3248 -0.1718
 5493TIP3    H138114   5.974   0.616   0.905 -1.1354 -0.4746  0.9701
 5493TIP3    H238115   5.853   0.531   0.872 -0.0102 -2.0187  0.8127
 5494TIP3   OH238116   6.357   1.339   1.830  0.0255 -0.0146 -0.5085
 5494TIP3    H138117   6.313   1.285   1.895 -0.0981 -0.1420 -0.6997
 5494TIP3    H238118   6.390   1.277   1.765  0.2033  0.1078 -0.5371
 5495TIP3   OH238119   5.768   3.158   0.284 -0.7589  0.2063 -0.3844
 5495TIP3    H138120   5.817   3.211   0.220  0.7820 -4.2449 -3.0925
 5495TIP3    H238121   5.826   3.152   0.359 -0.4365  1.3230 -0.5324
 5496TIP3   OH238122   1.661   6.601   0.075 -0.4344  0.2521  0.1535
 5496TIP3    H138123   1.717   6.549   0.134 -0.6320  3.3670  3.2691
 5496TIP3    H238124   1.574   6.596   0.114 -1.0920  0.3889 -1.2700
 5497TIP3   OH238125   1.617   4.546   7.223  0.1031  0.1194 -0.4169
 5497TIP3    H138126   1.671   4.490   7.279 -1.2568 -0.4693  0.3105
 5497TIP3    H238127   1.527   4.531   7.252 -0.6133 -0.0321 -2.6301
 5498TIP3   OH238128   5.833   5.752   6.962  0.0049  0.3623  0.4068
 5498TIP3    H138129   5.829   5.839   6.921  0.1319  0.7391  1.1945
 5498TIP3    H238130   5.921   5.720   6.943 -0.8608 -0.6927 -2.1067
 5499TIP3   OH238131   3.542   5.356   0.788  0.1393  0.8351  0.7324
 5499TIP3    H138132   3.591   5.279   0.761 -2.3070 -0.4709 -0.1958
 5499TIP3    H238133   3.511   5.336   0.876 -1.4306  0.2327  0.0710
 5500TIP3   OH238134   1.368   4.232   0.759  0.4204 -0.3538 -0.1386
 5500TIP3    H138135   1.439   4.221   0.822  2.7565  0.4028 -2.5895
 5500TIP3    H238136   1.289   4.207   0.808  1.9101  1.8723  3.6276
 5501TIP3   OH238137   5.007   3.826   1.671  0.7291  0.2362  0.6596
 5501TIP3    H138138   4.985   3.863   1.757 -0.0913  4.0473 -1.1000
 5501TIP3    H238139   5.065   3.891   1.631 -0.0836 -0.7761 -2.2769
 5502TIP3   OH238140   6.387   6.859   0.611  0.4368 -0.3085 -0.0052
 5502TIP3    H138141   6.425   6.932   0.561 -0.2602 -1.0902 -1.7159
 5502TIP3    H238142   6.391   6.888   0.702  1.2660  1.3738 -0.5535
 5503TIP3   OH238143   6.264   5.655   1.921 -0.0659 -0.1327  0.5345
 5503TIP3    H138144   6.355   5.666   1.945 -0.3153  1.1914  0.9148
 5503TIP3    H238145   6.235   5.577   1.967  1.0814 -1.0058 -0.2039
 5504TIP3   OH238146   0.073   6.021   1.168  0.1458  0.5318  0.2628
 5504TIP3    H138147   0.006   6.088   1.160  0.4787  0.6969 -1.4244
 5504TIP3    H238148   0.024   5.938   1.166 -0.1236  0.6799  0.6179
 5505TIP3   OH238149   1.023   5.557   0.977 -0.0204  0.0451  0.0070
 5505TIP3    H138150   0.950   5.574   0.918  0.0388 -1.5776 -0.5590
 5505TIP3    H238151   0.996   5.595   1.061 -1.1674  0.1266 -0.3971
 5506TIP3   OH238152   5.243   4.791   1.268  0.4505 -0.0720 -0.1426
 5506TIP3    H138153   5.200   4.812   1.351  1.7670  1.7611  0.1192
 5506TIP3    H238154   5.191   4.720   1.231 -0.9048 -0.0502  1.6487
 5507TIP3   OH238155   1.508   3.891   6.810  0.3654  0.4215  0.0623
 5507TIP3    H138156   1.564   3.815   6.791 -0.6877 -0.3159 -0.1529
 5507TIP3    H238157   1.419   3.858   6.797 -0.3560  0.4104  4.3671
 5508TIP3   OH238158   0.299   4.658   0.343 -0.0228 -0.1698 -0.6137
 5508TIP3    H138159   0.304   4.714   0.266  0.7447 -2.2701 -2.1176
 5508TIP3    H238160   0.221   4.603   0.328  0.7328 -1.3140 -0.4012
 5509TIP3   OH238161   1.226   2.812   1.386 -0.1403  0.2012  0.2019
 5509TIP3    H138162   1.197   2.777   1.302 -1.1683  1.6980 -0.0858
 5509TIP3    H238163   1.177   2.762   1.451  1.8413 -2.0737  0.0187
 5510TIP3   OH238164   0.786   6.986   2.003 -0.2358  0.0275  0.1255
 5510TIP3    H138165   0.792   7.082   2.007  1.2573 -0.1384  2.7745
 5510TIP3    H238166   0.867   6.956   2.045 -1.4366 -2.4091  0.7138
 5511TIP3   OH238167   3.599   7.219   0.376  0.0798  0.0364 -0.0559
 5511TIP3    H138168   3.566   7.204   0.287  0.3531 -0.6577 -0.0459
 5511TIP3    H238169   3.573   7.141   0.425 -1.2157  0.9988  0.8238
 5512TIP3   OH238170   0.753   3.955   1.446  0.1631 -0.4176 -0.1668
 5512TIP3    H138171   0.690   3.957   1.518 -1.3497  0.0357 -1.4542
 5512TIP3    H238172   0.835   3.987   1.484 -0.1981 -1.6952  1.7112
 5513TIP3   OH238173   6.429   6.863   0.892 -0.2100  0.4025 -0.2195
 5513TIP3    H138174   6.461   6.826   0.974  0.6169  1.8371  0.1318
 5513TIP3    H238175   6.404   6.952   0.914 -0.3446  0.6784 -1.4408
 5514TIP3   OH238176   6.249   3.740   1.982 -0.3065 -0.4685  0.0070
 5514TIP3    H138177   6.188   3.755   2.054  1.0084  2.4045  0.6073
 5514TIP3    H238178   6.310   3.673   2.015 -1.3045 -1.1368  0.5206
 5515TIP3   OH238179   4.009   4.841   1.454  0.5186  0.5234  0.4825
 5515TIP3    H138180   4.088   4.888   1.427  1.0627  0.2461  1.5658
 5515TIP3    H238181   4.024   4.750   1.428  0.1284  0.6533 -0.2068
 5516TIP3   OH238182   6.391   2.678   1.482  0.1957 -0.3226 -0.1190
 5516TIP3    H138183   6.355   2.649   1.399  1.7924  1.7302 -1.5935
 5516TIP3    H238184   6.319   2.667   1.545 -1.7375  0.1184 -2.2028
 5517TIP3   OH238185   3.872   5.506   1.791  0.1971  0.2623  0.0664
 5517TIP3    H138186   3.778   5.514   1.811  1.0221  0.6407  4.2593
 5517TIP3    H238187   3.887   5.412   1.782 -0.3999  0.1411  0.3093
 5518TIP3   OH238188   0.037   5.917   7.749  0.2841  0.7032  0.4037
 5518TIP3    H138189  -0.041   5.948   7.702  0.8703  0.3727 -0.8108
 5518TIP3    H238190   0.089   5.872   7.682  1.2053  0.3431  1.3479
 5519TIP3   OH238191   3.034   0.236   7.145 -0.3471 -0.8431 -0.2814
 5519TIP3    H138192   2.957   0.214   7.092  1.5458  2.2887 -4.7099
 5519TIP3    H238193   3.012   0.319   7.186 -0.6829 -1.7973  1.5010
 5520TIP3   OH238194   1.336   5.329   2.087 -0.2359 -0.8253 -0.7213
 5520TIP3    H138195   1.326   5.405   2.029 -0.1325  0.5154  0.9479
 5520TIP3    H238196   1.430   5.311   2.087 -0.1495 -0.4068 -0.4948
 5521TIP3   OH238197   0.056   4.645   2.103 -0.1568  0.2286 -0.0368
 5521TIP3    H138198   0.138   4.692   2.086 -0.0431 -0.4015 -1.2530
 5521TIP3    H238199   0.074   4.594   2.182  0.8836 -0.5202 -0.7503
 5522TIP3   OH238200   1.222   4.081   2.735 -0.2508 -0.2822  0.4327
 5522TIP3    H138201   1.224   4.020   2.661 -1.2753  0.1050  0.0786
 5522TIP3    H238202   1.130   4.084   2.760 -0.0884  0.5582  0.9201
 5523TIP3   OH238203   6.718   3.214   2.530  0.2609  0.1942  0.6568
 5523TIP3    H138204   6.708   3.120   2.548  0.8842 -0.7180 -3.4288
 5523TIP3    H238205   6.629   3.246   2.521  0.0858 -0.4643 -0.0208
 5524TIP3   OH238206   0.422   4.042   1.706 -0.2166 -0.3493 -0.5947
 5524TIP3    H138207   0.455   3.956   1.734 -0.5643  0.3242  1.9596
 5524TIP3    H238208   0.327   4.033   1.709 -0.2525  0.2797  0.1738
 5525TIP3   OH238209   6.325   2.704   2.597  0.0093 -0.0701  0.3545
 5525TIP3    H138210   6.417   2.699   2.569 -0.2125 -0.2849 -0.3478
 5525TIP3    H238211   6.289   2.777   2.547 -0.4686 -0.6399 -0.1352
 5526TIP3   OH238212   2.217   4.671   0.308  0.0160 -0.3878 -0.1672
 5526TIP3    H138213   2.311   4.689   0.310 -0.0483 -0.0960  1.3152
 5526TIP3    H238214   2.210   4.576   0.307  0.3266 -0.4108 -0.0447
 5527TIP3   OH238215   1.063   5.060   1.519 -0.0227  0.1496 -0.5020
 5527TIP3    H138216   1.033   4.999   1.452  1.3565 -0.2511 -0.7713
 5527TIP3    H238217   0.983   5.090   1.562 -0.7247 -1.6171 -0.5598
 5528TIP3   OH238218   3.426   6.481   0.438  0.0303  0.0069  0.6767
 5528TIP3    H138219   3.361   6.468   0.368 -0.7807 -1.7909  1.7290
 5528TIP3    H238220   3.508   6.450   0.400  0.1191  1.3970 -0.3286
 5529TIP3   OH238221   4.944   3.620   8.122 -0.0674 -0.6952  0.2081
 5529TIP3    H138222   4.921   3.545   8.067  1.3046 -0.0631 -1.2496
 5529TIP3    H238223   4.874   3.684   8.106  0.5903 -0.3203 -1.1833
 5530TIP3   OH238224   5.833   6.319   0.558  0.1905  0.3779  0.5508
 5530TIP3    H138225   5.747   6.361   0.549  0.8004  1.7988  1.1577
 5530TIP3    H238226   5.888   6.386   0.598  1.1663 -1.0614  1.6838
 5531TIP3   OH238227   1.133   5.667   7.682  0.3515 -0.2757 -0.3900
 5531TIP3    H138228   1.201   5.635   7.622 -0.9248 -0.7627 -1.5823
 5531TIP3    H238229   1.069   5.711   7.626 -0.6145 -0.3111  0.6655
 5532TIP3   OH238230   3.231   5.498   1.823  0.1021 -0.2980 -0.0836
 5532TIP3    H138231   3.167   5.569   1.812  0.1522  0.0095  1.4767
 5532TIP3    H238232   3.254   5.473   1.734 -0.6071  1.0281 -0.6636
 5533TIP3   OH238233   0.598   1.704   1.871 -0.0434 -0.2676  0.8128
 5533TIP3    H138234   0.615   1.720   1.964  0.9275 -2.3566  1.0294
 5533TIP3    H238235   0.510   1.665   1.870  0.0399 -0.4598  0.8840
 5534TIP3   OH238236   1.946   5.031   8.463 -1.0106 -0.0542  0.6120
 5534TIP3    H138237   2.007   4.998   8.529 -0.3790  0.3750  0.2406
 5534TIP3    H238238   1.953   4.969   8.391 -1.0712 -0.0459  0.5988
 5535TIP3   OH238239   7.265   4.244   1.890 -0.0971 -0.0653 -0.0072
 5535TIP3    H138240   7.194   4.215   1.948 -1.6437 -1.8650 -2.6996
 5535TIP3    H238241   7.277   4.337   1.910 -0.3128 -0.7105  3.4281
 5536TIP3   OH238242   1.046   4.842   1.329  0.2297  0.0796  0.1805
 5536TIP3    H138243   1.017   4.776   1.392  0.5552  2.0225  2.3957
 5536TIP3    H238244   1.142   4.839   1.334  0.3135 -1.1682 -1.7311
 5537TIP3   OH238245   2.060   4.809   6.317 -0.1112 -0.2544  0.2066
 5537TIP3    H138246   2.037   4.853   6.398  1.4251  0.0813  0.4629
 5537TIP3    H238247   2.099   4.726   6.345  0.7561  0.0220 -0.1829
 5538TIP3   OH238248   7.300   5.375   8.312  0.1396  0.2417  0.3586
 5538TIP3    H138249   7.257   5.296   8.346 -1.6222  0.5366 -1.1269
 5538TIP3    H238250   7.349   5.344   8.237 -0.0279  0.4457  0.1649
 5539TIP3   OH238251   2.450   3.868   6.792  0.1184  0.4103  0.2029
 5539TIP3    H138252   2.503   3.829   6.723  1.2637  0.7576  0.8855
 5539TIP3    H238253   2.418   3.950   6.755 -1.4312 -0.6167 -0.8531
 5540TIP3   OH238254   2.391   4.302   1.111 -0.8233  0.3021 -0.3875
 5540TIP3    H138255   2.402   4.207   1.105 -0.9343  0.1366  1.6313
 5540TIP3    H238256   2.337   4.325   1.035 -1.5006 -1.3518 -0.4240
 5541TIP3   OH238257   0.549   4.878   6.787 -0.0030 -0.0694  0.2800
 5541TIP3    H138258   0.507   4.793   6.798  0.8719 -0.7124 -1.1714
 5541TIP3    H238259   0.627   4.874   6.843 -0.7504  0.3310  1.3468
 5542TIP3   OH238260   1.554   4.500   8.200 -0.1112  0.7528 -0.4019
 5542TIP3    H138261   1.460   4.502   8.218 -0.1142 -0.3609 -0.2381
 5542TIP3    H238262   1.561   4.523   8.108 -0.6274 -0.1215 -0.6634
 5543TIP3   OH238263   2.862   4.897   0.896  0.2286  0.3878  0.0771
 5543TIP3    H138264   2.909   4.980   0.893 -1.6926  1.4856 -0.3181
 5543TIP3    H238265   2.882   4.855   0.812  2.2412 -0.1659  0.8031
 5544TIP3   OH238266   3.166   3.871   1.220 -0.0047  0.3070  0.1769
 5544TIP3    H138267   3.147   3.795   1.275 -0.2109 -0.1287 -0.5003
 5544TIP3    H238268   3.260   3.864   1.201 -0.4001 -0.8012 -1.4288
 5545TIP3   OH238269   1.975   6.794   1.199  0.2018 -0.7916 -0.4843
 5545TIP3    H138270   1.994   6.888   1.188  0.9148 -0.6860  1.4253
 5545TIP3    H238271   2.061   6.753   1.200 -0.1539 -1.6117 -2.3577
 5546TIP3   OH238272   1.666   5.288   6.901 -0.4365 -0.3135  0.3917
 5546TIP3    H138273   1.682   5.218   6.964  1.7201  1.0454  1.3992
 5546TIP3    H238274   1.710   5.258   6.821 -3.2175 -2.0604 -0.5516
 5547TIP3   OH238275   1.816   4.004   2.516  0.1432  0.1383  0.1714
 5547TIP3    H138276   1.728   3.965   2.521  0.2143 -0.4419 -2.4253
 5547TIP3    H238277   1.875   3.930   2.505  0.9018  0.5889  1.0895
 5548TIP3   OH238278   6.570   4.260   1.870  0.0771 -0.1676 -0.3717
 5548TIP3    H138279   6.625   4.304   1.935 -0.9053 -0.5499  0.7325
 5548TIP3    H238280   6.561   4.324   1.799 -2.3519  1.9615  1.7343
 5549TIP3   OH238281   5.243   4.164   1.167 -0.6839  0.2447 -0.7423
 5549TIP3    H138282   5.255   4.195   1.257  0.0796 -0.0192 -0.7531
 5549TIP3    H238283   5.150   4.142   1.162 -0.6860  0.0609  0.0401
 5550TIP3   OH238284   2.232   5.640   8.331  0.4120  0.2000 -0.6206
 5550TIP3    H138285   2.249   5.591   8.412 -3.1985 -0.4696 -0.1833
 5550TIP3    H238286   2.215   5.729   8.360  0.2416  0.2021 -0.7216
 5551TIP3   OH238287   6.435   4.194   7.556 -0.3168  0.8304  0.3647
 5551TIP3    H138288   6.452   4.121   7.615  0.4805 -1.1937 -2.3008
 5551TIP3    H238289   6.371   4.160   7.493  3.0669  1.0449 -3.3506
 5552TIP3   OH238290   0.265   5.473   1.126 -0.0528 -0.2579  0.7014
 5552TIP3    H138291   0.182   5.513   1.100 -0.1906 -1.1167 -0.2239
 5552TIP3    H238292   0.332   5.536   1.098 -0.3600  0.1622  0.9046
 5553TIP3   OH238293   2.242   5.708   0.635  0.7841 -0.2800 -0.2063
 5553TIP3    H138294   2.198   5.766   0.573 -0.1539 -0.3990  0.3361
 5553TIP3    H238295   2.317   5.758   0.668 -0.2579  0.7741  0.5764
 5554TIP3   OH238296   4.850   4.826   1.978 -0.1269 -0.0551  0.2182
 5554TIP3    H138297   4.899   4.755   2.020 -0.5308 -0.0366  0.7265
 5554TIP3    H238298   4.907   4.903   1.987  0.6495 -0.4603 -1.0062
 5555TIP3   OH238299   6.316   3.073   1.244  0.3741  0.0092 -0.4173
 5555TIP3    H138300   6.343   3.031   1.162 -0.1009  0.9585 -1.0614
 5555TIP3    H238301   6.226   3.103   1.227  0.2930  0.2554  0.4373
 5556TIP3   OH238302   5.929   6.190   7.199 -0.5209  0.5031 -0.8329
 5556TIP3    H138303   5.963   6.127   7.136 -0.7513 -2.2059  1.6578
 5556TIP3    H238304   6.007   6.229   7.238 -0.3740  0.2012 -0.8294
 5557TIP3   OH238305   6.482   2.794   1.161 -0.1522  0.3345 -0.2471
 5557TIP3    H138306   6.505   2.813   1.252 -1.1320  0.3704  0.0000
 5557TIP3    H238307   6.542   2.846   1.109  1.0446 -0.4148  0.3698
 5558TIP3   OH238308   4.614   6.002   1.719 -0.3688 -0.2849  0.1397
 5558TIP3    H138309   4.605   6.041   1.806  0.9381  1.7367 -0.6029
 5558TIP3    H238310   4.705   5.975   1.714 -0.3449 -0.0549 -0.7282
 5559TIP3   OH238311   6.593   0.817   0.778 -0.1461 -0.0503  0.1368
 5559TIP3    H138312   6.538   0.887   0.814 -0.9077 -0.6395  0.1303
 5559TIP3    H238313   6.628   0.773   0.855 -0.7952 -0.5405  0.1580
 5560TIP3   OH238314   5.646   3.682   2.075 -0.1229  0.6711  0.1053
 5560TIP3    H138315   5.684   3.764   2.109 -0.1412 -0.1854  2.3169
 5560TIP3    H238316   5.721   3.624   2.065 -0.2500  0.5871 -0.3331
 5561TIP3   OH238317   4.436   6.956   8.287  0.2693 -0.2540  0.2349
 5561TIP3    H138318   4.412   6.873   8.246 -0.2278 -0.2173  0.4459
 5561TIP3    H238319   4.509   6.934   8.345  0.5242 -0.4296 -0.1475
 5562TIP3   OH238320   1.750   5.400   0.067  0.2645  0.3722  0.3010
 5562TIP3    H138321   1.758   5.346  -0.011  2.2570  0.2056  0.5912
 5562TIP3    H238322   1.771   5.489   0.038  2.4336  0.0803  0.9112
 5563TIP3   OH238323   1.948   0.595   1.642  0.0122 -0.5718  0.3952
 5563TIP3    H138324   1.971   0.511   1.602 -0.5915 -0.5496  0.0041
 5563TIP3    H238325   1.902   0.571   1.722  1.1712 -0.6152  1.0736
 5564TIP3   OH238326   6.415   5.963   2.080  0.3686  0.1008  0.0484
 5564TIP3    H138327   6.479   6.031   2.099 -0.7594  1.6868 -1.6081
 5564TIP3    H238328   6.334   5.993   2.122 -0.1236 -0.2327 -0.6351
 5565TIP3   OH238329   0.262   4.516   8.209  0.1791 -0.1196  0.4577
 5565TIP3    H138330   0.264   4.452   8.138 -1.5651 -0.7890  0.9746
 5565TIP3    H238331   0.181   4.495   8.257 -0.2212  2.2398  0.8529
 5566TIP3   OH238332   2.328   6.591   8.489  0.9713 -0.2997 -0.5219
 5566TIP3    H138333   2.268   6.521   8.516  1.3233  0.2422  1.7636
 5566TIP3    H238334   2.360   6.628   8.571  0.0983  3.1837 -1.6845
 5567TIP3   OH238335   5.391   4.559   1.399  0.5641  0.4779 -0.1323
 5567TIP3    H138336   5.465   4.615   1.423 -0.7062  2.3365 -0.4125
 5567TIP3    H238337   5.317   4.620   1.392 -1.0465 -1.3691  0.4032
 5568TIP3   OH238338   5.972   1.680   7.080  0.2416 -0.1502 -0.1304
 5568TIP3    H138339   6.019   1.598   7.062 -0.3280 -0.5864  0.3655
 5568TIP3    H238340   5.883   1.663   7.049  0.4261  0.7138 -1.1749
 5569TIP3   OH238341   0.866   5.688   1.174  0.1842 -0.1357  0.1998
 5569TIP3    H138342   0.909   5.669   1.257 -1.5928  1.4585  1.5230
 5569TIP3    H238343   0.773   5.685   1.194 -0.2865 -0.3592 -1.8914
 5570TIP3   OH238344   0.261   2.823   1.599  0.2172  0.0894 -0.0858
 5570TIP3    H138345   0.226   2.910   1.583  0.1296  0.1037  0.1730
 5570TIP3    H238346   0.185   2.765   1.593  0.6674 -0.2647 -2.6228
 5571TIP3   OH238347   5.925   4.045   2.010  0.1158 -0.4464 -0.3341
 5571TIP3    H138348   5.833   4.061   1.989  0.4432  1.4712 -0.3734
 5571TIP3    H238349   5.923   3.990   2.088 -1.0541 -0.0167 -0.0627
 5572TIP3   OH238350   0.384   4.720   1.402  0.2290 -0.3153  0.2815
 5572TIP3    H138351   0.338   4.798   1.434  0.9543  1.0435 -1.9418
 5572TIP3    H238352   0.469   4.722   1.446 -0.2445 -0.5938  1.2333
 5573TIP3   OH238353   5.625   4.607   0.162  0.4400  0.2468  0.7350
 5573TIP3    H138354   5.634   4.592   0.068  0.4753  1.2583  0.5658
 5573TIP3    H238355   5.550   4.555   0.188  0.6938 -0.3772  0.2282
 5574TIP3   OH238356   1.196   4.415   0.939  0.3302 -0.2210  0.1807
 5574TIP3    H138357   1.267   4.447   0.883  0.3606  1.2367  1.0375
 5574TIP3    H238358   1.235   4.407   1.026 -0.8035  1.5663  0.8733
 5575TIP3   OH238359   2.615   2.997   7.758  0.4039  0.1690  0.2355
 5575TIP3    H138360   2.701   3.000   7.800  0.0061  2.9179  0.9910
 5575TIP3    H238361   2.554   2.975   7.828  0.3220 -0.2537  0.0315
 5576TIP3   OH238362   6.478   4.783   7.783 -0.1026  0.8027 -0.7068
 5576TIP3    H138363   6.558   4.734   7.762  1.0738  2.2397  0.3079
 5576TIP3    H238364   6.498   4.872   7.756 -1.8434  0.9486 -1.5649
 5577TIP3   OH238365   2.283   5.396   1.255  0.0064  0.0441  0.2552
 5577TIP3    H138366   2.202   5.417   1.301 -0.7177  1.2740 -1.5079
 5577TIP3    H238367   2.298   5.471   1.198  1.7022 -0.7403 -0.3587
 5578TIP3   OH238368   3.530   5.865   1.421 -0.1825  0.1710  0.3329
 5578TIP3    H138369   3.510   5.871   1.327  0.4299 -1.0043  0.1257
 5578TIP3    H238370   3.619   5.900   1.428 -0.1649  0.0978  0.4612
 5579TIP3   OH238371   6.150   6.342   7.179 -0.0075 -0.1223  0.2312
 5579TIP3    H138372   6.172   6.333   7.086  0.1891  0.6238  0.2002
 5579TIP3    H238373   6.234   6.333   7.224 -0.1139 -0.5599  0.3467
 5580TIP3   OH238374   0.840   3.489   2.085  0.1630 -0.1027 -0.5348
 5580TIP3    H138375   0.886   3.573   2.087 -2.9382  1.6578  1.7287
 5580TIP3    H238376   0.761   3.506   2.034 -0.3285 -1.7152 -0.3409
 5581TIP3   OH238377   7.253   6.373   1.084  0.0296 -0.0526  0.2499
 5581TIP3    H138378   7.259   6.378   0.988 -0.1821 -2.4511  0.0779
 5581TIP3    H238379   7.344   6.361   1.113 -0.0464 -0.5806  0.2646
 5582TIP3   OH238380   1.126   6.148   7.396 -0.2582 -0.0744  0.5179
 5582TIP3    H138381   1.032   6.143   7.383 -0.2036 -1.2784  0.5435
 5582TIP3    H238382   1.136   6.183   7.485 -0.6903 -0.8201  0.8629
 5583TIP3   OH238383   2.982   6.127   6.597  0.0260 -0.3087 -0.3109
 5583TIP3    H138384   3.002   6.034   6.611  1.6042  0.2091  1.0490
 5583TIP3    H238385   3.036   6.152   6.523  0.4894 -0.2000  0.0589
 5584TIP3   OH238386   7.046   5.079   0.657  0.1602 -0.1783  0.2911
 5584TIP3    H138387   7.083   4.994   0.679 -1.9773 -1.1508  0.2940
 5584TIP3    H238388   6.987   5.099   0.730 -0.0852  0.8565 -0.1815
 5585TIP3   OH238389   2.019   6.958   7.266  0.1506 -0.1354 -0.4600
 5585TIP3    H138390   2.000   7.024   7.200  0.1315 -0.0142 -0.3325
 5585TIP3    H238391   2.017   7.005   7.350 -1.2032 -0.5488 -0.2451
 5586TIP3   OH238392   0.841   5.030   2.162 -0.6088  0.3893 -0.0043
 5586TIP3    H138393   0.805   4.944   2.184 -1.8870  0.9107 -0.0205
 5586TIP3    H238394   0.766   5.090   2.169  0.5186  1.6921  1.1340
 5587TIP3   OH238395   3.228   5.155   2.284  0.5113  0.0457  0.3507
 5587TIP3    H138396   3.156   5.181   2.226  0.7305  0.9394  0.4751
 5587TIP3    H238397   3.305   5.154   2.226  0.3301 -1.3597  0.1139
 5588TIP3   OH238398   1.600   6.094   0.523  0.3265  0.7660  0.0977
 5588TIP3    H138399   1.635   6.007   0.542  0.8316  0.8494 -0.4265
 5588TIP3    H238400   1.615   6.144   0.603 -0.3564  0.2573  0.5569
 5589TIP3   OH238401   0.923   3.274   1.826 -0.6941  0.1897  0.1281
 5589TIP3    H138402   0.992   3.311   1.882 -1.1856 -1.1994  1.6881
 5589TIP3    H238403   0.945   3.304   1.738  1.2333  0.7515  0.7727
 5590TIP3   OH238404   4.342   5.914   0.193 -0.4179  0.1239  0.6147
 5590TIP3    H138405   4.270   5.896   0.253 -0.8496 -0.3657 -0.0392
 5590TIP3    H238406   4.413   5.856   0.221 -0.5790 -0.0191  0.7221
 5591TIP3   OH238407   2.660   5.181   8.001 -0.0818  0.4389 -0.0793
 5591TIP3    H138408   2.741   5.209   8.044 -1.3299  2.8569  0.7561
 5591TIP3    H238409   2.678   5.192   7.907  0.7734  0.3223  0.0658
 5592TIP3   OH238410   1.717   5.443   1.269 -0.5193 -0.3558  0.7493
 5592TIP3    H138411   1.700   5.517   1.212 -1.1278 -1.5029 -0.5823
 5592TIP3    H238412   1.717   5.367   1.211 -0.8751 -1.5088  2.2194
 5593TIP3   OH238413   1.065   6.905   1.729  0.3022  0.4491 -0.0158
 5593TIP3    H138414   1.052   6.848   1.804 -0.3559  0.7637  0.1119
 5593TIP3    H238415   1.126   6.972   1.759  0.1293  0.5081  0.2077
 5594TIP3   OH238416   2.593   0.253   1.566  0.5843  0.3987  0.5665
 5594TIP3    H138417   2.517   0.269   1.511 -0.4711 -2.1171  1.2220
 5594TIP3    H238418   2.667   0.288   1.516 -0.8763  2.1600 -0.4278
 5595TIP3   OH238419   2.313   4.348   8.186 -0.2098 -0.5875 -0.0675
 5595TIP3    H138420   2.278   4.389   8.107  0.9284  0.1189 -0.2210
 5595TIP3    H238421   2.287   4.257   8.180 -2.5875  0.0466  0.1586
 5596TIP3   OH238422   3.920   6.021   1.491 -0.5997  0.0286  0.3116
 5596TIP3    H138423   3.972   6.079   1.546  1.4564 -0.0298 -1.5059
 5596TIP3    H238424   3.902   5.945   1.547  0.6217  0.3855  1.1949
 5597TIP3   OH238425   2.625   6.185   1.797 -0.7978  0.0328 -0.4506
 5597TIP3    H138426   2.689   6.162   1.864 -1.5401 -2.2761 -0.4818
 5597TIP3    H238427   2.596   6.273   1.820  1.0187  0.3831  0.6052
 5598TIP3   OH238428   6.341   3.836   1.737  0.1437  0.3166 -0.5977
 5598TIP3    H138429   6.418   3.780   1.723  0.6166  1.2589 -1.8838
 5598TIP3    H238430   6.316   3.819   1.828  1.6784 -0.2498 -0.2481
 5599TIP3   OH238431   1.498   3.599   7.251 -1.0500  0.0468  0.6743
 5599TIP3    H138432   1.451   3.661   7.194 -1.9109 -0.6592  0.6023
 5599TIP3    H238433   1.447   3.519   7.246 -0.0957 -0.5874  1.0011
 5600TIP3   OH238434   0.048   5.945   1.953  0.5128  0.0346 -0.1700
 5600TIP3    H138435   0.068   6.038   1.963  0.4112  0.0066  0.3259
 5600TIP3    H238436  -0.034   5.944   1.904  1.3881  0.1644 -1.6507
 5601TIP3   OH238437   5.223   3.959   1.568 -0.0499  0.2693  0.4175
 5601TIP3    H138438   5.233   4.049   1.535  1.1282  0.3873  1.0779
 5601TIP3    H238439   5.254   3.904   1.496  2.0792  0.5080  1.1293
 5602TIP3   OH238440   6.221   5.846   1.541 -0.0799 -0.0194 -0.3832
 5602TIP3    H138441   6.276   5.770   1.523 -1.5152 -2.0130  3.0843
 5602TIP3    H238442   6.255   5.881   1.623  0.4738  3.0879 -1.8734
 5603TIP3   OH238443   3.619   4.446   1.527  0.0323 -0.4209 -0.0049
 5603TIP3    H138444   3.640   4.373   1.470 -0.1086  1.3496 -2.3942
 5603TIP3    H238445   3.675   4.517   1.497 -0.6616  0.8127  1.5193
 5604TIP3   OH238446   1.731   4.136   6.911 -0.2764  0.1210  0.0357
 5604TIP3    H138447   1.688   4.055   6.936  0.2704 -0.2047 -0.0602
 5604TIP3    H238448   1.765   4.172   6.993  1.2157 -0.7680 -0.1803
 5605TIP3   OH238449   0.896   6.400   0.805  0.0252 -0.0607  0.2454
 5605TIP3    H138450   0.945   6.340   0.748  1.3915  1.3899 -0.1458
 5605TIP3    H238451   0.916   6.371   0.894  2.8998  1.4633  0.1471
 5606TIP3   OH238452   1.936   3.451   0.601  0.0780  0.2956  0.7621
 5606TIP3    H138453   1.976   3.534   0.576 -0.5612 -0.1369 -1.8601
 5606TIP3    H238454   1.996   3.384   0.567 -0.6512 -0.3113  0.6484
 5607TIP3   OH238455   1.745   4.229   1.219 -0.0085 -0.1582  0.3102
 5607TIP3    H138456   1.793   4.236   1.302  1.1762 -1.4524 -0.2397
 5607TIP3    H238457   1.812   4.237   1.152 -0.3098 -3.4416 -0.4586
 5608TIP3   OH238458   2.648   4.145   8.183  0.0657 -0.6240 -1.0530
 5608TIP3    H138459   2.573   4.085   8.177 -0.7112  0.4143 -2.0546
 5608TIP3    H238460   2.613   4.229   8.152  1.8289 -0.2775 -2.1315
 5609TIP3   OH238461   0.844   5.221   1.597  0.3104 -0.0347  0.3748
 5609TIP3    H138462   0.811   5.306   1.569  1.2951  0.7743  1.6122
 5609TIP3    H238463   0.819   5.161   1.527 -0.8689  1.1649 -0.2469
 5610TIP3   OH238464   0.646   5.162   6.854  0.3263  0.4127 -0.0852
 5610TIP3    H138465   0.618   5.254   6.858 -0.4577  0.1318  1.1751
 5610TIP3    H238466   0.593   5.123   6.785 -1.7435  0.1241  1.6138
 5611TIP3   OH238467   2.131   4.091   0.415 -0.5798  0.1873 -0.3083
 5611TIP3    H138468   2.114   4.089   0.509  0.3330 -1.7036 -0.1521
 5611TIP3    H238469   2.173   4.007   0.397  0.8714  1.2499 -2.0999
 5612TIP3   OH238470   5.794   3.245   6.511  0.3079  0.2750  0.2948
 5612TIP3    H138471   5.851   3.290   6.449  0.7786 -1.1136 -0.3073
 5612TIP3    H238472   5.737   3.191   6.455 -0.6958  0.6229  0.9631
 5613TIP3   OH238473   4.480   5.717   7.564  0.6627 -0.3522 -0.0869
 5613TIP3    H138474   4.462   5.801   7.605 -2.8629 -0.6288 -0.9339
 5613TIP3    H238475   4.467   5.732   7.470  0.8254 -1.6398 -0.3294
 5614TIP3   OH238476   1.861   3.669   1.018 -0.2516  0.4268 -0.0847
 5614TIP3    H138477   1.853   3.616   0.938  0.5601 -0.3876  0.3695
 5614TIP3    H238478   1.774   3.663   1.059  0.2081 -1.6487  0.6376
 5615TIP3   OH238479   3.119   6.808   8.048 -0.3520  0.1795 -0.2298
 5615TIP3    H138480   3.214   6.814   8.049 -0.0884 -2.9540 -1.0752
 5615TIP3    H238481   3.094   6.807   8.140  0.5600 -0.3946  0.0207
 5616TIP3   OH238482   4.838   4.535   6.262  0.1853 -1.0792 -0.7135
 5616TIP3    H138483   4.847   4.485   6.181 -0.3344 -0.3374 -1.2316
 5616TIP3    H238484   4.906   4.603   6.255 -1.7980  0.8353 -1.9032
 5617TIP3   OH238485   2.425   3.783   1.312 -0.4286  0.0339  0.1153
 5617TIP3    H138486   2.417   3.689   1.292 -0.0299 -0.0204  0.2162
 5617TIP3    H238487   2.482   3.818   1.244 -0.2080  0.1164  0.3416
 5618TIP3   OH238488   3.724   4.083   7.074  0.2957 -0.4790  0.1184
 5618TIP3    H138489   3.707   4.073   7.168  1.3256  1.9001  0.5721
 5618TIP3    H238490   3.673   4.160   7.048 -0.0987 -1.2059 -1.3192
 5619TIP3   OH238491   2.012   6.234   8.323 -0.4196 -0.3073 -0.2305
 5619TIP3    H138492   2.074   6.292   8.278 -0.5354  0.9155  1.1572
 5619TIP3    H238493   2.010   6.155   8.269  0.8096  0.4293 -1.3881
 5620TIP3   OH238494   3.565   6.382   1.451 -0.2389 -0.0245 -0.3914
 5620TIP3    H138495   3.640   6.405   1.396  0.1543  0.3201  0.2797
 5620TIP3    H238496   3.603   6.364   1.537 -0.4796 -3.4962 -0.9339
 5621TIP3   OH238497   7.121   4.255   7.234 -0.0029 -0.1658 -0.1364
 5621TIP3    H138498   7.128   4.312   7.158  0.2587 -0.6567 -0.4824
 5621TIP3    H238499   7.135   4.313   7.309  3.3619 -0.2944 -0.5956
 5622TIP3   OH238500   3.474   6.176   1.118  0.1794  0.0383 -0.0286
 5622TIP3    H138501   3.475   6.208   1.208 -0.2099 -2.6164  0.9607
 5622TIP3    H238502   3.397   6.216   1.079 -0.2921  0.2986  1.1559
 5623TIP3   OH238503   3.141   5.205   1.832  0.0762 -0.3543 -0.0929
 5623TIP3    H138504   3.119   5.212   1.924  0.7004 -1.4873  0.1571
 5623TIP3    H238505   3.133   5.294   1.798 -2.6072 -0.3417  0.4820
 5624TIP3   OH238506   2.748   1.008   0.399  0.2344 -0.2737 -0.5406
 5624TIP3    H138507   2.685   1.080   0.404 -2.1091 -2.2232 -0.5940
 5624TIP3    H238508   2.833   1.049   0.408 -0.9604  2.6527 -1.8392
 5625TIP3   OH238509   2.538   4.972   0.887  0.1771 -0.0312  0.3047
 5625TIP3    H138510   2.568   4.929   0.807  0.2825 -1.0479  0.8875
 5625TIP3    H238511   2.504   5.057   0.857  1.8732  0.3482 -0.5883
 5626TIP3   OH238512   1.924   3.827   0.327 -0.3848  0.2324  0.4189
 5626TIP3    H138513   1.847   3.770   0.324 -0.2596 -0.0137  1.4534
 5626TIP3    H238514   1.897   3.901   0.382  0.2341 -0.0549  1.1227
 5627TIP3   OH238515   2.686   3.871   7.422 -0.5834  0.2784 -0.0525
 5627TIP3    H138516   2.602   3.826   7.434 -0.5436  0.3139  0.3795
 5627TIP3    H238517   2.662   3.961   7.399 -0.6984 -0.7889 -4.5167
 5628TIP3   OH238518   3.565   4.967   1.483  0.2975 -0.2251  0.3055
 5628TIP3    H138519   3.536   4.910   1.411 -0.9517 -0.3805  0.9121
 5628TIP3    H238520   3.501   5.038   1.483  0.8937  0.3027  0.6140
 5629TIP3   OH238521   2.814   6.603   0.542 -0.1716 -0.1299 -0.3209
 5629TIP3    H138522   2.852   6.601   0.630 -0.6678  0.4058 -0.0952
 5629TIP3    H238523   2.809   6.511   0.516  0.4616 -0.2588 -0.0015
 5630TIP3   OH238524   1.815   1.008   1.115 -0.1993 -0.0607  0.3177
 5630TIP3    H138525   1.883   1.068   1.146  0.8276 -0.7505 -0.5396
 5630TIP3    H238526   1.831   0.927   1.164  0.8024 -0.8292 -1.2132
 5631TIP3   OH238527   3.176   3.558   8.009  0.8413  0.5796 -0.1193
 5631TIP3    H138528   3.206   3.569   8.099  0.3887 -0.8721  0.2302
 5631TIP3    H238529   3.205   3.637   7.963  3.1052  0.2574  0.7394
 5632TIP3   OH238530   4.250   4.065   6.293 -0.1279 -0.1123 -0.1214
 5632TIP3    H138531   4.165   4.021   6.295 -2.6571  4.4008 -1.3594
 5632TIP3    H238532   4.275   4.064   6.201  0.3591 -0.0141  0.0126
 5633TIP3   OH238533   5.881   5.064   8.298 -0.5001 -0.1549  0.5342
 5633TIP3    H138534   5.952   5.004   8.276  0.6985  1.0212  1.1737
 5633TIP3    H238535   5.921   5.131   8.353 -1.8277  1.2337 -0.1374
 5634TIP3   OH238536   1.352   7.229   0.212  0.4850  0.5270  0.3124
 5634TIP3    H138537   1.262   7.216   0.183  0.3587  0.2805  0.8195
 5634TIP3    H238538   1.357   7.185   0.297  1.4401 -0.6362 -0.3255
 5635TIP3   OH238539   2.115   5.910   2.317 -0.2078 -0.3873 -0.3924
 5635TIP3    H138540   2.051   5.877   2.379  0.0654 -0.5554 -0.1981
 5635TIP3    H238541   2.091   5.869   2.234  0.6170 -1.7418  0.0105
 5636TIP3   OH238542   3.165   6.656   0.651  0.3917  0.0091 -0.2887
 5636TIP3    H138543   3.216   6.581   0.681 -0.2080  0.2971  1.5449
 5636TIP3    H238544   3.076   6.637   0.681  0.5579  2.2450  1.7425
 5637TIP3   OH238545   2.374   0.009   0.357  0.7629  0.0716 -0.0533
 5637TIP3    H138546   2.292  -0.028   0.322  1.2884  0.4417 -1.7010
 5637TIP3    H238547   2.347   0.092   0.397  0.4222  0.5057 -1.1578
 5638TIP3   OH238548   4.087   6.890   0.700 -0.4854 -0.6010  0.5806
 5638TIP3    H138549   4.088   6.965   0.758 -0.9169 -1.1218  1.2747
 5638TIP3    H238550   4.131   6.920   0.620 -0.2577  0.2395  1.0204
 5639TIP3   OH238551   6.979   6.002   0.338  0.1984 -0.6928  0.4489
 5639TIP3    H138552   6.940   5.915   0.327 -0.7017 -0.2586  0.1940
 5639TIP3    H238553   7.008   6.003   0.430 -2.2833 -0.2629  1.2461
 5640TIP3   OH238554   4.231   7.224   1.131  0.1918  0.3554  0.4496
 5640TIP3    H138555   4.275   7.171   1.197 -1.5966 -1.1171  0.5135
 5640TIP3    H238556   4.284   7.213   1.052 -0.3697 -1.9407  0.3411
 5641TIP3   OH238557   1.791   6.844   2.241 -0.2622  0.1714 -0.3657
 5641TIP3    H138558   1.744   6.877   2.165  1.9890 -0.2880 -1.9835
 5641TIP3    H238559   1.881   6.871   2.229  0.6931 -2.2997  0.7116
 5642TIP3   OH238560   0.199   3.854   1.862  0.1063 -0.0773 -0.2576
 5642TIP3    H138561   0.171   3.878   1.773 -0.4441 -0.8537 -0.3040
 5642TIP3    H238562   0.124   3.807   1.898 -0.6043  2.2692  1.4720
 5643TIP3   OH238563   6.420   3.807   1.165 -0.4964 -0.0617 -0.3946
 5643TIP3    H138564   6.442   3.775   1.078  1.5654  0.8592 -0.2430
 5643TIP3    H238565   6.467   3.750   1.225 -0.9505  0.0438  0.0644
 5644TIP3   OH238566   6.387   2.418   1.046 -0.0181  0.0995  0.4119
 5644TIP3    H138567   6.355   2.508   1.039  1.1297  0.4952  0.1621
 5644TIP3    H238568   6.308   2.366   1.059 -0.8640  0.9584 -1.0571
 5645TIP3   OH238569   3.746   4.886   2.121 -0.4969  0.6178  0.4136
 5645TIP3    H138570   3.710   4.866   2.207  0.7839 -2.1096  0.3536
 5645TIP3    H238571   3.670   4.909   2.067 -1.4045  1.3596  1.9816
 5646TIP3   OH238572   4.138   6.091   7.104  0.3561 -0.1667 -0.1922
 5646TIP3    H138573   4.151   6.156   7.173  0.8352 -0.1006 -0.3461
 5646TIP3    H238574   4.209   6.106   7.043 -0.2173 -0.0472 -0.8398
 5647TIP3   OH238575   1.001   6.081   6.977 -0.0330 -0.1063  0.3111
 5647TIP3    H138576   1.085   6.125   6.970  0.7517 -1.6799 -0.2011
 5647TIP3    H238577   1.009   6.024   7.053 -0.1413 -1.2889 -0.5423
 5648TIP3   OH238578   4.404   4.902   1.628  0.0315 -0.0679  0.6273
 5648TIP3    H138579   4.440   4.817   1.654 -0.0020  0.5461  2.7023
 5648TIP3    H238580   4.317   4.904   1.666  0.5221  1.4324  1.7220
 5649TIP3   OH238581   6.049   5.651   0.444  0.1202  0.1611  0.0179
 5649TIP3    H138582   6.028   5.657   0.350 -0.3769  2.0201  0.2335
 5649TIP3    H238583   5.979   5.699   0.487  1.8479  1.6816  1.1613
 5650TIP3   OH238584   3.588   1.901   6.629  0.3532 -0.4281  0.3449
 5650TIP3    H138585   3.660   1.934   6.576  0.5086 -0.6921  0.3915
 5650TIP3    H238586   3.542   1.979   6.660 -1.2250 -0.2927 -2.2182
 5651TIP3   OH238587   0.965   4.250   7.614  0.4445  0.1672 -0.4293
 5651TIP3    H138588   0.988   4.224   7.525  0.2840  0.1607 -0.4679
 5651TIP3    H238589   0.884   4.204   7.633  1.8738 -1.9853  0.7057
 5652TIP3   OH238590   6.692   5.040   0.132  0.0819 -0.1635 -0.0222
 5652TIP3    H138591   6.688   4.993   0.049 -0.1640 -0.1608 -0.0116
 5652TIP3    H238592   6.708   5.131   0.107 -0.0841 -0.1464 -0.0737
 5653TIP3   OH238593   3.967   6.211   0.387 -0.1182  0.6786 -0.2125
 5653TIP3    H138594   3.916   6.154   0.330  0.1758  1.7347 -1.5434
 5653TIP3    H238595   3.995   6.283   0.331 -0.3173  2.0404  1.3981
 5654TIP3   OH238596   2.099   7.157   2.384  0.1595 -0.1149  0.0090
 5654TIP3    H138597   2.141   7.073   2.362  0.9556  0.4198 -0.5482
 5654TIP3    H238598   2.168   7.222   2.371 -0.0821  0.4978  1.6969
 5655TIP3   OH238599   0.538   6.515   8.360  0.5481  0.2040 -0.6800
 5655TIP3    H138600   0.561   6.422   8.357  0.1915  0.1335 -1.2915
 5655TIP3    H238601   0.582   6.548   8.438  0.4506 -0.5415 -0.3007
 5656TIP3   OH238602   5.928   6.954   0.800 -0.3608  0.3692 -0.1207
 5656TIP3    H138603   5.946   6.945   0.707 -2.2941 -0.2472 -0.4600
 5656TIP3    H238604   6.012   6.938   0.843  0.8379  1.9459 -1.8031
 5657TIP3   OH238605   1.734   4.293   8.274  0.2984  0.5618  0.7358
 5657TIP3    H138606   1.821   4.331   8.289 -0.4266  2.0690  1.2128
 5657TIP3    H238607   1.678   4.368   8.254 -0.7790 -0.4583 -0.1829
 5658TIP3   OH238608   3.377   1.197   1.005  0.1210 -0.7721 -0.2286
 5658TIP3    H138609   3.336   1.247   1.076 -1.2604  1.8139 -2.7331
 5658TIP3    H238610   3.449   1.252   0.975  0.2570 -1.5010 -1.2604
 5659TIP3   OH238611   1.564   4.057   1.712 -0.2454 -0.4750 -0.2191
 5659TIP3    H138612   1.519   4.135   1.746 -0.7125 -0.7738 -0.1458
 5659TIP3    H238613   1.607   4.088   1.632 -0.6116 -0.1922 -0.3111
 5660TIP3   OH238614   0.359   5.808   8.140 -0.4652  0.3384  0.5770
 5660TIP3    H138615   0.436   5.763   8.175 -0.4152  0.4772  0.6453
 5660TIP3    H238616   0.387   5.838   8.053 -0.5769  0.0284  0.4285
 5661TIP3   OH238617   5.391   4.830   0.134  0.1779 -0.3997  0.7223
 5661TIP3    H138618   5.342   4.754   0.163  1.3631 -1.6023 -0.3285
 5661TIP3    H238619   5.481   4.812   0.159  0.9092 -0.5793 -1.8598
 5662TIP3   OH238620   3.110   3.666   7.291 -0.0776  0.0596  0.2949
 5662TIP3    H138621   3.020   3.647   7.315 -0.1162 -0.4601 -0.2599
 5662TIP3    H238622   3.108   3.678   7.196  0.4811 -0.2384  0.2421
 5663TIP3   OH238623   3.457   4.633   1.819  0.4129  0.1746  0.0356
 5663TIP3    H138624   3.409   4.569   1.871 -0.8391  0.0047 -1.3060
 5663TIP3    H238625   3.393   4.702   1.800  1.5636  1.5222  0.9103
 5664TIP3   OH238626   3.120   4.173   1.322  0.0355  0.2513  0.7734
 5664TIP3    H138627   3.091   4.092   1.279  0.5882 -0.3024  1.4296
 5664TIP3    H238628   3.181   4.213   1.261 -1.1234  0.7789 -0.0679
 5665TIP3   OH238629   2.771   5.552   0.795  0.3063 -0.2911  0.3894
 5665TIP3    H138630   2.855   5.536   0.836  0.5827  1.1671  0.4087
 5665TIP3    H238631   2.706   5.520   0.858  0.8665 -2.6897 -0.2161
 5666TIP3   OH238632   4.453   2.934   0.908  0.2112  0.0678 -0.1725
 5666TIP3    H138633   4.517   2.865   0.888  0.2382  0.0393  0.0102
 5666TIP3    H238634   4.484   2.972   0.990  0.0977  0.1804 -0.1822
 5667TIP3   OH238635   0.443   4.167   7.387 -0.1228 -0.1538 -0.1671
 5667TIP3    H138636   0.413   4.245   7.340 -0.0446 -0.8845 -1.4595
 5667TIP3    H238637   0.537   4.163   7.369 -0.0466 -0.2832  0.2673
 5668TIP3   OH238638   7.179   3.940   1.255 -0.2119  0.5627 -0.1416
 5668TIP3    H138639   7.113   3.912   1.318 -1.9096  1.0827 -1.6569
 5668TIP3    H238640   7.174   3.876   1.185  1.2814  0.3038 -0.0320
 5669TIP3   OH238641   4.085   4.732   1.059  0.1004  0.1256  0.2972
 5669TIP3    H138642   4.096   4.649   1.106 -0.3113  0.2731  0.6572
 5669TIP3    H238643   4.017   4.779   1.108  0.2854  0.6496  0.0591
 5670TIP3   OH238644   4.333   2.523   2.001  0.2538 -0.0617  0.6695
 5670TIP3    H138645   4.399   2.572   2.051 -0.6413  1.3464  0.5024
 5670TIP3    H238646   4.267   2.501   2.066  0.6023 -0.9727  0.7204
 5671TIP3   OH238647   3.464   4.718   2.113  0.4243 -0.5174 -0.0011
 5671TIP3    H138648   3.523   4.718   2.188 -1.3506 -0.1879  1.4276
 5671TIP3    H238649   3.497   4.648   2.057  2.3564 -0.1243  0.6009
 5672TIP3   OH238650   5.196   5.526   8.330 -0.0949  0.2912 -0.0556
 5672TIP3    H138651   5.115   5.476   8.338 -0.5380  0.9918 -0.1134
 5672TIP3    H238652   5.252   5.491   8.400 -0.7124  0.3005  0.4526
 5673TIP3   OH238653   1.853   6.918   1.773 -0.4476  0.1614 -0.1084
 5673TIP3    H138654   1.783   6.867   1.813  1.4209 -1.2474  1.5385
 5673TIP3    H238655   1.907   6.946   1.847  1.8695 -0.6085 -1.4454
 5674TIP3   OH238656   0.959   4.404   8.200  0.2184  0.0463  0.2041
 5674TIP3    H138657   0.955   4.361   8.285 -0.8514  0.2760  0.2835
 5674TIP3    H238658   1.017   4.479   8.213 -1.9461  1.5564  1.4210
 5675TIP3   OH238659   3.009   5.233   2.087  0.3622  0.8053  0.0610
 5675TIP3    H138660   2.917   5.230   2.113  0.5211  1.8517  0.7854
 5675TIP3    H238661   3.031   5.326   2.087  1.3246  0.5889 -0.4663
 5676TIP3   OH238662   4.605   1.928   0.390 -0.9246  0.0769 -0.0834
 5676TIP3    H138663   4.700   1.918   0.381 -0.3863  0.3507  4.1234
 5676TIP3    H238664   4.577   1.968   0.308  2.2813 -1.8597 -2.2266
 5677TIP3   OH238665   1.947   6.286   1.927  0.0468 -0.7913  0.5087
 5677TIP3    H138666   1.983   6.345   1.992 -0.0247  0.3374 -0.4628
 5677TIP3    H238667   1.922   6.208   1.977  0.7129 -0.2584  1.6977
 5678TIP3   OH238668   4.612   4.724   8.184 -0.0993 -0.4417 -0.2157
 5678TIP3    H138669   4.671   4.799   8.177  0.1446 -0.6205 -0.0502
 5678TIP3    H238670   4.534   4.760   8.227 -0.3373 -0.0763 -0.9536
 5679TIP3   OH238671   2.934   3.111   7.365 -0.5792 -0.3549  0.1802
 5679TIP3    H138672   2.930   3.079   7.276 -2.5134 -0.6160  0.3288
 5679TIP3    H238673   2.842   3.113   7.394 -0.0325  0.2259  1.9665
 5680TIP3   OH238674   4.454   4.841   7.909  0.0797  0.1141  0.0337
 5680TIP3    H138675   4.461   4.881   7.823 -1.0765 -1.8573 -1.0122
 5680TIP3    H238676   4.392   4.769   7.898  1.4890 -1.5020  2.0028
 5681TIP3   OH238677   4.317   3.590   1.695 -0.4758  0.5012  0.4301
 5681TIP3    H138678   4.401   3.545   1.698 -0.9127 -0.3741 -0.2435
 5681TIP3    H238679   4.283   3.571   1.607 -0.7499  1.9956  0.1872
 5682TIP3   OH238680   0.144   6.563   6.827 -0.1010 -0.1862 -0.1728
 5682TIP3    H138681   0.103   6.640   6.866 -0.7790 -0.3947 -0.4657
 5682TIP3    H238682   0.134   6.575   6.733 -2.1379 -1.6493 -0.1894
 5683TIP3   OH238683   4.459   4.126   1.146 -0.1574 -0.0468 -0.1091
 5683TIP3    H138684   4.410   4.090   1.220 -0.5231  1.8429  0.6209
 5683TIP3    H238685   4.426   4.216   1.137 -0.4675 -0.4092 -2.9177
 5684TIP3   OH238686   4.668   5.326   0.992 -0.2099  0.5553  0.3931
 5684TIP3    H138687   4.615   5.330   0.912  0.9522 -0.0328 -0.4144
 5684TIP3    H238688   4.607   5.292   1.058 -0.6665 -0.8732 -0.7158
 5685TIP3   OH238689   1.595   6.112   1.593 -1.0343  0.3019  0.0293
 5685TIP3    H138690   1.601   6.053   1.518 -2.9534  1.1213 -0.8089
 5685TIP3    H238691   1.669   6.171   1.584  0.4049 -1.4137  0.3941
 5686TIP3   OH238692   2.481   0.308   7.606 -0.0780  0.4492  0.3523
 5686TIP3    H138693   2.554   0.267   7.558 -0.0415  0.1497  0.6638
 5686TIP3    H238694   2.403   0.272   7.565 -0.0404 -0.5538  1.1654
 5687TIP3   OH238695   3.373   6.364   2.464  0.0619 -0.3808 -0.1011
 5687TIP3    H138696   3.350   6.455   2.444 -1.8282 -1.4310 -2.9327
 5687TIP3    H238697   3.458   6.352   2.422 -0.9214 -0.6725 -2.0617
 5688TIP3   OH238698   1.635   5.461   7.674  0.3051  0.0289 -0.1065
 5688TIP3    H138699   1.704   5.437   7.612 -1.1351  0.7077 -1.9815
 5688TIP3    H238700   1.595   5.377   7.698  1.8566 -0.3908  1.1231
 5689TIP3   OH238701   6.632   0.356   1.342 -0.0625 -0.1565  0.2140
 5689TIP3    H138702   6.550   0.404   1.329  0.6711  1.4897  1.5119
 5689TIP3    H238703   6.614   0.300   1.418 -0.0556  0.0136  0.3403
 5690TIP3   OH238704   1.790   4.367   7.331 -0.3295 -0.0140  0.2441
 5690TIP3    H138705   1.812   4.281   7.295 -0.2735  0.6758 -1.4118
 5690TIP3    H238706   1.874   4.404   7.359  0.1329  0.9182 -2.2671
 5691TIP3   OH238707   2.283   4.647   1.674 -0.4250  0.5486  0.0604
 5691TIP3    H138708   2.336   4.726   1.667 -1.5634  1.3400  0.1927
 5691TIP3    H238709   2.309   4.594   1.600 -0.3541  1.4846 -0.5932
 5692TIP3   OH238710   3.657   4.586   1.172 -0.2772 -0.4216  0.2417
 5692TIP3    H138711   3.635   4.501   1.134  0.2834 -0.3351 -0.2874
 5692TIP3    H238712   3.573   4.621   1.202 -0.3887 -1.5497  1.2848
 5693TIP3   OH238713   7.093   6.348   2.335 -0.1752  0.2388 -0.4518
 5693TIP3    H138714   7.053   6.428   2.371 -1.4402  0.3399 -2.0364
 5693TIP3    H238715   7.020   6.287   2.326  0.0505  0.3480 -3.1935
 5694TIP3   OH238716   3.665   5.092   2.706  0.2334  0.1237 -0.6844
 5694TIP3    H138717   3.588   5.150   2.703  0.0021 -0.1606 -0.3793
 5694TIP3    H238718   3.679   5.077   2.800  2.0939  2.0576 -0.6247
 5695TIP3   OH238719   4.485   3.530   7.671 -0.0651  0.8107  0.3222
 5695TIP3    H138720   4.558   3.474   7.696 -1.9720 -1.3882  1.1178
 5695TIP3    H238721   4.475   3.590   7.746  0.4165  0.5908  0.5630
 5696TIP3   OH238722   1.553   3.931   1.223 -0.3347  0.5142 -0.3509
 5696TIP3    H138723   1.600   3.863   1.176 -0.0023 -0.2719  1.0931
 5696TIP3    H238724   1.620   3.996   1.244 -0.3934  0.6423 -0.5615
 5697TIP3   OH238725   1.790   3.369   1.181 -0.6344 -0.6488  0.4017
 5697TIP3    H138726   1.770   3.280   1.209  0.1321 -0.7107  0.7774
 5697TIP3    H238727   1.738   3.382   1.102 -0.2892 -1.6476  0.0022
 5698TIP3   OH238728   1.972   5.366   1.627  0.5669 -0.2826  0.3325
 5698TIP3    H138729   1.951   5.373   1.720 -1.1753  1.9816 -0.1679
 5698TIP3    H238730   2.033   5.293   1.621 -1.6105 -2.3900  2.8548
 5699TIP3   OH238731   1.359   4.154   1.242  0.2783  0.1406  0.3979
 5699TIP3    H138732   1.414   4.210   1.187  1.0417  0.4598  1.4691
 5699TIP3    H238733   1.385   4.065   1.218  0.9659  0.2845  0.6016
 5700TIP3   OH238734   3.074   5.654   2.344 -0.4192  0.2342  0.7360
 5700TIP3    H138735   3.040   5.732   2.301 -1.2388 -0.2856  0.4214
 5700TIP3    H238736   3.046   5.582   2.288 -1.7106 -0.4863  2.2556
 5701TIP3   OH238737   1.682   6.175   1.196  0.2946 -0.4320  0.0899
 5701TIP3    H138738   1.731   6.253   1.170 -0.2693  0.3231  1.2625
 5701TIP3    H238739   1.723   6.147   1.277 -1.3215  0.3423  1.2137
 5702TIP3   OH238740   5.226   4.852   7.099 -0.4178  0.3421 -0.5377
 5702TIP3    H138741   5.212   4.764   7.064 -1.8469  0.1631  0.4448
 5702TIP3    H238742   5.321   4.862   7.103 -0.2587 -0.6605 -1.8897
 5703TIP3   OH238743   2.446   3.518   2.368  0.3574 -0.5313  0.1756
 5703TIP3    H138744   2.378   3.455   2.391  0.2028 -0.8460 -1.1260
 5703TIP3    H238745   2.515   3.504   2.434  0.0249 -1.5708  0.2995
 5704TIP3   OH238746   4.530   6.205   1.386 -0.1981 -0.0348 -0.4303
 5704TIP3    H138747   4.621   6.214   1.355  0.1608 -1.5310  0.1522
 5704TIP3    H238748   4.477   6.223   1.308  0.6591 -2.1136 -1.5422
 5705TIP3   OH238749   4.143   6.097   1.250  0.1585  0.1873 -0.5294
 5705TIP3    H138750   4.138   6.112   1.344 -1.3573 -2.4777 -0.1334
 5705TIP3    H238751   4.237   6.087   1.232  0.3704 -0.7191  0.9651
 5706TIP3   OH238752   3.670   5.551   6.552 -0.2290 -0.0200 -0.1652
 5706TIP3    H138753   3.581   5.516   6.548 -0.5212  0.8105 -1.1431
 5706TIP3    H238754   3.727   5.474   6.540 -0.8115 -0.5303  0.3124
 5707TIP3   OH238755   2.711   7.028   7.238 -0.2853 -0.4147  0.1042
 5707TIP3    H138756   2.773   6.977   7.291  0.5370 -0.2099 -0.6403
 5707TIP3    H238757   2.656   7.073   7.302  0.0173 -0.9935  0.7759
 5708TIP3   OH238758   3.685   7.245   8.437 -0.5551  0.0610  0.7231
 5708TIP3    H138759   3.686   7.317   8.501 -0.2834  0.7752 -0.0734
 5708TIP3    H238760   3.593   7.237   8.412 -0.4323  0.9374 -0.0639
 5709TIP3   OH238761   6.558   4.222   0.980  0.0477 -0.2503 -0.6081
 5709TIP3    H138762   6.553   4.128   0.968  0.8769 -0.3491 -0.2874
 5709TIP3    H238763   6.540   4.259   0.894  2.1501 -0.7988 -1.3314
 5710TIP3   OH238764   3.261   6.180   1.418  0.2391 -0.5119 -0.0381
 5710TIP3    H138765   3.276   6.097   1.463 -3.2837 -1.8497 -1.2285
 5710TIP3    H238766   3.248   6.243   1.488 -0.0807 -1.5625  0.8553
 5711TIP3   OH238767   2.594   1.889   1.311 -0.0861  0.2554 -0.0550
 5711TIP3    H138768   2.534   1.912   1.240  2.3001 -1.1686 -2.6748
 5711TIP3    H238769   2.656   1.962   1.314 -1.2737  1.2192  1.9187
 5712TIP3   OH238770   1.748   6.804   0.563 -1.0307  0.3192 -0.3019
 5712TIP3    H138771   1.707   6.791   0.649 -2.1913  0.4636 -0.8221
 5712TIP3    H238772   1.824   6.859   0.581 -0.8110 -0.3101  0.7424
 5713TIP3   OH238773   2.326   6.692   0.603 -0.1531  0.2982 -0.4168
 5713TIP3    H138774   2.242   6.694   0.559 -1.1556 -1.0834  1.3522
 5713TIP3    H238775   2.312   6.743   0.683  0.3548 -0.8603  0.4252
 5714TIP3   OH238776   3.359   4.975   1.280  0.1478 -0.2720 -0.3587
 5714TIP3    H138777   3.278   5.024   1.268  0.9485  0.8468 -1.3232
 5714TIP3    H238778   3.394   4.964   1.191  2.9354  2.5703  0.2822
 5715TIP3   OH238779   2.727   5.056   1.099  0.6284  0.0685 -0.1518
 5715TIP3    H138780   2.651   5.061   1.041 -0.0037 -1.9089  0.4570
 5715TIP3    H238781   2.797   5.022   1.043  0.1588 -1.3256  0.0790
 5716TIP3   OH238782   1.439   4.471   7.029  0.7136  0.0697 -0.1028
 5716TIP3    H138783   1.515   4.521   7.059  0.7944 -0.0627 -0.0869
 5716TIP3    H238784   1.470   4.423   6.952  0.8127 -0.4405  0.2521
 5717TIP3   OH238785   0.630   6.222   8.478 -0.1426 -0.6991  0.0477
 5717TIP3    H138786   0.663   6.205   8.566 -0.6215  1.9822  0.7783
 5717TIP3    H238787   0.536   6.236   8.490 -0.4853 -1.8448 -1.1234
 5718TIP3   OH238788   3.744   3.601   2.360 -0.6789  0.1402  0.2472
 5718TIP3    H138789   3.819   3.556   2.399 -0.1693  1.4095  0.7548
 5718TIP3    H238790   3.726   3.674   2.420 -1.8966  0.2416 -0.2237
 5719TIP3   OH238791   3.610   6.061   0.010  1.0113  0.0548  0.3985
 5719TIP3    H138792   3.662   6.125  -0.040  0.3697 -0.1840 -0.5889
 5719TIP3    H238793   3.520   6.088  -0.005  0.7919 -0.3764  0.9613
 5720TIP3   OH238794   1.976   5.045   1.740 -0.4955 -0.5002 -0.2477
 5720TIP3    H138795   1.983   5.132   1.778 -1.7266 -1.0947  1.4198
 5720TIP3    H238796   2.057   5.001   1.764 -0.6774 -0.4182  0.5325
 5721TIP3   OH238797   0.834   4.204   0.708  0.6736  0.1009  0.5891
 5721TIP3    H138798   0.741   4.220   0.697  0.1632 -2.5441  0.7106
 5721TIP3    H238799   0.856   4.244   0.792 -0.6828 -0.6380  1.3018
 5722TIP3   OH238800   2.895   2.602   1.160 -0.0824  0.4672 -0.2457
 5722TIP3    H138801   2.904   2.653   1.080 -0.1106  0.3641 -0.3154
 5722TIP3    H238802   2.947   2.523   1.144 -0.6427  0.1270 -0.4346
 5723TIP3   OH238803   2.818   4.676   6.942 -0.4132  0.3821  0.1334
 5723TIP3    H138804   2.888   4.741   6.939 -0.1331  0.0415 -1.1373
 5723TIP3    H238805   2.740   4.727   6.963 -0.0755  1.0280 -0.1299
 5724TIP3   OH238806   2.951   6.283   2.499  0.3875  0.4163  0.4193
 5724TIP3    H138807   2.911   6.223   2.436 -0.2640  1.7029 -0.4125
 5724TIP3    H238808   3.023   6.233   2.537  0.2411 -0.6794 -0.7106
 5725TIP3   OH238809   3.604   4.547   6.724  0.0538  0.0243  0.0678
 5725TIP3    H138810   3.534   4.565   6.787 -0.8545 -0.2833 -0.8550
 5725TIP3    H238811   3.685   4.567   6.772 -0.5717 -1.2431  1.7068
 5726TIP3   OH238812   1.064   3.670   1.936 -0.2643 -0.1528  0.2998
 5726TIP3    H138813   1.031   3.693   1.850 -1.1927 -1.0728  0.3966
 5726TIP3    H238814   1.019   3.730   1.996  0.0772  0.2167  0.1870
 5727TIP3   OH238815   2.824   3.463   7.463 -0.0461 -0.2839  0.0738
 5727TIP3    H138816   2.742   3.441   7.420 -0.7270  0.3900  1.0174
 5727TIP3    H238817   2.853   3.544   7.420 -0.9179  0.5963  1.1349
 5728TIP3   OH238818   7.131   6.439   1.318  0.4485  0.6923 -0.2296
 5728TIP3    H138819   7.198   6.483   1.266 -0.4940  1.1661 -1.0562
 5728TIP3    H238820   7.092   6.375   1.259  1.3254 -0.7953  0.7579
 5729TIP3   OH238821   2.346   4.354   2.265  0.2385 -0.0132  0.1344
 5729TIP3    H138822   2.366   4.439   2.226  1.5298  0.1821  1.1772
 5729TIP3    H238823   2.409   4.294   2.225  0.2797 -0.1897  0.4609
 5730TIP3   OH238824   2.776   6.410   0.907 -0.0826 -0.0232  0.7164
 5730TIP3    H138825   2.732   6.475   0.962  0.5059 -0.5220  1.7995
 5730TIP3    H238826   2.705   6.351   0.878 -0.3790  0.1687  1.0481
 5731TIP3   OH238827   3.780   4.290   8.131 -0.3061  0.4480  0.5964
 5731TIP3    H138828   3.750   4.204   8.101  0.1429  0.4050  0.2659
 5731TIP3    H238829   3.874   4.279   8.144 -0.3963  0.6404  1.4316
 5732TIP3   OH238830   2.504   3.037   7.092  0.4479  0.4486 -0.2445
 5732TIP3    H138831   2.416   3.074   7.102  0.7471  0.8500  0.9295
 5732TIP3    H238832   2.562   3.112   7.096  1.0769 -0.1306  2.3757
 5733TIP3   OH238833   6.817   4.616   8.485 -0.6967 -0.4677 -0.4371
 5733TIP3    H138834   6.760   4.553   8.441 -3.5345  2.0334 -0.4855
 5733TIP3    H238835   6.833   4.684   8.419  0.6021 -0.0640  0.2766
 5734TIP3   OH238836   3.322   5.760   1.994  0.5753  0.3392  0.6844
 5734TIP3    H138837   3.298   5.850   1.973 -2.5810 -1.0226 -2.0753
 5734TIP3    H238838   3.377   5.731   1.921 -0.8082 -0.8209  0.0703
 5735TIP3   OH238839   2.611   2.120   8.060  0.1481 -0.0670  0.4414
 5735TIP3    H138840   2.533   2.075   8.026 -0.7130  0.8529  1.1622
 5735TIP3    H238841   2.663   2.140   7.982 -0.4645 -0.4756 -0.0771
 5736TIP3   OH238842   4.510   4.483   2.905 -0.0269  0.6933  0.4627
 5736TIP3    H138843   4.533   4.565   2.861 -0.3744 -0.1426 -1.2981
 5736TIP3    H238844   4.422   4.463   2.874  0.0994 -0.4164  0.7945
 5737TIP3   OH238845   0.030   6.335   0.244  0.0940  0.1085  0.0044
 5737TIP3    H138846   0.085   6.388   0.186 -0.1814 -0.0452 -0.3951
 5737TIP3    H238847  -0.011   6.271   0.187 -1.0405  0.6583  0.1809
 5738TIP3   OH238848   2.914   5.594   1.050  0.3669  0.1399  0.6335
 5738TIP3    H138849   2.900   5.572   1.142  0.8921  0.3511  0.7687
 5738TIP3    H238850   2.970   5.524   1.016  0.4768  0.2575  0.5712
 5739TIP3   OH238851   1.568   0.302   1.397 -0.0831 -0.1016 -0.0719
 5739TIP3    H138852   1.617   0.270   1.472 -0.9401 -0.4366  0.3403
 5739TIP3    H238853   1.605   0.256   1.322  2.4499  2.0120 -0.1940
 5740TIP3   OH238854   5.210   7.030   0.734  0.4172 -0.1240 -0.0312
 5740TIP3    H138855   5.235   6.939   0.721 -1.3224 -0.6224  0.0398
 5740TIP3    H238856   5.251   7.077   0.661  1.4957 -0.9147  0.0535
 5741TIP3   OH238857   7.195   6.208   7.224  0.4635  0.2491 -0.0018
 5741TIP3    H138858   7.140   6.131   7.211 -0.4926  0.7058  1.2401
 5741TIP3    H238859   7.219   6.236   7.135 -0.4609 -0.5531 -0.5098
 5742TIP3   OH238860   3.192   4.191   0.710  0.0733  0.0581  0.4144
 5742TIP3    H138861   3.251   4.131   0.756 -3.2319 -2.7684  1.2075
 5742TIP3    H238862   3.211   4.177   0.617 -0.4116 -2.0049  0.6040
 5743TIP3   OH238863   4.468   6.988   1.560 -0.3105  0.0316  0.1181
 5743TIP3    H138864   4.424   6.909   1.592 -1.6260  0.3993 -0.7760
 5743TIP3    H238865   4.447   7.055   1.624 -0.9572  0.1785 -0.2470
 5744TIP3   OH238866   2.707   1.703   0.993 -0.5125 -0.2348  0.0294
 5744TIP3    H138867   2.746   1.783   0.960 -0.6128 -0.9227 -1.7987
 5744TIP3    H238868   2.614   1.723   1.002 -0.7131 -0.4872 -1.4799
 5745TIP3   OH238869   1.664   0.123   0.818 -0.1209  0.4824  0.1455
 5745TIP3    H138870   1.688   0.091   0.905 -0.6638  0.0022  0.1223
 5745TIP3    H238871   1.626   0.047   0.774 -0.7668  0.9735 -0.1613
 5746TIP3   OH238872   3.459   6.594   1.652 -0.2215 -0.3261 -0.1266
 5746TIP3    H138873   3.452   6.514   1.600 -0.8574 -1.5473  1.7704
 5746TIP3    H238874   3.553   6.611   1.657  0.0152 -1.7335  0.5675
 5747TIP3   OH238875   4.252   7.309   8.423 -0.2396  0.1471  0.6645
 5747TIP3    H138876   4.279   7.294   8.332 -0.6109  1.4328  0.3302
 5747TIP3    H238877   4.251   7.222   8.462 -1.1953 -0.5743 -0.8927
 5748TIP3   OH238878   3.122   3.977   6.247 -0.3682  0.2138  0.8477
 5748TIP3    H138879   3.120   3.995   6.341  0.0737  4.3358  0.1638
 5748TIP3    H238880   3.030   3.979   6.220 -0.4120  0.3445  1.0001
 5749TIP3   OH238881   2.920   4.429   6.873  0.2493  0.2407  0.7234
 5749TIP3    H138882   2.907   4.484   6.796  2.1642  0.2575  0.3844
 5749TIP3    H238883   2.857   4.462   6.937 -2.4621 -0.7592 -1.3043
 5750TIP3   OH238884   1.972   6.244   0.906  0.0251  0.4972 -0.1504
 5750TIP3    H138885   1.999   6.248   0.997 -1.0477 -3.0965  0.4116
 5750TIP3    H238886   1.895   6.302   0.901 -1.3520 -1.0826  1.8416
 5751TIP3   OH238887   2.901   3.529   2.335 -0.1617 -0.5824 -0.1188
 5751TIP3    H138888   2.963   3.558   2.402  0.3319  0.6671 -1.0812
 5751TIP3    H238889   2.827   3.589   2.344 -0.7964 -1.4395  0.3742
 5752TIP3   OH238890   2.165   3.380   8.485  0.5095  0.5817 -0.2874
 5752TIP3    H138891   2.152   3.372   8.391 -2.3393 -0.5934  0.1724
 5752TIP3    H238892   2.101   3.446   8.512 -1.3346 -1.8035  1.3474
 5753TIP3   OH238893   4.752   4.587   2.501  0.3021 -0.1227 -0.2169
 5753TIP3    H138894   4.661   4.582   2.532  0.6132 -0.0852  0.7214
 5753TIP3    H238895   4.761   4.676   2.469 -0.3614 -0.4997 -1.5020
 5754TIP3   OH238896   4.451   6.806   1.276  0.6037  0.0002 -0.6602
 5754TIP3    H138897   4.546   6.800   1.291  0.9092  0.9789 -2.1048
 5754TIP3    H238898   4.434   6.899   1.264 -0.5201 -0.1906 -0.5780
 5755TIP3   OH238899   2.856   6.081   2.333 -0.1858 -0.1412  0.1448
 5755TIP3    H138900   2.920   6.034   2.280 -1.1650  0.2830 -1.4589
 5755TIP3    H238901   2.791   6.014   2.357 -0.4296 -0.0630 -0.2950
 5756TIP3   OH238902   3.437   5.752   0.737  0.3215 -0.0539 -0.0802
 5756TIP3    H138903   3.507   5.697   0.700  2.0317  3.7668 -2.8652
 5756TIP3    H238904   3.368   5.752   0.671 -0.0187  0.4658  0.2693
 5757TIP3   OH238905   3.773   4.244   0.699  0.6207 -0.2798 -0.0381
 5757TIP3    H138906   3.852   4.197   0.726 -1.0005 -2.7525  0.5430
 5757TIP3    H238907   3.703   4.179   0.706 -1.6635  2.1617  0.5297
 5758TIP3   OH238908   0.877   0.883   1.407  0.3537 -0.4261 -0.1148
 5758TIP3    H138909   0.960   0.927   1.387  0.2285 -0.5448 -0.9008
 5758TIP3    H238910   0.901   0.792   1.424  0.4256 -0.3889 -0.0169
 5759TIP3   OH238911   5.114   3.076   1.904  0.4564 -0.3176 -0.1051
 5759TIP3    H138912   5.158   3.147   1.858 -0.1024 -0.5275 -0.9854
 5759TIP3    H238913   5.183   3.012   1.923  0.3667 -1.1010 -2.3563
 5760TIP3   OH238914   1.138   4.555   1.256  0.0640  0.5302 -0.0774
 5760TIP3    H138915   1.212   4.610   1.281 -0.3981  1.0697  0.1107
 5760TIP3    H238916   1.067   4.581   1.315  0.2843 -1.3479  1.0419
 5761TIP3   OH238917   5.091   5.153   7.964 -0.3849  0.6650 -0.8309
 5761TIP3    H138918   5.181   5.182   7.945 -0.0569 -1.3054 -2.3506
 5761TIP3    H238919   5.097   5.111   8.050  0.1305  0.5844 -0.9074
 5762TIP3   OH238920   5.156   4.535   1.194 -0.1894 -0.1057 -0.3261
 5762TIP3    H138921   5.080   4.478   1.206 -1.2044  1.8258  3.1898
 5762TIP3    H238922   5.143   4.576   1.109 -3.2504  0.3552  0.3246
 5763TIP3   OH238923   4.352   4.935   8.343  0.4173  0.0468  0.1199
 5763TIP3    H138924   4.354   5.026   8.312  1.5001 -0.5350 -1.5708
 5763TIP3    H238925   4.344   4.942   8.438  3.0864  1.9608  0.2575
 5764TIP3   OH238926   6.985   3.941   1.448  0.3175 -0.1231  0.2549
 5764TIP3    H138927   6.932   4.018   1.430  0.9278  0.3939  0.6701
 5764TIP3    H238928   7.051   3.970   1.511  1.6995 -0.4925 -0.9682
 5765TIP3   OH238929   2.102   5.327   7.914  0.4016  0.4939  0.0497
 5765TIP3    H138930   2.022   5.322   7.966  0.6191  0.8230  0.4108
 5765TIP3    H238931   2.157   5.392   7.958  1.0000  0.0399 -0.0199
 5766TIP3   OH238932   0.683   6.611   7.209  0.0928  0.7089 -0.3638
 5766TIP3    H138933   0.637   6.648   7.134 -1.2540 -0.5555 -0.1993
 5766TIP3    H238934   0.706   6.522   7.181 -0.6986  0.1195  0.8072
 5767TIP3   OH238935   2.001   6.001   0.345  0.5220 -0.0826 -0.1284
 5767TIP3    H138936   2.025   6.055   0.270  2.8987  0.4422  0.9520
 5767TIP3    H238937   1.946   6.057   0.399 -2.1985 -0.8483 -1.9953
 5768TIP3   OH238938   3.362   3.976   0.770 -0.5585 -0.2565 -0.6252
 5768TIP3    H138939   3.445   3.930   0.768 -0.0278  0.6214  0.8646
 5768TIP3    H238940   3.305   3.921   0.823 -0.6356 -0.3476 -0.7997
 5769TIP3   OH238941   2.905   6.425   1.840 -0.5830  0.0446 -0.2201
 5769TIP3    H138942   2.916   6.479   1.761 -1.4344  1.0985  0.3658
 5769TIP3    H238943   2.915   6.487   1.912  1.3918 -1.1284  0.5562
 5770TIP3   OH238944   3.777   5.931   1.930  0.2352  0.4718  0.2497
 5770TIP3    H138945   3.786   6.004   1.992 -1.8155  0.7436  0.2821
 5770TIP3    H238946   3.815   5.964   1.849 -0.6838  1.6157  0.2645
 5771TIP3   OH238947   2.778   1.029   8.463 -0.5781  0.2360 -0.6353
 5771TIP3    H138948   2.764   1.082   8.384 -0.3859  0.6954 -0.3600
 5771TIP3    H238949   2.828   1.086   8.521  0.5340 -0.6179 -0.7429
 5772TIP3   OH238950   0.733   5.974   2.165 -0.3628  0.2667 -0.9088
 5772TIP3    H138951   0.802   6.025   2.122 -0.4036 -1.2059 -2.7458
 5772TIP3    H238952   0.756   5.883   2.150 -1.1184 -0.2838  1.0583
 5773TIP3   OH238953   6.774   2.303   1.478 -0.0467 -0.3375 -0.4306
 5773TIP3    H138954   6.782   2.230   1.540  1.7328 -0.8989 -1.3017
 5773TIP3    H238955   6.726   2.370   1.527  0.7795 -1.0017  1.3606
 5774TIP3   OH238956   2.693   5.098   0.608 -0.1021 -0.2083 -0.4155
 5774TIP3    H138957   2.680   5.180   0.560 -1.1697  1.1155  2.0397
 5774TIP3    H238958   2.760   5.119   0.674 -0.3903 -1.2962  0.2404
 5775TIP3   OH238959   3.605   6.345   2.333 -0.4617 -0.4834 -0.1007
 5775TIP3    H138960   3.653   6.276   2.287  2.4532  0.8805  0.7541
 5775TIP3    H238961   3.575   6.403   2.263  0.7588 -0.3688 -0.5480
 5776TIP3   OH238962   6.089   6.053   0.299  0.1255  0.4073  0.0403
 5776TIP3    H138963   6.141   6.070   0.378 -1.0714 -0.2488  0.9923
 5776TIP3    H238964   6.152   6.016   0.237  1.0366  0.7178  0.7523
 5777TIP3   OH238965   2.108   6.389   1.435 -0.5984  0.3725 -0.0509
 5777TIP3    H138966   2.056   6.411   1.512  0.7383 -2.2725  1.6913
 5777TIP3    H238967   2.173   6.459   1.429  1.2977 -0.9946  3.2032
 5778TIP3   OH238968   3.618   3.755   7.571 -0.2451  0.0425 -0.1084
 5778TIP3    H138969   3.533   3.721   7.540 -0.0090  0.2339 -0.9747
 5778TIP3    H238970   3.682   3.693   7.536  0.0841  0.6727 -0.6237
 5779TIP3   OH238971   4.160   6.225   1.563 -0.2719 -0.6134 -0.4376
 5779TIP3    H138972   4.098   6.262   1.626  0.4150  1.6238 -1.0406
 5779TIP3    H238973   4.220   6.173   1.617 -2.2850 -2.3456  0.2135
 5780TIP3   OH238974   5.414   3.051   0.327  0.2840  0.3113  0.5863
 5780TIP3    H138975   5.383   3.100   0.404  1.5373 -0.3714  1.5380
 5780TIP3    H238976   5.504   3.026   0.348  0.5991 -0.0164 -1.0512
 5781TIP3   OH238977   4.919   1.778   0.811  0.5758 -0.4809  0.5061
 5781TIP3    H138978   4.892   1.791   0.720  1.6722 -2.4095 -0.1260
 5781TIP3    H238979   5.004   1.822   0.817  1.0744 -1.3962  0.2484
 5782TIP3   OH238980   4.029   0.361   6.967  0.1163 -0.6487  0.1246
 5782TIP3    H138981   4.108   0.334   6.919  0.5822 -1.3510  1.2570
 5782TIP3    H238982   4.036   0.316   7.051 -0.3545  1.1098  1.1183
 5783TIP3   OH238983   2.144   4.221   2.390 -0.7539  0.1323  0.0422
 5783TIP3    H138984   2.216   4.158   2.385 -0.8389 -0.1065  1.6006
 5783TIP3    H238985   2.174   4.297   2.340  0.3341 -0.1993  0.1860
 5784TIP3   OH238986   2.053   2.742   2.253 -0.4796  0.7649  0.0493
 5784TIP3    H138987   2.080   2.821   2.300 -0.2074  0.5933  0.1862
 5784TIP3    H238988   2.135   2.696   2.237 -0.5049  1.1271 -1.1414
 5785TIP3   OH238989   3.511   3.109   1.739  0.2277 -0.3667 -1.0684
 5785TIP3    H138990   3.442   3.169   1.767  0.0239 -0.2675 -1.7754
 5785TIP3    H238991   3.571   3.103   1.814 -0.1419  0.1461 -0.7387
 5786TIP3   OH238992   3.708   3.566   2.092 -0.1161  0.8986 -0.2681
 5786TIP3    H138993   3.718   3.565   2.187 -1.3562  0.1929 -0.1246
 5786TIP3    H238994   3.764   3.637   2.062 -0.3510  1.6712  1.0701
 5787TIP3   OH238995   1.399   4.958   7.648  0.0446  0.5959 -0.2669
 5787TIP3    H138996   1.340   4.887   7.672 -1.1225  1.9097  0.8736
 5787TIP3    H238997   1.447   4.925   7.572 -0.5766 -1.3342  0.1514
 5788TIP3   OH238998   0.987   4.112   8.027 -0.3148 -0.2735 -0.1220
 5788TIP3    H138999   0.960   4.187   7.974  1.1921  0.1533 -0.2824
 5788TIP3    H239000   0.979   4.141   8.117 -2.0785 -0.7322 -0.0968
 5789TIP3   OH239001   2.242   6.701   1.174 -0.1320 -0.3895 -0.8111
 5789TIP3    H139002   2.268   6.640   1.244  0.0476  1.4142  0.7326
 5789TIP3    H239003   2.300   6.776   1.186 -1.7484  0.9560 -1.3940
 5790TIP3   OH239004   3.946   0.972   8.366  0.0350  0.0588  0.6870
 5790TIP3    H139005   3.919   0.880   8.369  0.7084 -0.3425 -2.7910
 5790TIP3    H239006   4.040   0.968   8.350  0.0096  1.3388  0.1961
 5791TIP3   OH239007   2.004   6.658   7.099 -0.1689  0.5406 -0.3260
 5791TIP3    H139008   2.035   6.601   7.169  2.1863  0.2578 -1.5461
 5791TIP3    H239009   2.007   6.746   7.135 -2.8220  0.0611  1.2215
 5792TIP3   OH239010   3.329   3.901   8.461  0.4079  1.1134  0.1859
 5792TIP3    H139011   3.237   3.928   8.465  0.0242  0.0047 -0.8618
 5792TIP3    H239012   3.346   3.865   8.548 -0.2513  0.9914  0.2702
 5793TIP3   OH239013   4.028   6.245   0.658  0.2605  0.3784  0.5872
 5793TIP3    H139014   4.024   6.206   0.570 -2.6087 -0.3518  1.0059
 5793TIP3    H239015   4.013   6.339   0.642  0.3662  0.3386  0.2385
 5794TIP3   OH239016   1.327   1.525   1.813  0.1504  0.4540  0.3475
 5794TIP3    H139017   1.294   1.563   1.894 -0.9567  0.7167 -0.2204
 5794TIP3    H239018   1.262   1.548   1.747  0.8887 -0.0182 -0.5610
 5795TIP3   OH239019   2.267   1.313   0.445  0.3817  0.5013  0.4307
 5795TIP3    H139020   2.210   1.324   0.369  0.3262  0.6149  0.4881
 5795TIP3    H239021   2.232   1.237   0.491 -1.2208  1.9964  1.7861
 5796TIP3   OH239022   4.468   3.593   0.980 -0.0104  0.0038  0.3257
 5796TIP3    H139023   4.460   3.616   0.888  2.3349  1.8121  0.5134
 5796TIP3    H239024   4.403   3.648   1.025 -0.2064  0.1226 -0.1076
 5797TIP3   OH239025   1.157   6.704   2.280 -0.3115  0.0516  0.0864
 5797TIP3    H139026   1.192   6.669   2.362 -0.3273 -0.8533 -0.2900
 5797TIP3    H239027   1.233   6.742   2.236 -0.5823  2.0385  1.2596
 5798TIP3   OH239028   5.238   3.513   0.498 -0.8410  0.2490  0.0943
 5798TIP3    H139029   5.268   3.422   0.488 -0.1161  0.4167  0.6914
 5798TIP3    H239030   5.236   3.527   0.592 -0.0422  1.1524 -0.0177
 5799TIP3   OH239031   2.550   5.453   8.391 -0.2035 -0.2950  0.3632
 5799TIP3    H139032   2.489   5.411   8.331  0.3080 -0.0601 -0.3152
 5799TIP3    H239033   2.636   5.425   8.361  0.1107  0.7764  0.2750
 5800TIP3   OH239034   3.886   2.198   0.086  0.5133 -0.5885 -0.3705
 5800TIP3    H139035   3.827   2.259   0.042  0.7652 -1.0373 -1.3458
 5800TIP3    H239036   3.901   2.237   0.172 -2.5175 -1.2946  0.5232
 5801TIP3   OH239037   5.396   3.497   1.198 -0.0238 -1.0901  0.3958
 5801TIP3    H139038   5.409   3.556   1.124 -0.8985 -0.6213  0.6025
 5801TIP3    H239039   5.484   3.468   1.222  0.3331 -0.5982 -0.3043
 5802TIP3   OH239040   4.444   4.272   7.574 -0.7519 -0.4244  0.4999
 5802TIP3    H139041   4.481   4.217   7.643  0.6941  1.3474  1.1865
 5802TIP3    H239042   4.513   4.280   7.509 -1.4302 -0.5047 -0.2483
 5803TIP3   OH239043   2.189   4.940   8.072 -0.4871 -0.0751 -0.2640
 5803TIP3    H139044   2.171   4.848   8.050 -2.3410  0.6089 -1.6907
 5803TIP3    H239045   2.178   4.987   7.990  1.2829  1.3428  0.2692
 5804TIP3   OH239046   4.500   5.111   1.768  0.0834 -0.0852  0.3756
 5804TIP3    H139047   4.412   5.127   1.734  0.8324  1.5756 -0.8916
 5804TIP3    H239048   4.524   5.024   1.736 -1.0333 -0.4816  0.6130
 5805TIP3   OH239049   6.738   1.692   1.378  0.0661  0.8050 -0.4662
 5805TIP3    H139050   6.644   1.698   1.358  0.0666  1.4552 -0.2904
 5805TIP3    H239051   6.742   1.640   1.458 -0.1012  0.2523 -0.8112
 5806TIP3   OH239052   5.649   2.722   6.747  0.4160  0.5925  0.0618
 5806TIP3    H139053   5.734   2.693   6.712  1.4487  0.8566  2.2526
 5806TIP3    H239054   5.641   2.813   6.717  0.5187  0.3181 -0.8227
 5807TIP3   OH239055   6.713   2.592   2.203  0.0553  0.3796  0.2657
 5807TIP3    H139056   6.698   2.540   2.282 -0.2071  0.2279  0.1178
 5807TIP3    H239057   6.786   2.649   2.225 -0.6990  1.0881  0.9892
 5808TIP3   OH239058   2.307   5.185   1.964 -0.6605  0.0113 -0.2358
 5808TIP3    H139059   2.345   5.242   2.031 -1.0027  0.2487 -0.2454
 5808TIP3    H239060   2.220   5.162   1.998 -0.2583 -1.0560  0.0886
 5809TIP3   OH239061   0.465   3.552   6.598  0.2231 -0.5358 -0.1049
 5809TIP3    H139062   0.401   3.517   6.536  0.4503  1.8810 -1.8040
 5809TIP3    H239063   0.428   3.534   6.684 -1.2349 -1.9119 -0.9962
 5810TIP3   OH239064   2.177   4.496   0.661  0.2205  0.4843  0.1753
 5810TIP3    H139065   2.164   4.435   0.734 -0.4020  1.3996  0.8337
 5810TIP3    H239066   2.206   4.577   0.702  4.7532 -0.4071 -0.9571
 5811TIP3   OH239067   6.851   3.377   7.358 -0.2565  0.7856 -0.0793
 5811TIP3    H139068   6.932   3.418   7.388  0.2514  0.6947 -1.3056
 5811TIP3    H239069   6.790   3.389   7.431  1.0800  0.1832  1.1619
 5812TIP3   OH239070   2.823   4.996   8.285 -0.5439  0.1409  0.2113
 5812TIP3    H139071   2.756   5.000   8.216  0.2234 -0.7420 -0.5958
 5812TIP3    H239072   2.903   4.972   8.239  0.6198  2.4138  0.9647
 5813TIP3   OH239073   5.679   2.091   6.691 -0.1330  0.4057 -0.6324
 5813TIP3    H139074   5.649   2.049   6.611  1.5286  0.1057 -1.1351
 5813TIP3    H239075   5.694   2.019   6.752 -2.0027  0.6834  0.1807
 5814TIP3   OH239076   4.126   5.746   2.194 -0.0081 -0.1910 -0.0877
 5814TIP3    H139077   4.097   5.837   2.184  0.6026 -0.0654 -0.7341
 5814TIP3    H239078   4.077   5.698   2.127  1.2095  0.0124 -1.1433
 5815TIP3   OH239079   5.732   6.986   7.451  0.4259 -0.2126  0.2919
 5815TIP3    H139080   5.675   7.037   7.394  2.2806 -0.2607 -1.6544
 5815TIP3    H239081   5.781   6.929   7.393 -0.5029 -3.1818  2.3185
 5816TIP3   OH239082   4.664   4.510   1.396 -0.2153  0.5691 -0.0102
 5816TIP3    H139083   4.757   4.524   1.416  0.4237 -0.6367 -1.9443
 5816TIP3    H239084   4.650   4.416   1.413 -0.3521  0.1419 -2.3402
 5817TIP3   OH239085   4.274   0.288   8.272 -0.2574  0.1405 -0.3075
 5817TIP3    H139086   4.204   0.332   8.225  0.6480  0.9084 -0.9466
 5817TIP3    H239087   4.229   0.231   8.335 -1.4378  2.0367  0.6079
 5818TIP3   OH239088   3.046   4.902   8.159 -0.2934 -0.3375  0.3644
 5818TIP3    H139089   3.128   4.872   8.197 -0.7830 -2.6795 -0.3949
 5818TIP3    H239090   3.071   4.974   8.101  0.5763  2.7944  4.3186
 5819TIP3   OH239091   3.634   4.899   1.861 -0.0530 -0.0364 -0.1194
 5819TIP3    H139092   3.700   4.829   1.861 -1.9369 -1.8612  0.1511
 5819TIP3    H239093   3.570   4.872   1.795  0.2645  2.5474 -1.5880
 5820TIP3   OH239094   5.056   2.990   7.070 -0.4937  0.0113  0.0977
 5820TIP3    H139095   5.138   2.975   7.118  0.2006  0.1003 -1.0513
 5820TIP3    H239096   5.005   2.910   7.085  0.4668 -0.7271 -0.4975
 5821TIP3   OH239097   3.630   4.520   8.258  0.4033 -0.1927  0.1032
 5821TIP3    H139098   3.693   4.450   8.243  0.3727 -0.5205  1.4550
 5821TIP3    H239099   3.584   4.495   8.337 -1.1204  0.2793 -0.6164
 5822TIP3   OH239100   4.528   4.069   1.572 -0.0118 -0.2064 -0.1002
 5822TIP3    H139101   4.574   4.016   1.507 -0.7651 -0.3388 -0.5344
 5822TIP3    H239102   4.577   4.151   1.574 -0.2323 -0.0308 -1.1660
 5823TIP3   OH239103   6.983   4.407   1.313  0.0505 -0.0502 -0.0572
 5823TIP3    H139104   7.011   4.405   1.221  0.6687  0.5228  0.1073
 5823TIP3    H239105   6.926   4.484   1.319  0.1936  0.0476  0.0802
 5824TIP3   OH239106   5.896   3.645   1.351 -0.2063 -0.5792  0.0874
 5824TIP3    H139107   5.951   3.635   1.429 -1.2823 -1.2071  0.7822
 5824TIP3    H239108   5.861   3.733   1.358  0.5163 -0.2647 -0.2296
 5825TIP3   OH239109   4.596   5.983   6.570 -0.4671 -0.6250 -0.5643
 5825TIP3    H139110   4.670   5.940   6.529 -0.9866 -0.0280 -2.1738
 5825TIP3    H239111   4.519   5.934   6.541 -0.6694 -1.8089  1.8265
 5826TIP3   OH239112   4.467   5.873   8.439 -0.8388  0.2176 -0.1799
 5826TIP3    H139113   4.445   5.873   8.532 -0.1345  0.2174 -0.0114
 5826TIP3    H239114   4.386   5.844   8.396 -1.5800  1.5000  0.3256
 5827TIP3   OH239115   5.727   7.005   7.114 -0.1205 -0.9668  0.0171
 5827TIP3    H139116   5.735   7.086   7.165  1.6800 -0.9517 -0.2669
 5827TIP3    H239117   5.652   7.020   7.057  1.2410  1.2250 -1.2818
 5828TIP3   OH239118   3.305   4.187   1.126  0.2689 -0.0157  0.3979
 5828TIP3    H139119   3.311   4.281   1.111 -1.5635  0.0823  0.1290
 5828TIP3    H239120   3.358   4.148   1.057 -1.9782  0.7041 -1.7689
 5829TIP3   OH239121   5.210   3.904   0.178 -0.7749 -0.6358  0.8210
 5829TIP3    H139122   5.186   3.997   0.178  0.5865 -0.2757 -0.0113
 5829TIP3    H239123   5.271   3.895   0.250 -2.1841 -1.2446  1.9647
 5830TIP3   OH239124   2.874   6.799   7.627  0.0711  0.1219  0.2375
 5830TIP3    H139125   2.789   6.829   7.659  1.0938  2.3055  1.0031
 5830TIP3    H239126   2.929   6.796   7.704  0.9810 -0.2464 -0.4166
 5831TIP3   OH239127   4.249   1.826   8.410 -0.1423 -0.4363  0.4396
 5831TIP3    H139128   4.196   1.752   8.381  0.0867 -0.0187 -1.1236
 5831TIP3    H239129   4.259   1.880   8.331  0.2269  0.9244  1.4049
 5832TIP3   OH239130   2.800   7.243   0.030 -0.2035  0.0358 -0.0458
 5832TIP3    H139131   2.758   7.303  -0.031  0.7249  0.2919 -0.4478
 5832TIP3    H239132   2.750   7.252   0.111 -0.7970  0.4732 -0.4584
 5833TIP3   OH239133   5.521   5.460   2.264 -0.4172  0.5035  0.4494
 5833TIP3    H139134   5.429   5.458   2.290 -0.4285  1.6237  0.5154
 5833TIP3    H239135   5.569   5.463   2.347 -0.3247  0.0362  0.4132
 5834TIP3   OH239136   5.606   3.805   1.212  0.5493  0.1221 -0.2545
 5834TIP3    H139137   5.654   3.866   1.269  0.8727  1.1953 -1.6470
 5834TIP3    H239138   5.674   3.763   1.160  0.1827 -0.2339 -0.4462
 5835TIP3   OH239139   5.695   4.723   2.313 -0.2444  0.1836 -0.1852
 5835TIP3    H139140   5.665   4.668   2.385  0.5385 -0.4427 -0.3449
 5835TIP3    H239141   5.614   4.750   2.269 -0.5643 -2.5786 -1.4162
 5836TIP3   OH239142   7.272   6.773   8.172  0.3124  0.6421  0.2198
 5836TIP3    H139143   7.262   6.817   8.257 -1.0759  1.0417 -0.1278
 5836TIP3    H239144   7.211   6.820   8.114  0.7685 -0.0456 -0.8295
 5837TIP3   OH239145   2.090   4.880   0.157  0.6806  0.1281  0.3179
 5837TIP3    H139146   2.133   4.852   0.076  0.5200  1.3609 -0.1964
 5837TIP3    H239147   2.123   4.819   0.223  2.5327  0.4859 -0.2409
 5838TIP3   OH239148   5.168   5.047   1.577 -0.8934 -0.2600  0.4680
 5838TIP3    H139149   5.095   5.109   1.581 -1.3952 -0.6806 -1.6919
 5838TIP3    H239150   5.127   4.962   1.591 -0.8704 -0.5207 -0.9776
 5839TIP3   OH239151   6.434   7.025   1.163 -0.3365 -0.3285  0.0308
 5839TIP3    H139152   6.408   7.091   1.099 -1.1970 -1.2917 -0.6263
 5839TIP3    H239153   6.528   7.040   1.177 -0.3820  0.5736 -0.6351
 5840TIP3   OH239154   4.255   5.408   2.286 -0.6872  0.2058  0.5290
 5840TIP3    H139155   4.325   5.399   2.350 -1.5214  2.1340  1.7714
 5840TIP3    H239156   4.177   5.376   2.332 -0.7841 -1.1789 -0.5663
 5841TIP3   OH239157   6.986   5.440   0.015 -0.0604 -0.3696  0.1106
 5841TIP3    H139158   6.989   5.348  -0.013  1.2633 -0.7099  1.3315
 5841TIP3    H239159   7.076   5.461   0.039 -0.1894  1.5273 -0.9697
 5842TIP3   OH239160   6.142   6.489   0.442  0.2156  0.1769 -0.6826
 5842TIP3    H139161   6.209   6.441   0.491 -1.0380 -0.8307  0.0829
 5842TIP3    H239162   6.158   6.581   0.463  0.6494 -0.1456  0.4239
 5843TIP3   OH239163   6.624   6.671   7.105 -0.4078 -0.4102  0.3639
 5843TIP3    H139164   6.566   6.610   7.059  1.3605 -0.6779 -1.5669
 5843TIP3    H239165   6.701   6.678   7.049 -0.9189  4.3570  0.0395
 5844TIP3   OH239166   5.361   4.600   0.548 -0.9752 -0.5157 -0.3214
 5844TIP3    H139167   5.388   4.566   0.633 -0.4547 -0.7704 -0.5873
 5844TIP3    H239168   5.286   4.546   0.524  0.7752 -2.5313 -1.4373
 5845TIP3   OH239169   2.615   6.106   7.980  0.1845  0.2326  1.0135
 5845TIP3    H139170   2.555   6.180   7.995 -1.4169 -0.7561 -0.2457
 5845TIP3    H239171   2.624   6.065   8.065 -1.3171  0.1431  1.1543
 5846TIP3   OH239172   7.295   4.064   1.477 -0.1098 -0.5224  0.3380
 5846TIP3    H139173   7.256   4.020   1.402 -2.9681  1.1635  0.7753
 5846TIP3    H239174   7.338   4.141   1.440 -0.8304 -0.1203  0.3355
 5847TIP3   OH239175   2.997   6.651   1.092 -0.7409  0.0849  0.0947
 5847TIP3    H139176   3.040   6.612   1.168 -1.1479  2.1280  1.4090
 5847TIP3    H239177   2.908   6.670   1.122  0.3867  5.0816  0.6177
 5848TIP3   OH239178   3.528   4.657   8.052 -0.0906 -0.3633  0.0458
 5848TIP3    H139179   3.569   4.607   7.982  0.9853  1.8324 -0.9293
 5848TIP3    H239180   3.565   4.620   8.133  0.4467 -1.3165 -0.6270
 5849TIP3   OH239181   3.467   0.143   1.819  0.1161 -0.7775  0.0293
 5849TIP3    H139182   3.391   0.178   1.772 -0.1777  0.1667  1.1759
 5849TIP3    H239183   3.434   0.064   1.861 -0.7754  0.5888  2.0145
 5850TIP3   OH239184   4.866   4.360   7.981  0.0682  0.1458  0.2011
 5850TIP3    H139185   4.950   4.401   7.961  0.1927 -0.1512  0.1211
 5850TIP3    H239186   4.881   4.266   7.970 -0.2839  0.0946  0.1480
 5851TIP3   OH239187   5.574   6.043   6.971 -0.0357 -0.5835  0.0110
 5851TIP3    H139188   5.614   6.034   7.057 -1.3346  0.7779  0.7641
 5851TIP3    H239189   5.648   6.055   6.912  0.7370  1.0105  1.2717
 5852TIP3   OH239190   5.233   3.824   2.791 -0.3369  0.1308 -0.2997
 5852TIP3    H139191   5.249   3.885   2.862 -0.2802  0.9146 -0.9806
 5852TIP3    H239192   5.296   3.753   2.804  2.0634  1.9736 -1.5544
 5853TIP3   OH239193   3.294   5.935   1.558  0.2065 -0.5113 -0.1755
 5853TIP3    H139194   3.247   5.861   1.520  0.1379 -0.0078 -1.1077
 5853TIP3    H239195   3.382   5.929   1.521  0.3251 -0.3782  0.0855
 5854TIP3   OH239196   4.292   4.553   0.538 -0.4856 -0.1836  0.1050
 5854TIP3    H139197   4.333   4.508   0.464  0.8837 -0.0188  0.7592
 5854TIP3    H239198   4.346   4.630   0.553 -2.2212  1.1584 -0.3319
 5855TIP3   OH239199   4.508   3.709   2.206  0.8982 -0.0170  0.0867
 5855TIP3    H139200   4.577   3.642   2.209 -0.0445 -1.0056 -0.1196
 5855TIP3    H239201   4.473   3.703   2.117  0.6042  0.5519  0.1641
 5856TIP3   OH239202   6.031   4.460   1.248 -0.1088 -0.2427  0.3701
 5856TIP3    H139203   6.123   4.471   1.275 -0.5282  1.4839  1.1443
 5856TIP3    H239204   6.034   4.463   1.152  0.4483  1.5119  0.4268
 5857TIP3   OH239205   5.539   4.345   1.552 -0.0076  0.1079 -0.1813
 5857TIP3    H139206   5.472   4.354   1.484  0.4897  2.6122 -0.3925
 5857TIP3    H239207   5.489   4.345   1.634 -0.3497  1.2038 -0.3748
 5858TIP3   OH239208   6.532   2.039   0.941  0.3313 -0.7946  0.7727
 5858TIP3    H139209   6.438   2.024   0.937 -0.0237  1.6228 -2.0124
 5858TIP3    H239210   6.570   1.966   0.893 -0.3956 -0.0696 -0.9520
 5859TIP3   OH239211   4.287   6.628   0.413  0.2027  0.0632 -0.0053
 5859TIP3    H139212   4.238   6.612   0.493  1.7157 -1.6014  0.6105
 5859TIP3    H239213   4.377   6.643   0.442  0.5208  0.7712 -1.2973
 5860TIP3   OH239214   4.020   5.211   7.915  0.5325  0.2609 -0.4692
 5860TIP3    H139215   4.068   5.266   7.977  2.3957  0.7436 -2.2968
 5860TIP3    H239216   4.052   5.123   7.931  1.2354  0.4283 -0.9338
 5861TIP3   OH239217   2.341   5.503   0.047 -0.5063 -0.4640  0.4162
 5861TIP3    H139218   2.304   5.415   0.056  0.5002 -1.2440 -2.4695
 5861TIP3    H239219   2.422   5.491  -0.003 -0.9287  2.1895 -1.0572
 5862TIP3   OH239220   5.018   5.284   1.624  0.3339 -0.3726  0.5331
 5862TIP3    H139221   4.981   5.267   1.711  1.1798  1.0811  1.1774
 5862TIP3    H239222   5.104   5.322   1.641  0.7962 -0.7336 -0.9548
 5863TIP3   OH239223   5.959   4.402   0.036 -0.5342 -0.3887  0.2226
 5863TIP3    H139224   5.889   4.338   0.024  0.1285 -0.9900 -0.4634
 5863TIP3    H239225   5.958   4.422   0.130  0.8349 -3.2351  0.8968
 5864TIP3   OH239226   3.298   5.787   0.239 -0.8408  0.1882  0.1090
 5864TIP3    H139227   3.328   5.843   0.311  3.5660 -2.2484  0.3962
 5864TIP3    H239228   3.324   5.834   0.160  0.3524 -0.1435  0.2928
 5865TIP3   OH239229   4.003   5.317   2.348 -0.2794 -0.2732  0.1762
 5865TIP3    H139230   3.975   5.281   2.264  0.9309 -0.5749 -0.1104
 5865TIP3    H239231   3.924   5.316   2.402 -1.4728  1.4965 -1.4670
 5866TIP3   OH239232   2.986   3.776   0.786 -0.2454 -0.5071 -0.0305
 5866TIP3    H139233   2.986   3.861   0.742 -2.2122 -0.7492 -0.5287
 5866TIP3    H239234   3.072   3.771   0.828  0.6927  0.8134 -1.7315
 5867TIP3   OH239235   1.491   2.409   2.292 -0.0658  0.1474 -0.0111
 5867TIP3    H139236   1.524   2.431   2.379 -1.3511 -0.1164  0.5739
 5867TIP3    H239237   1.441   2.486   2.265 -0.3801 -0.1010 -0.1404
 5868TIP3   OH239238   6.632   4.517   0.567  0.5204 -0.0832 -0.1364
 5868TIP3    H139239   6.722   4.488   0.552  1.9254  3.5157  0.8664
 5868TIP3    H239240   6.617   4.582   0.499 -0.2618  1.4684  1.4982
 5869TIP3   OH239241   4.817   5.672   0.816  1.0808 -0.4421  0.5048
 5869TIP3    H139242   4.828   5.652   0.909 -0.4894 -2.1345  0.3673
 5869TIP3    H239243   4.724   5.693   0.807  1.1554 -0.5976 -0.7320
 5870TIP3   OH239244   5.597   2.193   0.164 -0.2994  0.3486  0.0694
 5870TIP3    H139245   5.678   2.144   0.179 -0.2117  0.3327 -0.4188
 5870TIP3    H239246   5.615   2.281   0.199 -0.6085 -0.0941  1.3225
 5871TIP3   OH239247   3.985   3.971   1.641  0.5989  0.1572 -0.1681
 5871TIP3    H139248   3.989   3.969   1.736  0.0000 -0.6740 -0.1522
 5871TIP3    H239249   3.962   4.061   1.619  0.4601  0.2791  0.4826
 5872TIP3   OH239250   6.652   4.060   1.319 -0.7402  0.6013  0.0329
 5872TIP3    H139251   6.588   4.024   1.382  1.8512 -2.8068  0.8756
 5872TIP3    H239252   6.718   4.103   1.374 -0.6119  1.2784 -0.6416
 5873TIP3   OH239253   4.435   0.523   2.136 -0.1915  0.5612  0.1768
 5873TIP3    H139254   4.352   0.530   2.184  0.6473  1.6580  1.5327
 5873TIP3    H239255   4.478   0.608   2.151  0.0469  0.9940 -2.6860
 5874TIP3   OH239256   3.553   3.024   8.052  0.1152 -0.4466 -0.2707
 5874TIP3    H139257   3.459   3.009   8.067  0.4608 -1.8420  0.5242
 5874TIP3    H239258   3.562   3.119   8.052 -1.3678 -0.2857 -0.7619
 5875TIP3   OH239259   4.866   6.289   0.893 -0.0112  0.0440  0.0066
 5875TIP3    H139260   4.880   6.364   0.952 -1.2543  0.1833  0.1398
 5875TIP3    H239261   4.823   6.327   0.816 -2.1723 -0.7664  0.7720
 5876TIP3   OH239262   6.017   5.130   0.976 -0.0078 -0.3891 -0.3855
 5876TIP3    H139263   6.026   5.185   1.053  1.2626  1.3945 -1.7679
 5876TIP3    H239264   5.993   5.191   0.906 -1.6572 -2.0479 -1.3188
 5877TIP3   OH239265   3.758   6.270   7.243  0.0325 -0.1372  0.3721
 5877TIP3    H139266   3.702   6.346   7.227 -0.3345 -0.7546 -1.4253
 5877TIP3    H239267   3.723   6.231   7.323 -1.6021 -0.0333 -0.2645
 5878TIP3   OH239268   5.418   6.573   0.355  0.2754  0.4539  0.3864
 5878TIP3    H139269   5.459   6.503   0.303 -1.5667  0.3623 -1.0093
 5878TIP3    H239270   5.470   6.651   0.335 -0.3486  0.4036 -1.5930
 5879TIP3   OH239271   6.094   3.588   0.004  0.0578 -0.3870  0.0533
 5879TIP3    H139272   6.182   3.623  -0.014  0.4188 -0.9679  0.6636
 5879TIP3    H239273   6.036   3.642  -0.050  0.8087 -0.1483 -0.5325
 5880TIP3   OH239274   6.263   4.840   1.729 -0.2914 -0.5702 -0.3265
 5880TIP3    H139275   6.322   4.887   1.670  0.5241 -1.3756 -0.1754
 5880TIP3    H239276   6.205   4.907   1.765  1.5637  0.5161  0.7143
 5881TIP3   OH239277   4.309   3.907   1.575 -0.1834  0.2595 -0.3751
 5881TIP3    H139278   4.387   3.954   1.605 -1.3855  1.1536  1.3853
 5881TIP3    H239279   4.309   3.826   1.625 -0.5463  0.3878 -0.1691
 5882TIP3   OH239280   4.248   4.771   1.886  0.8357 -0.0512  0.3278
 5882TIP3    H139281   4.226   4.833   1.956 -0.7614 -0.0313 -0.1911
 5882TIP3    H239282   4.213   4.687   1.916  1.0617 -0.2569  0.0222
 5883TIP3   OH239283   3.163   4.465   1.276 -0.1160 -0.8192 -0.1374
 5883TIP3    H139284   3.117   4.549   1.281 -0.3292 -0.8720 -1.0797
 5883TIP3    H239285   3.222   4.475   1.201 -0.3359 -1.6007 -0.4131
 5884TIP3   OH239286   4.082   5.293   2.632 -0.4028 -0.6698 -0.3103
 5884TIP3    H139287   4.032   5.360   2.585  0.3194 -0.6866 -1.1250
 5884TIP3    H239288   4.079   5.217   2.574  0.9736 -0.5166 -0.6036
 5885TIP3   OH239289   5.557   0.716   5.607 -0.4187 -0.4105  0.1716
 5885TIP3    H139290   5.557   0.795   5.661  0.4757  0.4260 -1.0444
 5885TIP3    H239291   5.562   0.644   5.671  1.5156  0.5920  1.2033
 5886TIP3   OH239292   3.135   6.008   1.154  0.0136 -0.3795  0.0294
 5886TIP3    H139293   3.106   6.078   1.095 -0.7803 -1.2572 -0.6313
 5886TIP3    H239294   3.055   5.979   1.199  0.5057 -0.1778  1.0444
 5887TIP3   OH239295   5.854   3.923   1.646 -0.3091 -0.3260 -0.1415
 5887TIP3    H139296   5.770   3.968   1.633 -0.3235 -0.5164 -0.7162
 5887TIP3    H239297   5.852   3.896   1.738 -0.0446  1.3657  0.3877
 5888TIP3   OH239298   3.904   3.774   2.155  0.2929 -0.0500 -0.3215
 5888TIP3    H139299   3.922   3.755   2.247  0.7365  0.4356 -0.3061
 5888TIP3    H239300   3.886   3.868   2.153 -1.5196 -0.3762 -0.4574
 5889TIP3   OH239301   4.992   2.460   7.318 -0.6138  0.0320  0.0894
 5889TIP3    H139302   5.075   2.478   7.275 -1.4840  1.6138 -0.9809
 5889TIP3    H239303   5.016   2.412   7.398  1.1963 -0.8185 -0.9228
 5890TIP3   OH239304   0.466   6.723   8.213  0.2795  0.3255 -0.6323
 5890TIP3    H139305   0.499   6.790   8.274 -0.3345 -0.2872  0.4014
 5890TIP3    H239306   0.485   6.640   8.257  0.7679 -0.1722 -1.7700
 5891TIP3   OH239307   4.581   6.868   7.361 -0.1323  0.0419 -0.0589
 5891TIP3    H139308   4.495   6.873   7.319 -0.3992 -1.8939  0.1984
 5891TIP3    H239309   4.585   6.945   7.417 -2.3558 -0.6325  1.0880
 5892TIP3   OH239310   5.358   4.386   1.777  0.7252 -0.3818 -0.0804
 5892TIP3    H139311   5.288   4.330   1.742 -0.3437  0.0731  1.2796
 5892TIP3    H239312   5.344   4.386   1.872  1.6588  0.9467  0.0791
 5893TIP3   OH239313   2.921   4.024   7.154 -0.2731  0.0621  0.2772
 5893TIP3    H139314   2.873   4.096   7.196 -0.9502  0.4599 -1.1370
 5893TIP3    H239315   3.006   4.061   7.133  0.3211 -0.3488  1.9073
 5894TIP3   OH239316   5.179   3.827   2.527  0.7190  0.7621  0.1261
 5894TIP3    H139317   5.120   3.898   2.500 -2.0243 -1.0979  1.0526
 5894TIP3    H239318   5.178   3.830   2.623  0.5992 -0.5370  0.1654
 5895TIP3   OH239319   2.444   3.542   0.888 -0.4013  0.0774  0.1158
 5895TIP3    H139320   2.510   3.475   0.907 -0.4512 -0.0833 -0.2818
 5895TIP3    H239321   2.405   3.562   0.973  0.2399  0.2577  0.3698
 5896TIP3   OH239322   4.943   4.215   1.453 -0.1689  0.1975 -0.2161
 5896TIP3    H139323   4.930   4.287   1.391  0.2921 -0.4017 -1.0330
 5896TIP3    H239324   4.949   4.137   1.397 -1.1701 -0.5386  0.6938
 5897TIP3   OH239325   4.569   4.955   0.941 -0.1026 -0.0180  0.6950
 5897TIP3    H139326   4.569   5.020   1.012 -0.4986  1.0773 -0.2990
 5897TIP3    H239327   4.499   4.894   0.965 -1.0221  1.0104  0.6587
 5898TIP3   OH239328   1.450   4.801   1.686 -0.1814 -0.5990 -0.0703
 5898TIP3    H139329   1.410   4.875   1.640 -1.4117 -1.0428  0.2600
 5898TIP3    H239330   1.408   4.724   1.647 -0.2709 -1.0366  0.8885
 5899TIP3   OH239331   3.854   1.257   8.044 -0.1665  0.7535  0.5522
 5899TIP3    H139332   3.875   1.285   7.955  0.8534 -0.2171  0.4639
 5899TIP3    H239333   3.783   1.314   8.072  0.2289  1.7748 -0.4949
 5900TIP3   OH239334   4.886   4.087   7.891 -0.1319 -0.5235  0.0686
 5900TIP3    H139335   4.828   4.014   7.870  0.3614 -1.0407  0.4925
 5900TIP3    H239336   4.947   4.092   7.816  0.7233 -1.4545  0.6845
 5901TIP3   OH239337   5.598   5.303   2.052 -0.0999 -0.1974  0.3273
 5901TIP3    H139338   5.667   5.243   2.081  1.7349  2.4033  1.5711
 5901TIP3    H239339   5.566   5.343   2.134 -0.5956  1.2420 -0.5548
 5902TIP3   OH239340   4.436   3.583   2.453  0.2920  0.1663 -0.2391
 5902TIP3    H139341   4.467   3.586   2.363 -1.2686 -0.2115 -0.8069
 5902TIP3    H239342   4.340   3.575   2.446  0.0724  1.0033  1.4469
 5903TIP3   OH239343   6.191   4.778   1.327  0.6471 -0.1127 -0.1397
 5903TIP3    H139344   6.285   4.764   1.311  0.6588 -1.8544  1.2540
 5903TIP3    H239345   6.147   4.732   1.256  0.8407  1.4961 -1.3283
 5904TIP3   OH239346   4.769   3.446   1.987  0.6508  0.7272  0.3557
 5904TIP3    H139347   4.754   3.522   1.931  1.0164  0.3113 -0.3129
 5904TIP3    H239348   4.682   3.410   2.003  0.6689 -0.1366 -1.3414
 5905TIP3   OH239349   3.690   6.257   8.328 -0.3670 -0.2616 -0.1965
 5905TIP3    H139350   3.784   6.270   8.334 -0.1801 -0.9320 -1.4993
 5905TIP3    H239351   3.669   6.276   8.236 -1.2343 -1.6894 -0.3127
 5906TIP3   OH239352   4.992   6.823   7.215  0.0844  0.0210  0.7383
 5906TIP3    H139353   4.947   6.842   7.298  0.4996 -1.8330  1.4046
 5906TIP3    H239354   5.044   6.902   7.198 -1.7787  1.3592  1.0265
 5907TIP3   OH239355   5.621   1.352   0.502  0.3191 -0.2276  0.6829
 5907TIP3    H139356   5.569   1.432   0.511  0.8116  0.1654  0.0839
 5907TIP3    H239357   5.578   1.304   0.431  1.2851  0.5219 -0.4429
 5908TIP3   OH239358   4.715   2.591   1.730  0.4286  0.8582 -0.1536
 5908TIP3    H139359   4.670   2.550   1.804 -0.9829  1.0678 -0.8799
 5908TIP3    H239360   4.806   2.563   1.739  0.6782  2.3360  2.7133
 5909TIP3   OH239361   5.721   4.254   0.059  0.3658  0.0270 -0.1636
 5909TIP3    H139362   5.722   4.197   0.135  0.2657  0.7458  0.3789
 5909TIP3    H239363   5.694   4.197  -0.013 -0.4771 -0.4396  0.5116
 5910TIP3   OH239364   5.416   4.183   0.959 -0.3788  0.0714  0.3282
 5910TIP3    H139365   5.370   4.170   1.042  1.1900 -0.0347  1.1930
 5910TIP3    H239366   5.422   4.279   0.950 -1.4406  0.0973 -0.1736
 5911TIP3   OH239367   5.053   3.022   2.313 -0.3948 -0.2581 -0.2777
 5911TIP3    H139368   5.144   3.034   2.337  0.0197 -0.2493 -1.8169
 5911TIP3    H239369   5.013   2.979   2.389  1.2731 -1.9058 -0.3047
 5912TIP3   OH239370   5.003   5.444   1.415 -0.4560 -0.1621  0.2440
 5912TIP3    H139371   5.025   5.389   1.339  0.3451  0.1274  0.2674
 5912TIP3    H239372   4.961   5.384   1.476  2.1734 -1.2242  1.1013
 5913TIP3   OH239373   4.747   5.636   1.511  0.2960  0.4742  0.8103
 5913TIP3    H139374   4.824   5.583   1.532 -0.0512 -0.8285 -1.0675
 5913TIP3    H239375   4.712   5.662   1.597  1.1438 -1.3884  1.7602
 5914TIP3   OH239376   6.032   1.385   0.817 -0.0245 -0.1006  0.7591
 5914TIP3    H139377   5.999   1.310   0.769 -0.4535  1.1216 -0.8883
 5914TIP3    H239378   5.967   1.400   0.886 -1.5037  0.5822 -0.7554
 5915TIP3   OH239379   5.506   4.313   6.374 -0.4094 -0.1755  0.2346
 5915TIP3    H139380   5.419   4.324   6.411 -0.6161 -1.2767  0.0814
 5915TIP3    H239381   5.547   4.245   6.428 -0.8225 -2.0331 -1.7309
 5916TIP3   OH239382   4.697   0.683   0.148  0.4596  0.3272 -0.5664
 5916TIP3    H139383   4.752   0.610   0.176  1.0535  0.4905 -1.3024
 5916TIP3    H239384   4.669   0.725   0.230  0.0003 -0.7975 -0.1305
 5917TIP3   OH239385   5.009   0.654   7.481 -0.8977  0.4843 -0.3758
 5917TIP3    H139386   4.949   0.704   7.426 -0.4300  0.8102 -0.5785
 5917TIP3    H239387   5.095   0.664   7.441 -0.6514  0.2455  0.0789
 5918TIP3   OH239388   5.675   3.040   7.975  0.3528 -0.1109  0.1094
 5918TIP3    H139389   5.641   3.128   7.993  0.3281  0.0743 -0.7778
 5918TIP3    H239390   5.622   2.982   8.029  0.1119  0.3907  0.4169
 5919TIP3   OH239391   4.040   3.576   1.109  0.4219  0.0056  0.3121
 5919TIP3    H139392   4.036   3.671   1.094 -1.1738 -0.1154 -0.0592
 5919TIP3    H239393   4.032   3.538   1.021  1.4607 -0.4760  0.4164
 5920TIP3   OH239394   2.177   1.627   6.382  0.0549  0.3674  0.8573
 5920TIP3    H139395   2.090   1.621   6.421 -0.3156  0.2240 -0.0077
 5920TIP3    H239396   2.188   1.720   6.362 -0.3575  0.2129 -0.0977
 5921TIP3   OH239397   2.174   6.173   2.330 -0.3295 -0.1439 -0.3515
 5921TIP3    H139398   2.260   6.174   2.373 -0.3935  0.5457 -0.2328
 5921TIP3    H239399   2.142   6.084   2.343  1.0200 -0.8551 -1.7096
 5922TIP3   OH239400   6.631   2.615   1.912  0.1537  0.1887 -0.0605
 5922TIP3    H139401   6.654   2.707   1.924 -0.4451  0.6862 -2.4923
 5922TIP3    H239402   6.713   2.568   1.929  0.7876  1.2559 -0.1065
 5923TIP3   OH239403   4.476   5.386   2.481  0.0817 -0.2065  0.2245
 5923TIP3    H139404   4.446   5.389   2.572  0.2486  0.4656  0.2619
 5923TIP3    H239405   4.472   5.293   2.457  3.0162 -0.8284  1.8926
 5924TIP3   OH239406   0.755   6.778   6.863  0.6925 -0.5001 -0.3353
 5924TIP3    H139407   0.830   6.719   6.860  0.7941 -0.4205  0.4075
 5924TIP3    H239408   0.717   6.765   6.950 -0.1692 -0.5547 -0.7103
 5925TIP3   OH239409   6.101   5.733   7.863 -0.0706  0.1874 -0.6327
 5925TIP3    H139410   6.006   5.737   7.856  0.0290  0.8791 -1.7296
 5925TIP3    H239411   6.129   5.825   7.860  0.6544 -0.0317 -0.7470
 5926TIP3   OH239412   6.027   3.741   0.896 -0.8580  0.1040  0.3353
 5926TIP3    H139413   5.996   3.696   0.975 -1.3674 -0.7161 -0.3333
 5926TIP3    H239414   6.013   3.834   0.915 -0.8894 -0.0785  1.2505
 5927TIP3   OH239415   4.299   1.305   0.429  0.6344 -0.2533 -0.0761
 5927TIP3    H139416   4.222   1.295   0.483 -0.2460 -1.6141 -1.5351
 5927TIP3    H239417   4.314   1.399   0.425 -0.8180 -0.0002  0.3983
 5928TIP3   OH239418   3.609   2.085   2.034 -0.2979  0.1029 -0.1767
 5928TIP3    H139419   3.534   2.136   2.063 -2.0653 -1.8795 -1.1886
 5928TIP3    H239420   3.642   2.042   2.113  0.3648  1.6749  0.4275
 5929TIP3   OH239421   3.225   2.067   8.493 -0.5969 -0.0096 -0.3112
 5929TIP3    H139422   3.163   2.007   8.451 -1.1345 -0.6424  1.3672
 5929TIP3    H239423   3.310   2.026   8.480 -0.7368 -0.1139 -0.9263
 5930TIP3   OH239424   4.675   0.134   1.408  0.2027 -0.2111 -0.0627
 5930TIP3    H139425   4.659   0.095   1.322  0.8584 -0.2030 -0.1885
 5930TIP3    H239426   4.626   0.216   1.407  0.2072 -0.2117 -0.4248
 5931TIP3   OH239427   4.671   5.458   1.974 -0.1863  0.0729 -0.3872
 5931TIP3    H139428   4.668   5.551   1.952  1.1640 -0.0712 -1.2062
 5931TIP3    H239429   4.755   5.446   2.019 -1.2238 -0.3840  1.4887
 5932TIP3   OH239430   4.018   6.635   1.953  0.3830 -0.0247 -0.3516
 5932TIP3    H139431   4.061   6.550   1.947 -0.6701 -0.8755  3.0001
 5932TIP3    H239432   4.089   6.696   1.974  0.4425 -0.9363  2.2372
 5933TIP3   OH239433   4.461   5.477   0.372 -0.1196 -0.4274  0.0392
 5933TIP3    H139434   4.372   5.512   0.373  0.6244  1.5787 -0.5620
 5933TIP3    H239435   4.484   5.472   0.279 -0.0316 -2.1295  0.1325
 5934TIP3   OH239436   1.959   3.514   8.291 -0.2582  0.4336 -0.5894
 5934TIP3    H139437   2.013   3.496   8.214 -1.6989  1.6845 -1.9387
 5934TIP3    H239438   1.898   3.440   8.295 -1.4024  1.2909 -1.7851
 5935TIP3   OH239439   4.126   5.273   1.308 -0.3876 -0.0771 -0.2495
 5935TIP3    H139440   4.087   5.360   1.317  1.4481  0.7452 -0.1571
 5935TIP3    H239441   4.219   5.289   1.296 -0.1538 -1.9929 -1.2392
 5936TIP3   OH239442   4.511   3.952   2.344  0.3475  0.0500  0.5661
 5936TIP3    H139443   4.527   3.996   2.260 -1.5643 -0.0128  0.1521
 5936TIP3    H239444   4.506   3.859   2.321 -1.0261  0.1090  0.6104
 5937TIP3   OH239445   3.902   3.247   7.152 -0.0478 -0.1244 -0.4631
 5937TIP3    H139446   3.925   3.336   7.124 -0.1575  0.1257  0.2203
 5937TIP3    H239447   3.873   3.203   7.073 -1.6235  0.9773 -0.5277
 5938TIP3   OH239448   4.461   2.662   1.193 -0.7896 -0.5101  0.1960
 5938TIP3    H139449   4.443   2.729   1.259  2.1148  0.3838  0.1559
 5938TIP3    H239450   4.509   2.594   1.240  1.7797  0.3778 -1.0353
 5939TIP3   OH239451   6.769   4.648   1.017 -0.1172  0.3329 -0.3683
 5939TIP3    H139452   6.674   4.657   1.023 -0.4102 -1.7034 -1.4595
 5939TIP3    H239453   6.799   4.648   1.108 -1.5726 -2.8293  0.1759
 5940TIP3   OH239454   3.954   1.458   1.449  0.2668  0.3674  0.0214
 5940TIP3    H139455   3.887   1.468   1.383  0.4427 -1.7730 -0.5284
 5940TIP3    H239456   3.962   1.545   1.489 -1.1642  1.2090 -1.4610
 5941TIP3   OH239457   3.231   3.817   0.934 -0.3359  1.1523 -0.1954
 5941TIP3    H139458   3.218   3.860   1.018 -2.3131  0.3861 -0.0803
 5941TIP3    H239459   3.267   3.731   0.956 -3.3257 -0.0810  0.0851
 5942TIP3   OH239460   3.846   3.264   8.010 -0.4942  0.2705  0.0741
 5942TIP3    H139461   3.868   3.357   8.001  0.2667 -0.1011 -2.5311
 5942TIP3    H239462   3.755   3.258   7.980  0.6843 -0.3351 -3.6963
 5943TIP3   OH239463   6.989   2.785   6.643 -0.3143  0.2486  0.1556
 5943TIP3    H139464   6.902   2.812   6.673 -1.0757 -1.6357 -0.2529
 5943TIP3    H239465   7.014   2.851   6.578 -2.3130 -0.2448 -1.1648
 5944TIP3   OH239466   5.304   3.686   2.352 -0.2956 -0.0987  0.6981
 5944TIP3    H139467   5.264   3.738   2.422 -1.0396  0.2242  0.0390
 5944TIP3    H239468   5.242   3.691   2.279  1.0660  0.6596 -0.4455
 5945TIP3   OH239469   4.757   2.888   1.011  0.1367  0.0263 -0.4453
 5945TIP3    H139470   4.696   2.895   1.085  0.5411 -3.1398  0.2445
 5945TIP3    H239471   4.744   2.970   0.962 -2.0106  1.0315  1.6761
 5946TIP3   OH239472   3.771   4.592   2.563  0.0801  0.0287 -0.0561
 5946TIP3    H139473   3.796   4.519   2.621 -1.0267 -0.4990 -0.2346
 5946TIP3    H239474   3.837   4.591   2.494 -0.0483 -0.9478 -0.1708
 5947TIP3   OH239475   4.985   4.726   8.087  0.1216 -0.3147  0.0226
 5947TIP3    H139476   4.977   4.645   8.037  2.6300  0.5517 -1.9361
 5947TIP3    H239477   5.068   4.764   8.058  1.0361  0.9325  3.9149
 5948TIP3   OH239478   4.808   3.208   1.441 -0.0295  0.1248 -0.4609
 5948TIP3    H139479   4.755   3.278   1.403  0.0945  0.7946  0.5919
 5948TIP3    H239480   4.744   3.145   1.474 -0.1926  1.1314  1.1822
 5949TIP3   OH239481   3.347   2.601   1.450  0.1945  0.7309 -0.5150
 5949TIP3    H139482   3.423   2.549   1.476  0.1968  2.3357  3.0129
 5949TIP3    H239483   3.381   2.664   1.386  1.1544 -0.5119 -1.2538
 5950TIP3   OH239484   5.161   6.786   1.636 -0.1071 -0.7542 -0.3783
 5950TIP3    H139485   5.255   6.769   1.635  0.1689  0.7151 -0.2000
 5950TIP3    H239486   5.151   6.872   1.595 -1.5328 -1.6092 -1.8635
 5951TIP3   OH239487   3.797   3.269   0.778  0.1983 -0.7914 -0.2778
 5951TIP3    H139488   3.835   3.185   0.802 -1.3133 -1.8612 -1.5407
 5951TIP3    H239489   3.703   3.259   0.795 -0.0046  0.6093 -0.5100
 5952TIP3   OH239490   3.746   4.468   7.888 -0.0179 -0.1641  0.4065
 5952TIP3    H139491   3.758   4.377   7.915 -0.3049 -0.4140 -0.3172
 5952TIP3    H239492   3.835   4.502   7.880  0.1298 -0.8835 -1.0376
 5953TIP3   OH239493   4.769   3.767   1.975 -0.6070  0.8647 -0.6972
 5953TIP3    H139494   4.731   3.819   1.904  1.4180  1.0622 -1.6800
 5953TIP3    H239495   4.861   3.793   1.977 -0.3175 -0.2157  1.0513
 5954TIP3   OH239496   1.546   6.269   0.771 -0.1495  0.2572 -0.1271
 5954TIP3    H139497   1.568   6.190   0.821 -1.6548  0.5773  1.0656
 5954TIP3    H239498   1.607   6.335   0.803 -1.8454  0.7689  2.1608
 5955TIP3   OH239499   5.262   5.475   2.345  0.4724 -0.8753 -0.1200
 5955TIP3    H139500   5.247   5.419   2.421 -0.1191  0.8926  1.1033
 5955TIP3    H239501   5.179   5.520   2.332  1.2440  0.4978 -0.4130
 5956TIP3   OH239502   5.735   6.142   8.218 -0.0773  0.1340  0.1151
 5956TIP3    H139503   5.767   6.227   8.189 -0.2322  0.9353  2.1940
 5956TIP3    H239504   5.692   6.160   8.301  0.7827 -2.1394  1.0937
 5957TIP3   OH239505   6.703   3.494   7.594  0.4116 -0.2523 -0.1950
 5957TIP3    H139506   6.654   3.574   7.617  0.2481 -1.2537  3.1490
 5957TIP3    H239507   6.637   3.435   7.558  0.2164  0.4310 -0.9908
 5958TIP3   OH239508   6.783   6.003   1.110 -0.0638 -0.7947  0.0241
 5958TIP3    H139509   6.736   5.927   1.077 -2.0652 -0.4476  1.9472
 5958TIP3    H239510   6.714   6.067   1.130  1.4157  0.6935  0.4678
 5959TIP3   OH239511   5.898   3.725   1.885  0.1177  0.6783  0.0325
 5959TIP3    H139512   5.925   3.784   1.955  1.1834  1.1848 -0.7905
 5959TIP3    H239513   5.885   3.640   1.929 -0.4175  1.2675  1.0376
 5960TIP3   OH239514   5.917   4.207   7.308 -0.1312 -0.2205  0.2330
 5960TIP3    H139515   5.829   4.217   7.342  0.7802  1.0194  2.3010
 5960TIP3    H239516   5.933   4.287   7.258  0.2713  0.1212  0.9057
 5961TIP3   OH239517   5.598   4.444   1.256 -0.0943 -0.2489  0.0726
 5961TIP3    H139518   5.530   4.486   1.310 -0.0792 -1.0221  0.6972
 5961TIP3    H239519   5.664   4.417   1.319  0.8977  0.6872 -0.5597
 5962TIP3   OH239520   7.051   4.759   1.635 -0.0239  0.2604 -0.1198
 5962TIP3    H139521   7.137   4.795   1.657 -0.9590  1.4720  1.7053
 5962TIP3    H239522   7.070   4.683   1.580  2.1736  0.8820 -0.2712
 5963TIP3   OH239523   4.624   6.551   1.165  0.1526  0.0561 -0.4306
 5963TIP3    H139524   4.685   6.617   1.199  0.6934 -0.4096 -0.4758
 5963TIP3    H239525   4.592   6.587   1.083  0.7983  0.0619 -0.6842
 5964TIP3   OH239526   6.919   5.752   0.094  0.0789  0.3031 -0.5455
 5964TIP3    H139527   6.952   5.840   0.078 -1.3833  0.9715  0.0280
 5964TIP3    H239528   6.898   5.751   0.188 -1.1044 -0.2382 -0.8036
 5965TIP3   OH239529   5.872   6.054   0.481 -0.8622 -0.4077 -0.1901
 5965TIP3    H139530   5.868   6.145   0.508 -0.2796 -0.0110 -1.3897
 5965TIP3    H239531   5.950   6.048   0.426 -0.4308 -1.8164  0.5487
 5966TIP3   OH239532   3.862   5.787   0.368  0.1606 -0.1064  0.2163
 5966TIP3    H139533   3.835   5.718   0.307 -0.9992  1.5080 -1.1425
 5966TIP3    H239534   3.850   5.868   0.319  0.7881  1.1168  2.0526
 5967TIP3   OH239535   6.401   6.141   1.356  0.6206  0.0337  0.3643
 5967TIP3    H139536   6.410   6.109   1.445  0.9193  1.0348  0.7029
 5967TIP3    H239537   6.490   6.135   1.319  1.0415  2.0547  0.9894
 5968TIP3   OH239538   4.319   3.787   1.179 -0.1157  0.2696  0.0448
 5968TIP3    H139539   4.273   3.851   1.125  0.3777  0.4997 -0.1134
 5968TIP3    H239540   4.251   3.743   1.229 -0.5136  0.5165 -0.2804
 5969TIP3   OH239541   6.220   6.332   1.348 -0.0923 -0.4329 -0.1399
 5969TIP3    H139542   6.265   6.257   1.386 -0.9129  0.9069  3.7162
 5969TIP3    H239543   6.290   6.390   1.319  0.5459 -2.0273 -1.9269
 5970TIP3   OH239544   5.387   5.419   1.914  0.1816  0.3455  0.0727
 5970TIP3    H139545   5.345   5.478   1.976  0.5321  0.8512 -0.1692
 5970TIP3    H239546   5.468   5.392   1.958 -0.0811 -0.1263  0.2720
 5971TIP3   OH239547   4.008   4.561   2.392 -0.2357 -0.1874  0.2463
 5971TIP3    H139548   4.096   4.529   2.413 -0.1160 -0.1245 -0.1600
 5971TIP3    H239549   4.021   4.654   2.371 -0.4387 -0.1118  0.4535
 5972TIP3   OH239550   4.447   4.437   1.861 -0.0655  0.0448 -0.2233
 5972TIP3    H139551   4.369   4.455   1.914 -0.1328  0.0719 -0.3329
 5972TIP3    H239552   4.502   4.384   1.919 -0.6711 -0.9671 -0.5545
 5973TIP3   OH239553   7.201   4.090   0.580  0.8612 -0.4549  0.0224
 5973TIP3    H139554   7.285   4.050   0.602  0.6282 -0.3488  1.1371
 5973TIP3    H239555   7.222   4.180   0.555  1.1339 -0.5903 -0.2387
 5974TIP3   OH239556   4.385   4.454   1.121  0.0145 -0.3314  0.1400
 5974TIP3    H139557   4.321   4.415   1.061  0.7317  0.7596 -1.3666
 5974TIP3    H239558   4.339   4.461   1.204 -1.6083 -0.1579 -0.7531
 5975TIP3   OH239559   6.232   4.392   0.662 -0.2674 -0.1843  0.5216
 5975TIP3    H139560   6.269   4.427   0.580  0.6722 -0.3143  0.8875
 5975TIP3    H239561   6.149   4.352   0.635 -0.1919  0.1891 -0.2934
 5976TIP3   OH239562   4.681   3.904   0.483  0.2854  0.0909 -0.2053
 5976TIP3    H139563   4.712   3.815   0.466 -0.7146 -0.2406 -0.3277
 5976TIP3    H239564   4.648   3.901   0.573  1.8153  0.7786  0.3763
 5977TIP3   OH239565   5.384   2.773   1.139 -0.5652  0.1509  0.4739
 5977TIP3    H139566   5.339   2.784   1.223 -1.2697 -1.7462  0.3509
 5977TIP3    H239567   5.364   2.853   1.091 -1.4276  0.5742  1.5083
 5978TIP3   OH239568   5.005   6.294   2.214  0.0958 -0.1966 -0.3216
 5978TIP3    H139569   4.929   6.237   2.202  0.9914 -1.0912 -1.8868
 5978TIP3    H239570   5.070   6.239   2.258 -0.0515  0.4847  0.7715
 5979TIP3   OH239571   4.060   2.355   0.954  0.3027 -0.1092 -0.4055
 5979TIP3    H139572   4.073   2.272   0.999  1.4888  0.1652 -0.2079
 5979TIP3    H239573   3.966   2.370   0.957  0.0204 -1.6871 -0.8754
 5980TIP3   OH239574   0.009   6.553   0.834  0.1873  0.0203 -0.5206
 5980TIP3    H139575   0.094   6.570   0.875 -0.3098 -0.8114  0.9070
 5980TIP3    H239576  -0.050   6.616   0.875 -0.4145 -1.1324  0.4418
 5981TIP3   OH239577   2.164   6.587   0.923 -0.1133  0.0695  0.7598
 5981TIP3    H139578   2.191   6.625   1.006  0.6238  1.5739 -0.1427
 5981TIP3    H239579   2.197   6.497   0.926  0.6019  0.3536  1.7641
 5982TIP3   OH239580   6.359   6.016   8.057  0.3774 -0.1057 -0.1636
 5982TIP3    H139581   6.297   6.066   8.110  0.8530  1.7082 -1.2620
 5982TIP3    H239582   6.407   6.082   8.007 -0.1636 -1.7292 -2.9849
 5983TIP3   OH239583   5.790   4.355   7.019 -0.3492 -1.0077 -0.4207
 5983TIP3    H139584   5.744   4.348   7.102  0.6901 -1.9462  0.0773
 5983TIP3    H239585   5.850   4.429   7.031 -0.4516 -0.9182 -0.4581
 5984TIP3   OH239586   4.136   6.756   8.101 -0.1748 -0.0414 -0.2862
 5984TIP3    H139587   4.173   6.705   8.173  1.5856  0.4427 -0.8194
 5984TIP3    H239588   4.044   6.730   8.098  0.1370 -1.3807  0.9972
 5985TIP3   OH239589   5.067   6.240   1.399  0.2085  0.4405 -0.0136
 5985TIP3    H139590   5.032   6.213   1.484  0.8215 -2.3311 -0.5967
 5985TIP3    H239591   5.026   6.181   1.336  1.2423  1.2025 -1.4216
 5986TIP3   OH239592   1.957   5.312   1.901 -0.6039 -0.1034 -0.0792
 5986TIP3    H139593   1.970   5.383   1.964  2.3909 -1.0375  0.4399
 5986TIP3    H239594   1.916   5.242   1.951  2.8557 -1.2913  1.2331
 5987TIP3   OH239595   2.440   5.017   8.481 -0.0005  0.3524 -0.1450
 5987TIP3    H139596   2.377   5.046   8.414  0.0006  1.3105  0.2496
 5987TIP3    H239597   2.413   4.928   8.503 -0.2069  0.1552 -1.1755
 5988TIP3   OH239598   6.260   0.676   6.985  0.8706 -0.2268  0.9361
 5988TIP3    H139599   6.288   0.593   7.023  0.1487 -0.4480  0.9973
 5988TIP3    H239600   6.221   0.652   6.901  0.3589  0.0064  1.1007
 5989TIP3   OH239601   3.619   6.205   6.937  0.2030 -0.1101 -0.3037
 5989TIP3    H139602   3.713   6.187   6.945 -0.0310 -2.0212 -1.5340
 5989TIP3    H239603   3.607   6.290   6.980  2.0852 -0.9523  1.9868
 5990TIP3   OH239604   5.485   3.791   2.597  0.0131 -0.4715  0.5190
 5990TIP3    H139605   5.390   3.789   2.589  0.1078  1.3225 -1.6127
 5990TIP3    H239606   5.501   3.820   2.687 -1.5118  1.7496  0.1305
 5991TIP3   OH239607   3.022   5.403   0.004  0.3024  0.0768 -0.4569
 5991TIP3    H139608   3.058   5.489   0.030  0.3297 -0.0262 -0.1458
 5991TIP3    H239609   3.085   5.340   0.039  0.6244 -0.0468 -1.2588
 5992TIP3   OH239610   6.351   4.562   2.072 -0.0346 -0.1682 -0.3803
 5992TIP3    H139611   6.259   4.535   2.077 -0.4507  1.4464  1.1561
 5992TIP3    H239612   6.392   4.516   2.145 -0.1306  0.9991  0.4149
 5993TIP3   OH239613   5.993   1.225   8.427  0.0189 -0.5115  0.0512
 5993TIP3    H139614   5.972   1.314   8.398  1.0897 -0.1233  0.4512
 5993TIP3    H239615   5.919   1.200   8.482  0.4002  0.6943  1.1475
 5994TIP3   OH239616   4.555   4.047   2.082  0.1647 -0.3525 -0.0197
 5994TIP3    H139617   4.483   4.003   2.036  0.6316 -0.4918 -0.6358
 5994TIP3    H239618   4.633   4.021   2.033  0.5637  0.2989  0.2690
 5995TIP3   OH239619   5.598   4.708   7.400 -0.0204 -0.1771 -0.4152
 5995TIP3    H139620   5.673   4.686   7.345  0.4740  0.8707 -0.1819
 5995TIP3    H239621   5.633   4.710   7.489 -0.3043  0.3953 -0.3132
 5996TIP3   OH239622   4.645   4.089   6.325  0.1712 -0.2542  0.2803
 5996TIP3    H139623   4.553   4.104   6.347  0.6368  1.3916  1.1754
 5996TIP3    H239624   4.657   4.133   6.241 -0.6364 -3.2325 -1.4566
 5997TIP3   OH239625   4.040   5.382   6.999 -0.0811  0.1850  0.3484
 5997TIP3    H139626   4.028   5.388   6.904 -1.1368  1.6041  0.5524
 5997TIP3    H239627   4.110   5.444   7.018  0.5335 -0.5334  0.4266
 5998TIP3   OH239628   3.793   2.390   0.991 -0.3247 -0.0915 -0.5294
 5998TIP3    H139629   3.772   2.464   1.048 -0.9165  0.9912 -2.1089
 5998TIP3    H239630   3.756   2.314   1.035  0.1038  0.5734  1.0116
 5999TIP3   OH239631   2.635   2.509   2.203 -0.1695  0.1241 -0.2805
 5999TIP3    H139632   2.671   2.483   2.288  0.1442 -1.0190 -0.7501
 5999TIP3    H239633   2.554   2.458   2.195  0.4909 -0.8173 -1.2463
 6000TIP3   OH239634   2.328   5.311   0.460 -0.0569 -0.3107 -0.4408
 6000TIP3    H139635   2.243   5.269   0.453  0.0512 -0.4900 -0.7165
 6000TIP3    H239636   2.390   5.244   0.430 -0.1067  0.8517 -3.3365
 6001TIP3   OH239637   3.633   4.986   0.455 -0.8222  0.4725  0.3764
 6001TIP3    H139638   3.628   5.017   0.365  0.7330  0.7673  0.3686
 6001TIP3    H239639   3.637   5.065   0.509 -1.2387  0.2977  0.6698
 6002TIP3   OH239640   3.275   0.953   1.087  0.2495  0.1918  1.4368
 6002TIP3    H139641   3.254   0.936   1.179  1.7280 -0.3016  1.6950
 6002TIP3    H239642   3.310   1.042   1.087  0.6810  0.0267  1.4392
 6003TIP3   OH239643   4.300   4.038   7.323  0.5904  0.1212 -0.3922
 6003TIP3    H139644   4.286   4.030   7.229 -0.4466 -0.2345 -0.2135
 6003TIP3    H239645   4.360   3.967   7.345  0.6330  0.0489 -0.7457
 6004TIP3   OH239646   5.181   5.055   6.799 -0.1317 -0.2223 -0.2907
 6004TIP3    H139647   5.202   4.963   6.785  0.2260 -0.0428 -0.9760
 6004TIP3    H239648   5.180   5.093   6.711 -0.7159  0.3329 -0.0477
 6005TIP3   OH239649   4.571   6.655   0.392  0.0975  0.0611 -0.2321
 6005TIP3    H139650   4.595   6.613   0.475  1.1501  1.9854  0.4856
 6005TIP3    H239651   4.581   6.586   0.326 -1.5355 -1.7276  1.3139
 6006TIP3   OH239652   2.635   4.665   8.068  0.0312 -0.8439 -0.0417
 6006TIP3    H139653   2.671   4.663   7.980  0.0369  1.2078 -0.1141
 6006TIP3    H239654   2.608   4.756   8.081 -1.6786 -1.5148  1.3855
 6007TIP3   OH239655   3.367   5.610   0.002 -0.1870  0.1989  0.2970
 6007TIP3    H139656   3.451   5.657   0.004 -1.1264  1.9027  1.6040
 6007TIP3    H239657   3.322   5.646  -0.074 -0.6638  1.0463  0.9569
 6008TIP3   OH239658   3.364   5.165   0.225  0.0124 -0.5062  0.4609
 6008TIP3    H139659   3.348   5.258   0.211  1.8298 -0.0536  1.3072
 6008TIP3    H239660   3.310   5.143   0.301 -2.5200 -0.7990 -1.3651
 6009TIP3   OH239661   3.822   1.671   1.079 -0.1115  0.2963 -0.1506
 6009TIP3    H139662   3.728   1.683   1.068 -0.3223 -0.2390  1.0000
 6009TIP3    H239663   3.854   1.652   0.991 -0.8665  1.8411 -0.7846
 6010TIP3   OH239664   3.793   3.785   1.797 -0.3531  1.0725  0.4518
 6010TIP3    H139665   3.727   3.754   1.735 -0.8226  2.0429  0.4594
 6010TIP3    H239666   3.876   3.760   1.757 -0.6916  0.5845  0.0379
 6011TIP3   OH239667   0.095   3.895   2.143  0.2431 -0.2422 -0.1851
 6011TIP3    H139668   0.164   3.934   2.196  0.2458 -0.5220  0.0131
 6011TIP3    H239669   0.014   3.934   2.177  0.2237 -0.6015  0.1825
 6012TIP3   OH239670   7.296   2.651   1.971 -0.1963 -0.0954 -0.4900
 6012TIP3    H139671   7.252   2.620   2.050  0.1750 -1.5586 -0.8432
 6012TIP3    H239672   7.348   2.577   1.941 -1.9007 -0.2754 -3.2266
 6013TIP3   OH239673   4.108   3.812   7.716  0.0070 -0.2868  0.2977
 6013TIP3    H139674   4.118   3.880   7.649 -0.2978  0.9105  1.4492
 6013TIP3    H239675   4.104   3.730   7.666 -0.2615  0.5865 -1.1521
 6014TIP3   OH239676   3.080   4.436   2.144 -0.5633 -0.0979  0.4261
 6014TIP3    H139677   3.025   4.500   2.189  0.2588  2.9130 -2.7010
 6014TIP3    H239678   3.020   4.390   2.085 -0.7127 -0.7043  1.0335
 6015TIP3   OH239679   6.071   5.901   0.942 -0.7274  0.6761 -0.2527
 6015TIP3    H139680   6.039   5.975   0.890 -1.2420  0.8601  0.3127
 6015TIP3    H239681   6.091   5.833   0.878 -1.7107  0.7680 -0.6631
 6016TIP3   OH239682   2.901   5.841   2.195 -0.3212  0.1044  0.1662
 6016TIP3    H139683   2.942   5.830   2.109 -0.8386 -0.0505 -0.0610
 6016TIP3    H239684   2.811   5.812   2.182 -0.5944  0.7623  0.5880
 6017TIP3   OH239685   5.644   4.150   0.847 -0.0294  0.2555 -0.4968
 6017TIP3    H139686   5.669   4.212   0.915 -0.8905  0.2523 -0.1791
 6017TIP3    H239687   5.560   4.114   0.876 -1.0209  1.1804 -2.1659
 6018TIP3   OH239688   6.517   5.826   7.942 -0.3297 -0.6052 -0.2548
 6018TIP3    H139689   6.590   5.886   7.927 -1.6270  0.9786 -0.4792
 6018TIP3    H239690   6.465   5.870   8.010 -1.5280 -1.2630 -0.7304
 6019TIP3   OH239691   3.989   3.654   1.654 -0.4022 -0.3709 -0.6471
 6019TIP3    H139692   3.970   3.577   1.600  0.7196 -1.6735  0.7712
 6019TIP3    H239693   4.003   3.725   1.591 -2.0960 -1.1580 -1.9551
 6020TIP3   OH239694   6.701   6.014   0.802  0.1343  0.6060  0.3323
 6020TIP3    H139695   6.719   6.008   0.708 -0.9194  2.0909  0.0004
 6020TIP3    H239696   6.776   6.061   0.838  1.0104 -0.8237  0.4109
 6021TIP3   OH239697   0.251   3.118   1.193  0.4992 -0.1077  0.1718
 6021TIP3    H139698   0.335   3.159   1.170  0.3806  0.5467  0.8803
 6021TIP3    H239699   0.186   3.183   1.169  0.3846  0.6498  2.4813
 6022TIP3   OH239700   3.824   0.126   1.374 -0.2279  0.0054  0.0932
 6022TIP3    H139701   3.783   0.212   1.389  0.4049  0.3207  0.0508
 6022TIP3    H239702   3.849   0.127   1.282 -1.5547 -0.8175 -0.2924
 6023TIP3   OH239703   4.144   0.737   0.060  0.0463  0.3061 -0.6781
 6023TIP3    H139704   4.050   0.725   0.047  0.2766 -1.7277 -0.6453
 6023TIP3    H239705   4.173   0.788  -0.016 -1.0626  0.8383 -0.7418
 6024TIP3   OH239706   6.738   5.089   7.377 -0.1248  0.0766 -0.3180
 6024TIP3    H139707   6.746   5.184   7.368  1.7954 -0.1114 -0.8283
 6024TIP3    H239708   6.693   5.076   7.461 -3.0331  1.4803 -1.5888
 6025TIP3   OH239709   5.981   2.076   1.669 -0.3602  0.4474 -0.3212
 6025TIP3    H139710   6.023   2.061   1.585 -1.1636  0.1749 -0.6828
 6025TIP3    H239711   6.010   2.003   1.724  0.4145  0.7979 -0.2593
 6026TIP3   OH239712   0.014   4.814   6.573 -0.2931 -0.2402  0.2839
 6026TIP3    H139713   0.078   4.885   6.571 -0.3246 -0.1643  1.5386
 6026TIP3    H239714   0.059   4.740   6.531  0.1213  0.2243 -0.0884
 6027TIP3   OH239715   7.168   5.854   1.222  0.0952  0.1114  0.0131
 6027TIP3    H139716   7.104   5.924   1.237  2.4082  2.2522  0.2365
 6027TIP3    H239717   7.191   5.824   1.310 -0.4095 -0.4711 -0.0548
 6028TIP3   OH239718   4.895   1.387   0.794  0.0365  0.0011  1.3164
 6028TIP3    H139719   4.964   1.418   0.735 -0.3300  1.6367  1.7330
 6028TIP3    H239720   4.903   1.291   0.791  2.3818  0.1539  1.4182
 6029TIP3   OH239721   6.171   5.072   7.895  0.5907  0.3437  0.1421
 6029TIP3    H139722   6.255   5.087   7.938  1.6409 -3.2417 -0.4274
 6029TIP3    H239723   6.106   5.109   7.954  2.3425 -0.0687  2.3843
 6030TIP3   OH239724   4.998   4.026   8.418  0.3787 -0.0593 -0.1175
 6030TIP3    H139725   4.961   3.941   8.445  0.2058  0.1070  0.1700
 6030TIP3    H239726   4.974   4.086   8.489  0.1643  0.3193 -0.5103
 6031TIP3   OH239727   5.946   6.795   7.541 -0.5880  0.3105 -0.2252
 6031TIP3    H139728   5.941   6.816   7.634  2.0914  0.1854 -0.0397
 6031TIP3    H239729   5.890   6.718   7.531 -1.0831  0.4707  1.2193
 6032TIP3   OH239730   6.138   6.723   7.219 -0.8680  0.3699  0.0489
 6032TIP3    H139731   6.099   6.805   7.190 -1.3623 -0.0371 -0.4690
 6032TIP3    H239732   6.097   6.657   7.163  0.4115 -0.0905 -0.3640
 6033TIP3   OH239733   5.513   3.506   2.269  0.0464  0.3410 -0.7342
 6033TIP3    H139734   5.460   3.561   2.327  0.3799  1.4954 -1.4972
 6033TIP3    H239735   5.559   3.569   2.212  0.1911 -0.7475 -1.8392
 6034TIP3   OH239736   4.667   5.853   8.256 -0.2095 -0.0301  0.3850
 6034TIP3    H139737   4.720   5.930   8.276  0.7390 -0.4082 -0.5600
 6034TIP3    H239738   4.591   5.860   8.313 -0.4916  1.9783 -0.2062
 6035TIP3   OH239739   0.393   6.050   0.787  0.5613  0.6856  0.3223
 6035TIP3    H139740   0.361   6.115   0.725  0.7995  0.8726  0.3997
 6035TIP3    H239741   0.483   6.076   0.806  1.4933 -1.0032 -1.4918
 6036TIP3   OH239742   1.443   4.551   0.809  0.4563  0.2682  0.2571
 6036TIP3    H139743   1.417   4.597   0.888 -0.2037 -0.6800  0.5949
 6036TIP3    H239744   1.454   4.620   0.743 -0.4294  0.9132  0.7845
 6037TIP3   OH239745   6.318   3.791   8.489 -0.5158 -0.2701 -0.6064
 6037TIP3    H139746   6.350   3.881   8.490 -0.1044 -0.4193  1.2399
 6037TIP3    H239747   6.371   3.747   8.422  1.9043 -0.0671  1.1247
 6038TIP3   OH239748   5.690   4.533   8.415 -0.5230  0.2902 -0.2285
 6038TIP3    H139749   5.727   4.455   8.458  0.4115  1.7125  1.6071
 6038TIP3    H239750   5.754   4.555   8.348 -0.5292 -0.2126 -0.4057
 6039TIP3   OH239751   0.969   3.010   1.645  0.5758 -0.2590 -0.4257
 6039TIP3    H139752   0.900   3.061   1.687  1.5089  1.6422 -1.1351
 6039TIP3    H239753   0.953   2.920   1.672 -0.5073  0.5503  1.7047
 6040TIP3   OH239754   1.172   6.299   1.927  0.0912 -0.4857  0.1219
 6040TIP3    H139755   1.161   6.371   1.866  0.9225 -0.8500 -0.4709
 6040TIP3    H239756   1.188   6.341   2.012  1.8357  0.0610 -0.4464
 6041TIP3   OH239757   2.176   4.865   1.272 -0.0763  0.1461 -0.1601
 6041TIP3    H139758   2.268   4.863   1.245  0.2823 -1.0868  1.1186
 6041TIP3    H239759   2.143   4.777   1.253 -1.0340  0.6140 -0.7256
 6042TIP3   OH239760   2.603   4.770   1.540  0.1872  0.1649  0.0109
 6042TIP3    H139761   2.675   4.801   1.484  1.5698 -0.2112  1.5537
 6042TIP3    H239762   2.535   4.837   1.530  1.1670  1.0779 -0.6301
 6043TIP3   OH239763   4.297   4.054   1.350 -0.2631  0.0001 -0.5403
 6043TIP3    H139764   4.266   4.138   1.384  0.8799  0.0363  0.4585
 6043TIP3    H239765   4.292   3.994   1.425 -1.7831 -1.0343 -1.4313
 6044TIP3   OH239766   5.596   5.508   1.032  0.4003  0.8597  0.0847
 6044TIP3    H139767   5.600   5.592   1.078 -0.1797  1.2078 -0.4864
 6044TIP3    H239768   5.522   5.517   0.972  0.5732  0.0761 -0.2553
 6045TIP3   OH239769   6.937   5.157   2.090 -0.1166 -0.0148  0.5792
 6045TIP3    H139770   6.918   5.251   2.098  1.7310  0.4574 -0.4318
 6045TIP3    H239771   7.000   5.139   2.161 -1.6554 -0.8517  1.7748
 6046TIP3   OH239772   0.341   6.958   7.212 -0.4772 -0.4092  0.0942
 6046TIP3    H139773   0.356   6.935   7.304 -0.4551 -0.2860  0.1197
 6046TIP3    H239774   0.257   7.003   7.212 -0.8452 -1.0810 -0.0473
 6047TIP3   OH239775   6.343   4.550   6.944 -0.2207  0.4264  0.2338
 6047TIP3    H139776   6.280   4.622   6.945  1.0362  1.6738 -3.1917
 6047TIP3    H239777   6.416   4.581   6.996 -0.6759  0.6535  0.7426
 6048TIP3   OH239778   5.656   4.071   1.956  0.1963  0.0343  0.3232
 6048TIP3    H139779   5.602   4.059   1.878 -0.9797  1.5590  0.8698
 6048TIP3    H239780   5.620   4.011   2.021 -1.8203  2.0694  1.1477
 6049TIP3   OH239781   2.231   5.954   0.490  0.0324 -0.3256 -0.2855
 6049TIP3    H139782   2.150   5.953   0.439  0.1970 -2.1997 -0.5466
 6049TIP3    H239783   2.205   5.989   0.576 -0.6446  0.9063 -0.9802
 6050TIP3   OH239784   5.525   5.753   1.767 -0.1772 -0.8917 -0.1485
 6050TIP3    H139785   5.495   5.799   1.845 -0.3060 -0.4635 -0.4424
 6050TIP3    H239786   5.604   5.706   1.794 -0.3630 -0.9499  0.2978
 6051TIP3   OH239787   6.488   4.704   6.604  0.5817 -0.1836  0.0585
 6051TIP3    H139788   6.419   4.646   6.638  1.5480 -0.7201  1.1581
 6051TIP3    H239789   6.550   4.644   6.562  0.8157  0.2036 -0.1420
 6052TIP3   OH239790   5.670   3.460   1.251 -0.2004 -0.1821 -0.1967
 6052TIP3    H139791   5.706   3.517   1.319 -0.6029 -1.7170  1.3629
 6052TIP3    H239792   5.745   3.439   1.195  0.0363  1.4733 -0.5292
 6053TIP3   OH239793   5.803   6.398   6.766 -0.0888 -0.2481 -0.7515
 6053TIP3    H139794   5.785   6.443   6.849  0.9242  0.1284 -0.7279
 6053TIP3    H239795   5.749   6.444   6.701 -1.9448 -1.4170 -0.0802
 6054TIP3   OH239796   3.878   4.296   6.423  0.0590 -0.2468 -0.1478
 6054TIP3    H139797   3.889   4.316   6.330  1.4817 -0.6200 -0.0682
 6054TIP3    H239798   3.784   4.280   6.433  0.2644 -3.2119 -2.1672
 6055TIP3   OH239799   2.986   3.657   0.498  0.0732  0.2970 -0.4216
 6055TIP3    H139800   3.035   3.593   0.548  0.2270  0.2335 -0.6528
 6055TIP3    H239801   2.988   3.737   0.552  0.5958  0.3511 -0.5208
 6056TIP3   OH239802   0.450   6.019   1.786  0.3878  0.1362  0.3386
 6056TIP3    H139803   0.464   6.068   1.866  1.1764 -0.6889  0.7119
 6056TIP3    H239804   0.468   6.081   1.716  2.6233  0.0567  0.7967
 6057TIP3   OH239805   4.745   3.403   7.703  0.1563  0.7851  0.5171
 6057TIP3    H139806   4.708   3.335   7.760  0.5588 -0.9388 -1.2630
 6057TIP3    H239807   4.820   3.437   7.752  0.2106 -0.3355  1.2180
 6058TIP3   OH239808   5.027   5.013   2.075  0.0469  0.1006  0.1304
 6058TIP3    H139809   5.113   4.975   2.092 -0.1254  0.3884  1.7134
 6058TIP3    H239810   4.987   5.021   2.161 -0.3730  2.7698 -0.2700
 6059TIP3   OH239811   2.529   0.634   6.561  0.6551 -0.0223 -0.5745
 6059TIP3    H139812   2.482   0.710   6.526  0.9798  0.3794 -0.1539
 6059TIP3    H239813   2.522   0.643   6.656  2.3547  0.5500 -0.4829
 6060TIP3   OH239814   7.311   5.065   2.715 -0.0144  0.2189 -0.2291
 6060TIP3    H139815   7.241   5.116   2.676 -1.0097 -0.1644  1.0026
 6060TIP3    H239816   7.280   4.974   2.712  0.7256 -0.0368 -0.3000
 6061TIP3   OH239817   5.070   2.755   6.820  0.0567  0.7752  0.2664
 6061TIP3    H139818   5.151   2.708   6.838  0.6540  1.5361 -0.4531
 6061TIP3    H239819   5.097   2.846   6.803 -0.9874  1.1600  0.5809
 6062TIP3   OH239820   5.063   2.444   6.852 -0.0609  0.4674 -0.4271
 6062TIP3    H139821   5.118   2.498   6.910  3.3735 -2.1915 -1.0272
 6062TIP3    H239822   5.010   2.392   6.912  0.1931  0.9701  0.2466
 6063TIP3   OH239823   5.322   1.576   0.904  0.1343 -0.2884 -0.1675
 6063TIP3    H139824   5.255   1.569   0.972  0.6469 -0.0246  0.3777
 6063TIP3    H239825   5.309   1.499   0.849 -0.5557 -0.2843 -0.0069
 6064TIP3   OH239826   6.994   3.013   1.408 -0.1988  0.2217 -0.1729
 6064TIP3    H139827   7.037   3.090   1.373  1.6506 -0.0961  1.3397
 6064TIP3    H239828   7.063   2.948   1.418 -0.8687 -0.1376  2.7688
 6065TIP3   OH239829   0.623   5.718   0.254  0.1421  0.3596 -0.3664
 6065TIP3    H139830   0.679   5.642   0.269 -1.3729 -0.7169 -0.0901
 6065TIP3    H239831   0.621   5.728   0.159  0.6710  0.3125 -0.3851
 6066TIP3   OH239832   0.217   4.813   1.762  0.2128 -0.2175 -0.1774
 6066TIP3    H139833   0.286   4.869   1.727  0.5955  0.0050  0.8984
 6066TIP3    H239834   0.265   4.742   1.806 -0.2316 -0.0253  0.6346
 6067TIP3   OH239835   7.187   5.198   1.630  0.5281  0.0980 -0.1492
 6067TIP3    H139836   7.279   5.205   1.655  0.3190  0.3626  0.5589
 6067TIP3    H239837   7.189   5.157   1.544  1.2359 -1.4735  0.5964
 6068TIP3   OH239838   4.910   3.739   7.742 -0.3107 -0.3044 -0.3856
 6068TIP3    H139839   4.909   3.746   7.838 -0.9091  2.1636 -0.5380
 6068TIP3    H239840   4.842   3.799   7.713  0.1605 -0.7091 -2.4007
 6069TIP3   OH239841   4.973   4.412   0.172  0.5024 -0.6332 -0.2972
 6069TIP3    H139842   5.030   4.373   0.238 -0.1966  1.5037  1.6160
 6069TIP3    H239843   4.892   4.433   0.219  0.0700  1.1232 -1.7522
 6070TIP3   OH239844   1.585   6.947   2.390 -0.4379 -0.4797  0.1533
 6070TIP3    H139845   1.564   6.880   2.455 -0.0430 -1.6022 -0.8595
 6070TIP3    H239846   1.670   6.921   2.356 -0.0147  0.8681  0.1583
 6071TIP3   OH239847   0.379   2.962   2.336  0.3954  0.2064  0.5729
 6071TIP3    H139848   0.339   3.012   2.407 -0.5719 -0.7055  0.6926
 6071TIP3    H239849   0.383   2.872   2.369 -1.0324 -0.4201 -0.8942
 6072TIP3   OH239850   6.945   6.929   0.090 -0.0389 -0.4342  0.3139
 6072TIP3    H139851   6.947   7.022   0.066  0.4996 -0.3344  0.7227
 6072TIP3    H239852   6.868   6.920   0.146 -0.3067 -0.3136 -0.0332
 6073TIP3   OH239853   6.586   4.744   2.234  0.6330 -0.4389 -0.2906
 6073TIP3    H139854   6.649   4.760   2.304  0.4394 -2.3287  0.3384
 6073TIP3    H239855   6.501   4.744   2.277  0.1674  2.1600 -1.1494
 6074TIP3   OH239856   1.316   6.338   0.620 -0.6475 -0.4264 -0.6582
 6074TIP3    H139857   1.268   6.262   0.589  0.8580 -1.7294  0.1590
 6074TIP3    H239858   1.394   6.302   0.663  0.5889  1.5965 -1.1159
 6075TIP3   OH239859   3.656   4.103   7.921  0.4312 -0.2667 -0.8232
 6075TIP3    H139860   3.626   4.038   7.858 -0.4104  0.5374 -1.2614
 6075TIP3    H239861   3.613   4.184   7.894 -0.1326  0.0346  0.9199
 6076TIP3   OH239862   6.306   4.591   0.092  0.4102  0.2782  0.3149
 6076TIP3    H139863   6.400   4.607   0.107  0.2219  0.4002  1.4486
 6076TIP3    H239864   6.278   4.664   0.037  1.4776 -1.0145 -1.9974
 6077TIP3   OH239865   5.332   0.066   0.352 -0.1348 -0.7011  0.3598
 6077TIP3    H139866   5.309   0.109   0.434  0.9658  1.6637 -0.5339
 6077TIP3    H239867   5.269   0.101   0.288 -0.6680 -2.1419  0.0869
 6078TIP3   OH239868   4.744   5.548   7.890  0.3946 -0.5526 -0.1815
 6078TIP3    H139869   4.768   5.572   7.979 -0.9331 -0.5997  0.1889
 6078TIP3    H239870   4.784   5.615   7.835 -0.3569  0.5214  0.5882
 6079TIP3   OH239871   4.566   3.643   7.074  0.0319 -0.2978  0.1072
 6079TIP3    H139872   4.547   3.684   7.159  3.1895  0.6797  0.4191
 6079TIP3    H239873   4.640   3.585   7.091  1.9773  1.3578 -2.3272
 6080TIP3   OH239874   7.299   5.110   1.334  0.2741 -0.5352 -0.3214
 6080TIP3    H139875   7.380   5.094   1.382  0.2710 -0.7989 -0.4046
 6080TIP3    H239876   7.304   5.202   1.308  0.1965 -0.3496  0.3262
 6081TIP3   OH239877   6.203   1.586   1.336 -0.4710 -0.3595 -0.3869
 6081TIP3    H139878   6.276   1.583   1.398  0.6118 -0.3449 -1.6460
 6081TIP3    H239879   6.209   1.673   1.297  0.8407 -1.5325 -2.8646
 6082TIP3   OH239880   6.105   5.468   2.116 -0.0138  0.6890  0.2308
 6082TIP3    H139881   6.178   5.473   2.178 -0.6001  0.7405  0.9258
 6082TIP3    H239882   6.040   5.529   2.150 -1.5755 -1.4716  1.2424
 6083TIP3   OH239883   5.031   3.157   1.577 -0.0247  0.5125  0.3013
 6083TIP3    H139884   4.950   3.174   1.529 -0.2005 -1.1243  0.0138
 6083TIP3    H239885   5.015   3.195   1.664 -2.2446 -2.3482  1.2157
 6084TIP3   OH239886   4.823   6.595   0.092 -0.2920  0.0452 -0.5357
 6084TIP3    H139887   4.783   6.527   0.146  0.2758 -0.2667 -0.5015
 6084TIP3    H239888   4.752   6.656   0.074 -0.2866  0.6795  1.3969
 6085TIP3   OH239889   5.688   3.261   8.209 -0.4086  0.5775  0.6313
 6085TIP3    H139890   5.674   3.344   8.254  0.0430  1.0952 -0.1741
 6085TIP3    H239891   5.633   3.266   8.131 -0.7963 -0.1057  0.8562
 6086TIP3   OH239892   6.497   2.370   1.310 -0.0759  0.4770 -0.1071
 6086TIP3    H139893   6.533   2.334   1.391  2.3427  2.3240 -0.3231
 6086TIP3    H239894   6.408   2.397   1.333 -0.4938 -1.7607  1.1125
 6087TIP3   OH239895   4.831   4.073   1.974 -0.1625 -0.1369 -0.2499
 6087TIP3    H139896   4.892   3.999   1.969 -0.7218 -0.6041 -0.3346
 6087TIP3    H239897   4.882   4.145   2.009  0.6379 -0.3022 -1.0803
 6088TIP3   OH239898   0.959   5.615   7.163  0.0824  0.3329  0.3426
 6088TIP3    H139899   0.989   5.552   7.228 -2.4467 -0.7714  0.4851
 6088TIP3    H239900   0.993   5.699   7.194  1.1574 -0.5646  1.6458
 6089TIP3   OH239901   4.822   6.887   0.913 -0.4752  0.3069  0.1086
 6089TIP3    H139902   4.857   6.914   0.829 -1.1358 -0.8583 -0.5505
 6089TIP3    H239903   4.833   6.963   0.970 -1.1623  1.5087 -1.3658
 6090TIP3   OH239904   6.077   5.507   0.836 -0.8660 -0.6288  0.0967
 6090TIP3    H139905   6.065   5.581   0.776 -0.8005  0.0028  0.8590
 6090TIP3    H239906   5.988   5.483   0.863 -0.7261  1.0930  2.1639
 6091TIP3   OH239907   2.189   4.855   7.014 -0.1255  0.3677 -0.0561
 6091TIP3    H139908   2.162   4.767   7.039 -1.8725  0.8781 -0.0270
 6091TIP3    H239909   2.237   4.889   7.089  2.8375 -1.4603 -1.0331
 6092TIP3   OH239910   3.794   5.286   6.544  0.0334 -0.5062 -0.0639
 6092TIP3    H139911   3.840   5.208   6.514  1.3874  0.0404  0.5823
 6092TIP3    H239912   3.736   5.255   6.613  0.4842 -0.9458  0.1125
 6093TIP3   OH239913   4.524   6.324   7.437  0.2501 -0.0163 -0.1193
 6093TIP3    H139914   4.486   6.379   7.369 -0.8725 -0.4322  0.1585
 6093TIP3    H239915   4.576   6.384   7.491  2.2685  0.0993 -2.0957
 6094TIP3   OH239916   6.000   4.458   2.051 -0.2495  0.6732 -0.2974
 6094TIP3    H139917   5.988   4.512   1.974  1.3153  1.1416 -0.2302
 6094TIP3    H239918   5.913   4.451   2.090 -1.2265 -0.3779 -2.6254
 6095TIP3   OH239919   4.162   4.265   1.460  0.5390  0.6965 -0.1077
 6095TIP3    H139920   4.070   4.243   1.475  0.7237 -0.7251 -0.9252
 6095TIP3    H239921   4.198   4.276   1.548  0.0310 -0.7141  0.3038
 6096TIP3   OH239922   3.640   5.166   1.858 -0.1296  0.5439  0.1028
 6096TIP3    H139923   3.654   5.072   1.868  0.2565  0.7317  1.4431
 6096TIP3    H239924   3.553   5.173   1.818  0.2743 -0.3975 -0.9693
 6097TIP3   OH239925   3.492   3.535   0.515  0.1860  0.0532 -0.4435
 6097TIP3    H139926   3.441   3.509   0.591  1.0857 -0.3662  0.0218
 6097TIP3    H239927   3.427   3.557   0.448 -0.5971 -0.4333  0.1598
 6098TIP3   OH239928   2.138   5.082   7.794 -0.6065 -0.3512 -0.2901
 6098TIP3    H139929   2.132   5.165   7.841 -2.0799 -0.9970  0.7023
 6098TIP3    H239930   2.054   5.074   7.749  0.3708 -0.2758 -2.1546
 6099TIP3   OH239931   3.783   4.760   7.538 -0.3939 -0.8006 -0.4337
 6099TIP3    H139932   3.859   4.756   7.480 -2.0094 -2.9239 -2.4940
 6099TIP3    H239933   3.776   4.852   7.563  2.7344 -0.5475 -0.3357
 6100TIP3   OH239934   4.388   5.639   6.751 -0.1087  0.0446 -0.0001
 6100TIP3    H139935   4.394   5.714   6.692  1.7589 -1.5980 -2.0343
 6100TIP3    H239936   4.315   5.587   6.717  0.3470 -0.4149 -0.2942
 6101TIP3   OH239937   6.330   5.502   8.466 -0.0750  0.0750 -0.0551
 6101TIP3    H139938   6.277   5.450   8.407  1.1628 -1.6442  0.3008
 6101TIP3    H239939   6.356   5.578   8.414 -0.3510 -0.6039 -1.2009
 6102TIP3   OH239940   3.895   3.834   0.784 -0.2588 -0.3247  0.5202
 6102TIP3    H139941   3.942   3.913   0.755 -1.6564  1.0920  1.9701
 6102TIP3    H239942   3.955   3.792   0.845  0.9683 -1.0271 -1.1403
 6103TIP3   OH239943   6.117   6.660   0.234 -0.4305 -0.2481 -0.0221
 6103TIP3    H139944   6.143   6.576   0.272 -0.2922 -0.0693  0.2860
 6103TIP3    H239945   6.193   6.717   0.248 -0.4207 -0.1490 -0.4700
 6104TIP3   OH239946   3.958   5.475   1.007 -0.3279 -0.3038 -0.0825
 6104TIP3    H139947   3.953   5.439   1.095  2.3130 -1.0209 -0.1772
 6104TIP3    H239948   4.002   5.559   1.018 -0.6794 -0.0455 -0.6334
 6105TIP3   OH239949   5.722   2.882   6.518  0.3665 -0.0052  0.8332
 6105TIP3    H139950   5.704   2.943   6.446  1.1453 -0.3062  0.3795
 6105TIP3    H239951   5.730   2.797   6.475 -2.3084 -0.7189  1.6273
 6106TIP3   OH239952   0.642   4.472   1.914 -0.3549 -0.0523  0.3282
 6106TIP3    H139953   0.618   4.551   1.963 -0.1661 -0.1490  0.5786
 6106TIP3    H239954   0.579   4.468   1.842 -0.2677  0.4132  0.2232
 6107TIP3   OH239955   6.440   4.444   1.586  0.0549 -0.0390  0.4487
 6107TIP3    H139956   6.430   4.504   1.659 -0.1140  1.4328 -0.7537
 6107TIP3    H239957   6.378   4.373   1.604  1.8089 -1.0148  2.9816
 6108TIP3   OH239958   5.158   2.381   6.335 -0.6127 -0.2527  0.9708
 6108TIP3    H139959   5.175   2.394   6.428 -2.6914  0.8364  1.2497
 6108TIP3    H239960   5.103   2.456   6.311  2.0404  0.9016 -1.7697
 6109TIP3   OH239961   5.511   7.238   0.222  0.0865 -0.2503  0.3311
 6109TIP3    H139962   5.449   7.290   0.273  0.5192  0.4647  0.1345
 6109TIP3    H239963   5.459   7.166   0.187 -0.7316  0.5827 -0.1812
 6110TIP3   OH239964   3.833   6.315   6.695  0.7783  0.8190 -0.3348
 6110TIP3    H139965   3.789   6.316   6.610  0.9530 -1.3358 -0.4948
 6110TIP3    H239966   3.925   6.298   6.674  0.9538  1.0758  0.2251
 6111TIP3   OH239967   3.139   4.201   8.195 -0.1636 -0.3619  0.0730
 6111TIP3    H139968   3.100   4.236   8.275  0.8599  0.0415  0.3991
 6111TIP3    H239969   3.227   4.239   8.192  0.3935 -1.6622 -0.3916
 6112TIP3   OH239970   6.940   6.378   0.775  0.3235 -0.1929  0.1443
 6112TIP3    H139971   7.023   6.388   0.727 -0.3772 -0.5272 -1.1680
 6112TIP3    H239972   6.940   6.286   0.804 -0.3574 -0.6899 -1.3625
 6113TIP3   OH239973   4.289   4.840   8.108  0.3879 -0.6502 -0.2481
 6113TIP3    H139974   4.328   4.850   8.195  1.1997  2.6493 -0.9150
 6113TIP3    H239975   4.362   4.853   8.047 -0.3465 -2.0009 -1.4518
 6114TIP3   OH239976   5.627   3.487   1.818  0.0548  0.4483 -0.1809
 6114TIP3    H139977   5.532   3.497   1.823  0.0835  0.9961 -0.6371
 6114TIP3    H239978   5.661   3.576   1.824  0.5672  0.2117  0.4703
 6115TIP3   OH239979   5.228   4.555   7.714  0.8182 -0.6374 -0.1346
 6115TIP3    H139980   5.151   4.529   7.763  0.2594  2.9885  1.0686
 6115TIP3    H239981   5.302   4.537   7.773  0.4013  0.7881  0.8647
 6116TIP3   OH239982   1.601   0.411   0.434  0.2896  0.3417  0.4837
 6116TIP3    H139983   1.606   0.477   0.503 -0.4826  0.4864  0.3987
 6116TIP3    H239984   1.510   0.382   0.435  0.6974 -0.9637  0.7492
 6117TIP3   OH239985   3.188   4.732   7.974 -0.0696 -0.2265  0.2819
 6117TIP3    H139986   3.103   4.758   7.938  1.4023  1.8046 -1.9185
 6117TIP3    H239987   3.177   4.738   8.069 -2.2401  0.3972  0.0297
 6118TIP3   OH239988   0.736   6.449   1.623  0.1260  0.5136 -0.0795
 6118TIP3    H139989   0.685   6.446   1.704 -2.6987  0.2259 -1.8100
 6118TIP3    H239990   0.736   6.358   1.591  0.6263  0.7497 -0.7734
 6119TIP3   OH239991   3.943   4.225   0.971  0.2437 -0.2207 -0.7715
 6119TIP3    H139992   3.930   4.175   0.890  0.4498  0.2740 -1.1157
 6119TIP3    H239993   3.994   4.166   1.027  0.0733 -0.5827 -0.9891
 6120TIP3   OH239994   6.119   2.655   1.524  0.2817 -0.2935  0.1743
 6120TIP3    H139995   6.051   2.684   1.585 -1.0422  0.1995 -1.4812
 6120TIP3    H239996   6.102   2.706   1.445  1.3333 -1.6503 -0.9398
 6121TIP3   OH239997   5.797   6.041   6.794 -0.5035 -0.1104  0.1065
 6121TIP3    H139998   5.777   6.116   6.738  1.6404  0.4815  0.0692
 6121TIP3    H239999   5.819   5.971   6.733  0.7194  0.2059  0.1679
 6122TIP3   OH240000   4.951   3.576   1.804  0.3518 -0.1385 -0.5124
 6122TIP3    H140001   4.867   3.620   1.791 -0.0989 -0.9474 -0.3632
 6122TIP3    H240002   5.006   3.609   1.733  0.6287  2.1007  0.7021
 6123TIP3   OH240003   7.291   4.926   7.500 -0.3491  0.2498  0.2504
 6123TIP3    H140004   7.217   4.887   7.454 -0.1214 -2.0242  1.7344
 6123TIP3    H240005   7.342   4.968   7.431  0.1379 -3.2928 -1.7012
 6124TIP3   OH240006   6.987   5.165   8.407 -0.5649  0.6197  0.1356
 6124TIP3    H140007   7.024   5.122   8.483  0.1145  0.4928 -0.2647
 6124TIP3    H240008   7.038   5.132   8.333 -0.5724  1.4902 -0.2635
 6125TIP3   OH240009   6.515   3.283   1.880 -0.0325 -0.0770  0.5121
 6125TIP3    H140010   6.478   3.277   1.792 -1.2647  1.9632  0.8603
 6125TIP3    H240011   6.595   3.230   1.877 -0.0054  0.0720 -1.8499
 6126TIP3   OH240012   4.693   3.877   1.442 -0.2787 -0.0965 -0.1821
 6126TIP3    H140013   4.622   3.815   1.426  0.3443 -1.4198  1.9225
 6126TIP3    H240014   4.772   3.824   1.439  0.2786  0.5945  1.5932
 6127TIP3   OH240015   6.019   6.305   8.102 -0.5170  0.4525  0.0113
 6127TIP3    H140016   6.008   6.258   8.020 -0.9452  0.7068 -0.0751
 6127TIP3    H240017   6.088   6.369   8.084  1.5137 -1.4775  0.7032
 6128TIP3   OH240018   6.908   5.245   1.816 -0.6417 -0.6212 -0.2716
 6128TIP3    H140019   7.003   5.246   1.823 -0.6011  1.9124 -0.6266
 6128TIP3    H240020   6.877   5.275   1.902 -1.0420  0.5511 -0.8133
 6129TIP3   OH240021   7.161   5.588   7.749  0.0441  0.3226 -0.6241
 6129TIP3    H140022   7.244   5.601   7.705  0.5663  2.0570  0.8090
 6129TIP3    H240023   7.100   5.646   7.704  0.6297  2.2643  1.0000
 6130TIP3   OH240024   6.598   6.168   2.148 -0.3068 -0.2707 -0.4728
 6130TIP3    H140025   6.685   6.141   2.120  0.1676  0.0004  0.6991
 6130TIP3    H240026   6.613   6.234   2.215 -1.4188 -0.0588 -0.4137
 6131TIP3   OH240027   0.803   5.309   2.160  0.0666  0.3366 -0.0180
 6131TIP3    H140028   0.844   5.393   2.181 -0.8355  0.6964  0.3094
 6131TIP3    H240029   0.875   5.247   2.160  0.5504  0.8876  0.9935
 6132TIP3   OH240030   6.088   5.033   1.744  0.1640  0.2748  0.2557
 6132TIP3    H140031   6.089   5.005   1.652  1.3065  0.5762  0.1663
 6132TIP3    H240032   6.013   4.988   1.782  0.8053 -1.3533 -0.3663
 6133TIP3   OH240033   6.618   5.294   7.982 -0.5196  0.2872 -0.2662
 6133TIP3    H140034   6.606   5.388   7.996 -1.3035  0.1189  0.2196
 6133TIP3    H240035   6.639   5.287   7.889 -0.0701  0.9769 -0.2253
 6134TIP3   OH240036   0.524   5.351   0.725  0.6142 -0.2518  0.4133
 6134TIP3    H140037   0.446   5.404   0.742 -0.1198 -0.7263 -1.3953
 6134TIP3    H240038   0.569   5.347   0.810 -2.3445 -1.6636  1.9867
 6135TIP3   OH240039   0.121   1.270   1.585 -0.1849  0.1993  0.0585
 6135TIP3    H140040   0.112   1.347   1.529 -0.0576  0.1495 -0.0310
 6135TIP3    H240041   0.048   1.276   1.647  0.6535  1.1431  0.9568
 6136TIP3   OH240042   4.742   4.890   1.581 -0.7668 -0.3110 -0.5482
 6136TIP3    H140043   4.730   4.978   1.618 -0.4524  0.1280 -1.4717
 6136TIP3    H240044   4.692   4.892   1.499 -1.5428 -1.3067 -0.1037
 6137TIP3   OH240045   6.036   5.298   1.195  0.0725  0.2844 -0.4227
 6137TIP3    H140046   6.110   5.352   1.169  0.4724 -0.5578 -1.0541
 6137TIP3    H240047   5.973   5.360   1.232  0.3442  1.2491 -1.5311
 6138TIP3   OH240048   5.307   5.183   7.597  0.2275 -0.3967  0.3777
 6138TIP3    H140049   5.271   5.258   7.549 -1.2163 -1.4485 -0.2252
 6138TIP3    H240050   5.401   5.193   7.590  0.0386  0.4485 -1.1665
 6139TIP3   OH240051   5.301   3.195   0.552 -0.1875  0.0215  0.3429
 6139TIP3    H140052   5.317   3.106   0.586 -2.2995 -0.6413 -0.3244
 6139TIP3    H240053   5.367   3.249   0.595  0.7674 -1.7782  1.2099
 6140TIP3   OH240054   6.382   3.974   0.885  0.2029  0.3757 -0.1394
 6140TIP3    H140055   6.388   3.879   0.886  1.8608  0.4698  1.3051
 6140TIP3    H240056   6.320   3.995   0.956  1.7794  0.4612  1.2405
 6141TIP3   OH240057   1.552   4.927   7.405  0.1992 -0.2429 -0.2347
 6141TIP3    H140058   1.648   4.937   7.406  0.4659 -2.5339  0.2470
 6141TIP3    H240059   1.520   5.012   7.375  2.4196  0.3477 -1.0991
 6142TIP3   OH240060   6.328   3.691   0.891 -0.9474  0.4703  0.5988
 6142TIP3    H140061   6.343   3.596   0.895 -1.3071  0.4163  0.7218
 6142TIP3    H240062   6.235   3.701   0.911 -0.8685  0.8643  0.7699
 6143TIP3   OH240063   4.050   2.140   1.151  0.1491 -0.4626  0.1941
 6143TIP3    H140064   4.145   2.135   1.149  0.1323 -1.0385  0.6707
 6143TIP3    H240065   4.021   2.064   1.100 -0.0443  2.0140 -3.6030
 6144TIP3   OH240066   4.465   5.843   2.007 -0.2389  0.0701 -0.3798
 6144TIP3    H140067   4.427   5.758   2.028  0.3969 -0.1010  0.1197
 6144TIP3    H240068   4.391   5.898   1.983 -0.7301 -0.4186  0.0138
 6145TIP3   OH240069   0.209   6.328   1.204  0.0600  0.0589  0.2574
 6145TIP3    H140070   0.248   6.388   1.141 -1.6205  0.0919 -0.8020
 6145TIP3    H240071   0.280   6.268   1.229  0.7179 -0.0389 -1.7745
 6146TIP3   OH240072   0.252   4.346   7.966  0.1285 -0.1507 -0.3930
 6146TIP3    H140073   0.201   4.393   7.901 -0.0838 -0.1806 -0.2496
 6146TIP3    H240074   0.224   4.255   7.957 -0.3332 -0.0597  0.1475
 6147TIP3   OH240075   4.102   3.320   1.687 -0.0300 -0.0078 -0.2995
 6147TIP3    H140076   4.031   3.335   1.625 -0.8361 -0.9922  0.3701
 6147TIP3    H240077   4.172   3.282   1.634  0.2046  1.4710 -1.0587
 6148TIP3   OH240078   6.570   3.396   7.322 -0.0237  0.1962 -0.6782
 6148TIP3    H140079   6.596   3.482   7.288 -1.8166  0.4583 -1.4132
 6148TIP3    H240080   6.647   3.340   7.307  0.4718  1.1954 -1.9232
 6149TIP3   OH240081   5.487   3.677   2.887  0.3523  0.7307 -0.2700
 6149TIP3    H140082   5.533   3.694   2.970 -0.7256 -0.0942  0.5156
 6149TIP3    H240083   5.540   3.611   2.843  0.1978  0.1642  0.3917
 6150TIP3   OH240084   5.732   4.277   1.786  0.1866  0.3665 -0.4474
 6150TIP3    H140085   5.708   4.214   1.854 -0.3814  0.7430 -0.2974
 6150TIP3    H240086   5.698   4.240   1.705 -0.6782  0.7733 -0.2719
 6151TIP3   OH240087   4.952   5.181   1.857  0.1098  0.3099 -0.3144
 6151TIP3    H140088   4.948   5.261   1.909 -0.6304 -0.0488  0.1900
 6151TIP3    H240089   4.954   5.110   1.922 -0.9606 -0.1466 -0.7714
 6152TIP3   OH240090   6.192   1.152   0.920 -0.2058 -0.1699  0.7852
 6152TIP3    H140091   6.225   1.236   0.950  0.9350  0.0319 -0.9676
 6152TIP3    H240092   6.137   1.173   0.845 -0.2539 -0.9502  0.5956
 6153TIP3   OH240093   3.484   5.213   2.175  0.1472  0.3480 -0.2333
 6153TIP3    H140094   3.578   5.211   2.193  0.0797 -1.6847 -0.0525
 6153TIP3    H240095   3.476   5.266   2.096  1.2911  1.7860  0.5892
 6154TIP3   OH240096   0.249   6.066   6.426 -0.0771 -0.2664 -0.0210
 6154TIP3    H140097   0.310   6.123   6.379  1.4678 -1.7940  0.0823
 6154TIP3    H240098   0.292   5.980   6.426 -1.4159 -0.9565  1.6069
 6155TIP3   OH240099   5.617   5.341   1.252 -0.4329 -0.2394 -0.0083
 6155TIP3    H140100   5.694   5.389   1.282  0.3586 -0.8914 -0.9973
 6155TIP3    H240101   5.592   5.384   1.170 -0.8072 -0.3649  0.0407
 6156TIP3   OH240102   3.132   4.542   7.246 -0.1162 -0.0306  0.0345
 6156TIP3    H140103   3.142   4.569   7.154 -2.7267  2.6037  0.4353
 6156TIP3    H240104   3.046   4.499   7.249 -1.0226  1.7712  1.5677
 6157TIP3   OH240105   5.621   4.907   1.607  0.2174 -0.1348  0.1916
 6157TIP3    H140106   5.647   4.815   1.603  0.6972  0.0023  0.0955
 6157TIP3    H240107   5.656   4.945   1.526 -0.5569 -0.0145 -0.0942
 6158TIP3   OH240108   5.791   2.364   6.728 -0.0211 -0.3492 -0.0776
 6158TIP3    H140109   5.870   2.311   6.732  0.6663  0.5650 -1.2079
 6158TIP3    H240110   5.722   2.303   6.699  0.0233 -1.3880  1.9430
 6159TIP3   OH240111   3.195   4.421   7.914 -0.0819  0.0975  0.4866
 6159TIP3    H140112   3.263   4.430   7.981 -0.9021 -0.9930  1.4941
 6159TIP3    H240113   3.113   4.438   7.960 -0.4593  2.0796 -0.8734
 6160TIP3   OH240114   6.754   3.882   6.995  0.1185 -0.3368  0.4282
 6160TIP3    H140115   6.679   3.841   6.953 -0.6165  1.4473 -0.0757
 6160TIP3    H240116   6.745   3.975   6.973  1.6508  0.1110  1.6290
 6161TIP3   OH240117   3.511   5.999   0.849  0.0863  0.0660  0.2735
 6161TIP3    H140118   3.522   5.998   0.944 -0.1645 -0.5647  0.2982
 6161TIP3    H240119   3.499   5.908   0.825 -0.5350  0.2872 -0.2860
 6162TIP3   OH240120   5.369   4.759   2.443 -0.1442 -0.3646  0.4003
 6162TIP3    H140121   5.373   4.854   2.457  1.1811 -0.1319 -1.3790
 6162TIP3    H240122   5.404   4.746   2.355 -0.0788 -2.5384  0.7184
 6163TIP3   OH240123   2.347   6.074   2.101 -0.5418 -0.2365 -0.3243
 6163TIP3    H140124   2.285   6.099   2.169 -0.1023 -0.5880  0.2104
 6163TIP3    H240125   2.371   6.156   2.058 -1.3761 -0.0984 -0.5381
 6164TIP3   OH240126   0.404   4.389   7.240  0.8141  0.4494 -0.3826
 6164TIP3    H140127   0.339   4.413   7.174  0.4114  0.0309 -0.1410
 6164TIP3    H240128   0.469   4.459   7.235 -0.1838  1.4377  0.1000
 6165TIP3   OH240129   0.336   6.356   6.933  0.2033  0.0283  0.8575
 6165TIP3    H140130   0.416   6.362   6.882 -0.3607 -0.0276 -0.0524
 6165TIP3    H240131   0.281   6.427   6.899 -0.8082 -1.0279  0.2362
 6166TIP3   OH240132   5.410   2.945   0.060  0.4314  0.0475 -0.0444
 6166TIP3    H140133   5.401   3.032   0.021 -0.0832 -0.7574 -1.7717
 6166TIP3    H240134   5.446   2.961   0.147  1.2952  1.9113 -0.7346
 6167TIP3   OH240135   3.029   2.538   7.324  0.2663  0.5957  0.2772
 6167TIP3    H140136   2.971   2.462   7.329  2.4971 -1.1423  0.6352
 6167TIP3    H240137   2.998   2.596   7.393 -1.0741 -0.2789  0.4331
 6168TIP3   OH240138   4.392   5.629   1.755  0.6319 -0.1252  0.4390
 6168TIP3    H140139   4.483   5.659   1.765  0.7391 -0.1440 -0.4497
 6168TIP3    H240140   4.378   5.626   1.660  0.2451 -1.7329  0.5285
 6169TIP3   OH240141   0.229   4.108   1.999 -0.1190 -0.4108 -0.7399
 6169TIP3    H140142   0.172   4.158   1.940  1.5879 -0.2914 -2.3344
 6169TIP3    H240143   0.215   4.017   1.974  0.3895 -0.3805 -1.1350
 6170TIP3   OH240144   4.537   2.844   7.496  0.4214 -0.0982 -0.0778
 6170TIP3    H140145   4.523   2.827   7.589 -0.4232  0.6971 -0.0517
 6170TIP3    H240146   4.581   2.929   7.493 -1.3893  0.8557 -0.4684
 6171TIP3   OH240147   6.857   3.423   2.391 -0.4442 -0.1303  0.1840
 6171TIP3    H140148   6.808   3.350   2.430 -0.5153 -0.4693 -0.5386
 6171TIP3    H240149   6.823   3.501   2.434  0.0236 -0.5675  1.3786
 6172TIP3   OH240150   4.309   3.674   1.968 -0.4021 -0.3971 -0.5093
 6172TIP3    H140151   4.216   3.666   1.989 -0.6222  0.6567 -1.0210
 6172TIP3    H240152   4.316   3.645   1.877 -0.1990 -0.6497 -0.4134
 6173TIP3   OH240153   1.323   3.604   1.390  0.1458  0.8437 -0.3824
 6173TIP3    H140154   1.344   3.512   1.371  0.5243  0.5963  1.1399
 6173TIP3    H240155   1.321   3.646   1.304  0.7613 -0.4234 -1.0425
 6174TIP3   OH240156   6.613   5.223   1.718  0.0847  0.2586  0.0706
 6174TIP3    H140157   6.697   5.242   1.760 -0.1238 -0.5277  0.8617
 6174TIP3    H240158   6.627   5.245   1.626  1.1793  0.0785  0.1830
 6175TIP3   OH240159   6.738   3.550   1.085 -0.0620 -0.0644  0.4541
 6175TIP3    H140160   6.668   3.572   1.146 -0.9940 -0.9491 -0.2728
 6175TIP3    H240161   6.759   3.458   1.105  2.0981  0.6925  1.8327
 6176TIP3   OH240162   5.754   5.520   1.839  0.2253 -0.1965  0.3749
 6176TIP3    H140163   5.708   5.543   1.920  1.6174  0.8789  0.8741
 6176TIP3    H240164   5.805   5.443   1.861  0.0065 -0.3665  0.2953
 6177TIP3   OH240165   5.888   0.217   8.068  0.1035 -0.1625  0.5840
 6177TIP3    H140166   5.805   0.264   8.071 -0.4077 -1.0338  0.2137
 6177TIP3    H240167   5.926   0.229   8.155 -0.4071  0.2355  0.7505
 6178TIP3   OH240168   0.082   5.559   0.967  0.1025  0.1965  0.1843
 6178TIP3    H140169  -0.006   5.522   0.975 -0.2245  0.8059 -0.4569
 6178TIP3    H240170   0.067   5.653   0.956  0.8421  0.3189  0.1928
 6179TIP3   OH240171   4.709   4.253   1.574 -0.1198 -0.0568 -0.4439
 6179TIP3    H140172   4.727   4.329   1.630  0.4080  0.2469 -1.0225
 6179TIP3    H240173   4.795   4.217   1.554 -0.4581 -2.6906  2.3685
 6180TIP3   OH240174   4.182   3.820   0.625 -0.7357  0.2630 -0.6816
 6180TIP3    H140175   4.145   3.796   0.540 -0.5584 -1.4857 -0.2809
 6180TIP3    H240176   4.142   3.904   0.646 -1.0784  0.5129 -2.3173
 6181TIP3   OH240177   0.281   5.171   6.983  0.1413  0.4007  0.1178
 6181TIP3    H140178   0.285   5.111   6.909 -0.2328  0.2918  0.1837
 6181TIP3    H240179   0.216   5.237   6.957  0.1378  0.4616  0.2773
 6182TIP3   OH240180   5.954   7.201   1.578  0.0415 -0.2832 -0.2998
 6182TIP3    H140181   5.984   7.269   1.639  0.3465  0.4435 -1.2472
 6182TIP3    H240182   6.026   7.138   1.577  0.0511 -0.2824  0.0663
 6183TIP3   OH240183   2.186   6.159   6.164  0.0481  0.1037 -0.2948
 6183TIP3    H140184   2.115   6.128   6.108  0.2040 -1.1758  0.1922
 6183TIP3    H240185   2.193   6.253   6.145 -2.8299  0.5968  0.7962
 6184TIP3   OH240186   4.160   5.784   1.303  0.2157 -0.1112 -0.4289
 6184TIP3    H140187   4.099   5.745   1.240 -0.5416  1.0313 -0.4217
 6184TIP3    H240188   4.213   5.844   1.251 -0.3517  0.7696 -0.0087
 6185TIP3   OH240189   6.155   5.325   2.431 -0.1134 -0.6970  0.4255
 6185TIP3    H140190   6.228   5.308   2.371 -2.0211 -0.8899 -1.9265
 6185TIP3    H240191   6.109   5.242   2.437  0.3891 -0.8273  2.6684
 6186TIP3   OH240192   5.937   0.208   7.266 -0.4261 -0.6262  0.6346
 6186TIP3    H140193   6.005   0.219   7.200 -1.0949  0.0224  0.0345
 6186TIP3    H240194   5.857   0.195   7.215 -1.2135  1.4487  1.2957
 6187TIP3   OH240195   6.149   4.036   1.721  0.3819  0.4217  0.3622
 6187TIP3    H140196   6.211   3.963   1.724  0.0946  0.2049  1.0564
 6187TIP3    H240197   6.069   3.997   1.686  0.2225  0.4038  0.7536
 6188TIP3   OH240198   6.209   5.101   7.014  0.0712 -0.7764  0.2238
 6188TIP3    H140199   6.148   5.104   6.940 -0.3732 -0.5775  0.5896
 6188TIP3    H240200   6.280   5.159   6.989 -0.9436  0.7063  0.7044
 6189TIP3   OH240201   4.528   2.709   0.753  0.1389 -0.3728  0.1173
 6189TIP3    H140202   4.518   2.796   0.713 -0.0411  1.0316  3.0443
 6189TIP3    H240203   4.619   2.685   0.735  0.1281  0.3122 -0.9174
 6190TIP3   OH240204   5.101   4.716   1.000  0.4115 -0.0550  0.9427
 6190TIP3    H140205   5.010   4.704   1.030 -0.2000 -0.4476 -0.9844
 6190TIP3    H240206   5.107   4.810   0.981  0.4249 -0.0109  1.1704
 6191TIP3   OH240207   4.957   3.559   2.281 -0.2547 -0.1354  0.3783
 6191TIP3    H140208   4.992   3.482   2.326 -1.8936 -0.7987  0.5351
 6191TIP3    H240209   4.891   3.594   2.341 -1.1613  0.0356 -0.7061
 6192TIP3   OH240210   4.604   2.458   8.385  0.0301  0.3137 -0.3816
 6192TIP3    H140211   4.654   2.539   8.383  0.4135  0.0618 -1.3531
 6192TIP3    H240212   4.537   2.469   8.318 -0.5903  0.2481  0.2220
 6193TIP3   OH240213   0.077   4.276   1.057  0.7424 -0.2837  0.1481
 6193TIP3    H140214   0.012   4.297   1.124  1.1864  0.3683  0.3762
 6193TIP3    H240215   0.035   4.301   0.975  0.3742 -0.6641  0.2145
 6194TIP3   OH240216   5.364   5.355   0.659  0.1818 -0.1687 -0.8766
 6194TIP3    H140217   5.456   5.329   0.657  0.2091 -0.0290 -1.5230
 6194TIP3    H240218   5.354   5.415   0.585 -0.8025 -1.3833 -1.7357
 6195TIP3   OH240219   6.927   7.168   7.427  0.1733  0.1175 -1.0974
 6195TIP3    H140220   6.921   7.078   7.457 -0.4819  0.6138  0.3575
 6195TIP3    H240221   6.842   7.185   7.385  1.0765 -0.5638 -3.2286
 6196TIP3   OH240222   0.686   7.222   7.886  0.2468 -0.1756 -0.2955
 6196TIP3    H140223   0.624   7.150   7.887 -0.2474  0.2430 -0.4741
 6196TIP3    H240224   0.770   7.183   7.911  0.0560 -0.8769 -0.7540
 6197TIP3   OH240225   5.635   4.609   1.620  0.0461 -0.4512  0.2984
 6197TIP3    H140226   5.651   4.614   1.714 -0.4494 -0.1483  0.3657
 6197TIP3    H240227   5.626   4.516   1.602 -0.1943 -0.4882  0.6075
 6198TIP3   OH240228   4.319   2.421   1.559 -0.1449 -0.2701 -0.4286
 6198TIP3    H140229   4.390   2.389   1.504 -0.8438  1.5597 -2.4328
 6198TIP3    H240230   4.286   2.499   1.514 -3.3713 -1.0231  0.5161
 6199TIP3   OH240231   6.026   2.526   1.189 -0.1928 -1.2429  0.1340
 6199TIP3    H140232   5.949   2.550   1.240  0.9001  1.6859  0.4427
 6199TIP3    H240233   6.094   2.509   1.253  0.2762 -0.7713 -0.2314
 6200TIP3   OH240234   4.825   1.045   7.762  0.3700  0.2257 -0.0208
 6200TIP3    H140235   4.919   1.059   7.765  0.0240  2.3477  1.4534
 6200TIP3    H240236   4.795   1.057   7.852 -1.2010 -1.3089 -0.2969
 6201TIP3   OH240237   4.248   5.156   6.961  0.1020  0.8612 -0.1205
 6201TIP3    H140238   4.335   5.180   6.994  1.7557 -0.7120 -3.1910
 6201TIP3    H240239   4.247   5.187   6.871 -2.3485  0.4123 -0.2723
 6202TIP3   OH240240   6.085   4.040   0.291 -0.0516 -0.5753  0.6840
 6202TIP3    H140241   6.062   3.983   0.217 -0.8957 -0.3077  0.7350
 6202TIP3    H240242   6.078   3.983   0.368  2.0507 -1.1913  0.4603
 6203TIP3   OH240243   6.734   7.011   0.271  0.6297  0.3876 -0.3558
 6203TIP3    H140244   6.642   7.034   0.263  0.3987 -0.2670  0.4102
 6203TIP3    H240245   6.776   7.090   0.305  0.0164  0.0269  1.2513
 6204TIP3   OH240246   4.839   0.158   7.283  0.0330 -0.6072 -0.4464
 6204TIP3    H140247   4.913   0.103   7.309  0.9900  0.3260 -1.1566
 6204TIP3    H240248   4.792   0.175   7.364 -0.7633 -3.1565 -0.3151
 6205TIP3   OH240249   0.006   4.697   7.639  0.3228 -0.1336 -0.1986
 6205TIP3    H140250  -0.019   4.782   7.602  0.4584 -0.7373 -1.7052
 6205TIP3    H240251  -0.060   4.637   7.607 -1.2329 -0.1903  2.9149
 6206TIP3   OH240252   1.577   6.840   1.346  0.3427 -0.3598 -0.3329
 6206TIP3    H140253   1.596   6.922   1.392  1.6364 -1.9265  2.0140
 6206TIP3    H240254   1.662   6.798   1.335 -0.3893 -1.7125 -0.9035
 6207TIP3   OH240255   1.888   1.000   7.617  0.1765  0.5973 -0.0235
 6207TIP3    H140256   1.895   0.925   7.676 -0.6502 -0.8847 -1.7612
 6207TIP3    H240257   1.978   1.018   7.589  0.6144  1.5312  1.9289
 6208TIP3   OH240258   5.813   2.873   0.274  0.5115  0.5274 -0.2252
 6208TIP3    H140259   5.772   2.955   0.247 -0.2468  0.1119 -0.3544
 6208TIP3    H240260   5.870   2.898   0.347 -1.1940  0.8916  1.0377
 6209TIP3   OH240261   6.739   0.074   6.785 -0.0058  0.0877  0.1679
 6209TIP3    H140262   6.662   0.129   6.796 -0.3885 -0.9533  3.1945
 6209TIP3    H240263   6.722   0.025   6.705 -2.6369 -0.3242  0.9292
 6210TIP3   OH240264   2.128   0.669   7.874 -0.1515 -0.5743 -0.5290
 6210TIP3    H140265   2.202   0.698   7.927 -0.5378  1.5566 -1.1332
 6210TIP3    H240266   2.054   0.668   7.935  0.1825 -1.9202 -0.1211
 6211TIP3   OH240267   4.582   5.841   0.299 -0.4057 -0.0614 -0.1650
 6211TIP3    H140268   4.666   5.842   0.252 -0.3056  1.5710  0.0270
 6211TIP3    H240269   4.588   5.765   0.357  0.8813 -0.0548 -0.2747
 6212TIP3   OH240270   3.196   0.210   1.366 -0.1287 -0.3313 -0.5525
 6212TIP3    H140271   3.152   0.186   1.284 -0.1959 -0.2172 -0.5498
 6212TIP3    H240272   3.145   0.168   1.434 -0.8506  0.6570 -0.4683
 6213TIP3   OH240273   0.104   6.795   1.179  0.2783 -0.1575  0.0637
 6213TIP3    H140274   0.057   6.871   1.212 -0.9173 -0.2534 -1.3768
 6213TIP3    H240275   0.089   6.727   1.246  0.7054  0.6245  0.9666
 6214TIP3   OH240276   5.837   7.321   1.279 -0.0047  0.7267 -0.0122
 6214TIP3    H140277   5.874   7.342   1.193  0.1995  0.7864  0.0910
 6214TIP3    H240278   5.813   7.406   1.316 -0.2840  0.6836 -0.0981
 6215TIP3   OH240279   1.569   5.840   7.533  0.3714  0.1292 -0.1204
 6215TIP3    H140280   1.618   5.899   7.590  0.5004  0.2869 -0.3957
 6215TIP3    H240281   1.635   5.803   7.474 -0.0345  1.3154 -1.3353
 6216TIP3   OH240282   6.503   3.586   2.040  0.2130  0.0814 -0.4814
 6216TIP3    H140283   6.562   3.645   2.087 -0.2318  0.3338 -0.2462
 6216TIP3    H240284   6.525   3.499   2.074 -0.5688  0.3289  0.6739
 6217TIP3   OH240285   3.584   3.335   7.321 -0.2502 -0.0205 -0.1568
 6217TIP3    H140286   3.547   3.418   7.290 -1.5080 -0.7616 -0.6641
 6217TIP3    H240287   3.532   3.313   7.399  1.5678  0.8006  1.3447
 6218TIP3   OH240288   6.774   5.572   0.960  0.0564  0.0909 -0.5286
 6218TIP3    H140289   6.847   5.600   1.016  0.0830  0.7630 -0.8999
 6218TIP3    H240290   6.757   5.482   0.988  0.5367  0.1783  0.0762
 6219TIP3   OH240291   0.884   6.849   1.508 -0.0238  0.7217 -0.1748
 6219TIP3    H140292   0.942   6.830   1.581  0.6774  2.6683 -0.1789
 6219TIP3    H240293   0.798   6.861   1.547 -0.3465 -1.6271 -0.1006
 6220TIP3   OH240294   6.251   6.955   7.451 -0.1600 -0.2239  0.1640
 6220TIP3    H140295   6.261   7.035   7.503  2.0396 -0.9407  0.8784
 6220TIP3    H240296   6.167   6.919   7.480 -0.5443  1.1321  0.7956
 6221TIP3   OH240297   1.035   4.884   0.848 -0.1284  0.1976 -0.4071
 6221TIP3    H140298   1.010   4.795   0.822  1.3095 -0.3365 -0.0246
 6221TIP3    H240299   0.959   4.938   0.825 -1.4650 -1.3030  0.4103
 6222TIP3   OH240300   0.412   6.441   2.052  0.0630 -0.2539 -0.7825
 6222TIP3    H140301   0.351   6.405   2.117  0.4091  0.4445 -0.0525
 6222TIP3    H240302   0.356   6.480   1.985 -0.3040  0.2185 -0.2113
 6223TIP3   OH240303   1.808   7.299   0.476  0.3422  0.0318 -0.7552
 6223TIP3    H140304   1.773   7.225   0.427  0.2667  0.0873 -0.7871
 6223TIP3    H240305   1.757   7.299   0.558  2.4971 -1.8551  0.6380
 6224TIP3   OH240306   3.604   0.342   6.940 -0.0289  0.0053  0.5980
 6224TIP3    H140307   3.651   0.301   7.013 -0.1077 -0.5946  0.3144
 6224TIP3    H240308   3.667   0.401   6.901  0.0019  0.3654  1.1837
 6225TIP3   OH240309   2.915   5.876   0.919  0.1033 -0.5180  0.2459
 6225TIP3    H140310   2.852   5.839   0.858 -0.4382  0.9559 -0.1004
 6225TIP3    H240311   2.939   5.802   0.976 -0.5837 -1.5086 -0.7217
 6226TIP3   OH240312   1.021   7.141   0.453  0.0719  0.4368  0.1326
 6226TIP3    H140313   0.934   7.133   0.415 -0.9028  0.5544  2.2714
 6226TIP3    H240314   1.060   7.054   0.443 -0.3696  0.3311 -0.6441
 6227TIP3   OH240315   1.158   6.983   7.706 -0.0650  0.2611 -0.0038
 6227TIP3    H140316   1.230   7.010   7.762 -0.9324  1.1192  0.7145
 6227TIP3    H240317   1.178   6.893   7.682  1.9793  0.9687 -1.0127
 6228TIP3   OH240318   1.847   5.277   8.042  0.5177 -0.6762 -0.5021
 6228TIP3    H140319   1.841   5.248   8.133 -2.1202 -0.0178 -0.4453
 6228TIP3    H240320   1.783   5.223   7.995 -0.0128  0.8007 -1.4944
 6229TIP3   OH240321   0.224   6.036   1.422 -0.4226  0.2576  0.0147
 6229TIP3    H140322   0.139   6.032   1.466 -0.9800  1.2452 -0.9737
 6229TIP3    H240323   0.204   6.066   1.333  0.7418 -1.3797 -0.8245
 6230TIP3   OH240324   1.063   6.496   1.717 -0.2758 -0.0834 -0.3972
 6230TIP3    H140325   1.044   6.575   1.768 -1.2757 -0.0039 -0.8692
 6230TIP3    H240326   1.027   6.515   1.631  0.0262 -0.8227 -0.6828
 6231TIP3   OH240327   6.797   1.494   6.879 -0.4246  0.5123 -0.6099
 6231TIP3    H140328   6.875   1.523   6.925 -0.2514  0.9134 -1.1513
 6231TIP3    H240329   6.830   1.451   6.800 -0.7081 -0.3829 -0.2477
 6232TIP3   OH240330   5.526   6.317   0.235 -0.3941  0.1633  0.2697
 6232TIP3    H140331   5.603   6.331   0.179 -1.5533 -0.4621 -1.5149
 6232TIP3    H240332   5.475   6.250   0.189 -2.3030  0.9949  1.1306
 6233TIP3   OH240333   2.630   6.679   1.608 -0.0760 -0.1963  0.2514
 6233TIP3    H140334   2.673   6.627   1.539  0.9632  0.1613  0.6229
 6233TIP3    H240335   2.702   6.724   1.652 -1.0114  2.0683 -0.4727
 6234TIP3   OH240336   0.385   5.775   1.386 -0.1752  0.0201  0.3443
 6234TIP3    H140337   0.315   5.718   1.417  1.1203 -0.4161  2.6175
 6234TIP3    H240338   0.353   5.863   1.403  0.2320 -0.1940  2.4653
 6235TIP3   OH240339   0.858   6.245   1.789  0.4039 -0.5176  0.0391
 6235TIP3    H140340   0.890   6.191   1.861 -2.5906 -0.5697  1.3611
 6235TIP3    H240341   0.901   6.330   1.801  2.4306 -1.5065 -0.0511
 6236TIP3   OH240342   6.662   4.963   1.914  0.5191  0.3710  0.1722
 6236TIP3    H140343   6.680   5.035   1.852 -0.8810 -0.2812 -1.0104
 6236TIP3    H240344   6.738   4.905   1.904  0.5207  0.4935 -0.6077
 6237TIP3   OH240345   4.093   5.719   1.054 -0.0761 -0.3627  0.1798
 6237TIP3    H140346   4.029   5.786   1.031 -0.8279 -1.4254 -0.9299
 6237TIP3    H240347   4.177   5.753   1.022 -0.6515 -0.5197 -1.5451
 6238TIP3   OH240348   2.638   6.302   0.658  0.5721  0.0912  0.3440
 6238TIP3    H140349   2.569   6.349   0.705  1.1876  1.8361 -0.4609
 6238TIP3    H240350   2.664   6.361   0.588  0.8669 -1.7612 -1.1578
 6239TIP3   OH240351   3.029   2.819   1.409 -0.0243  0.6706  0.7269
 6239TIP3    H140352   3.061   2.869   1.334 -2.5292 -0.4907 -1.1676
 6239TIP3    H240353   3.053   2.728   1.389 -0.9392  0.3205  1.1924
 6240TIP3   OH240354   6.526   4.939   0.926  0.2915 -0.7127  0.0279
 6240TIP3    H140355   6.529   4.876   0.853 -0.5656 -0.7251 -0.0012
 6240TIP3    H240356   6.433   4.949   0.945  0.2269  2.8027 -1.9060
 6241TIP3   OH240357   1.742   0.074   1.405 -0.2117 -0.3891  0.3689
 6241TIP3    H140358   1.799   0.063   1.481 -0.1590  0.3957  0.4437
 6241TIP3    H240359   1.800   0.099   1.334 -0.2844 -0.9532  0.1049
 6242TIP3   OH240360   6.126   0.522   8.286 -0.2052 -0.5578  0.1371
 6242TIP3    H140361   6.055   0.565   8.238 -0.5811  0.5921  1.6802
 6242TIP3    H240362   6.199   0.584   8.282 -0.5521  0.0069  1.8349
 6243TIP3   OH240363   2.094   7.307   0.703  0.1632  0.2276  0.4792
 6243TIP3    H140364   2.047   7.387   0.681 -0.7610 -0.2450  0.7356
 6243TIP3    H240365   2.099   7.258   0.620  0.7843  0.5798  0.3091
 6244TIP3   OH240366   2.260   2.500   1.724  0.2783  0.0205 -0.6159
 6244TIP3    H140367   2.166   2.503   1.707 -0.0795 -1.3840  0.9491
 6244TIP3    H240368   2.300   2.519   1.640 -1.4213 -0.9021 -1.6733
 6245TIP3   OH240369   0.616   4.294   1.335 -0.1316  0.3795 -0.4481
 6245TIP3    H140370   0.660   4.266   1.254 -0.3175  1.5180 -0.9465
 6245TIP3    H240371   0.634   4.387   1.341 -0.5505  0.3991  0.5691
 6246TIP3   OH240372   4.814   4.371   0.876 -0.1911  0.0574 -0.2877
 6246TIP3    H140373   4.817   4.303   0.944 -1.9201 -0.4970 -0.7411
 6246TIP3    H240374   4.900   4.368   0.835  0.6065 -0.1574  1.3265
 6247TIP3   OH240375   0.989   5.338   1.807 -0.0119 -0.0404  0.3477
 6247TIP3    H140376   0.947   5.421   1.829  1.6671  0.7481  0.6706
 6247TIP3    H240377   0.929   5.296   1.746 -0.3474  1.9155 -0.7069
 6248TIP3   OH240378   1.037   4.682   0.453 -0.3010 -0.8996  0.5817
 6248TIP3    H140379   0.995   4.763   0.425  0.0536 -0.8540  0.1745
 6248TIP3    H240380   0.964   4.625   0.478 -0.5204 -0.2181  1.5435
 6249TIP3   OH240381   0.675   1.417   1.798 -0.1693 -0.3389  0.0440
 6249TIP3    H140382   0.625   1.397   1.719 -1.9512  0.9736  0.7959
 6249TIP3    H240383   0.642   1.503   1.825  1.6635  0.0012  1.2344
 6250TIP3   OH240384   2.875   5.934   8.372  0.2623 -0.5691  0.1609
 6250TIP3    H140385   2.952   5.955   8.320 -0.8236  0.5817 -1.0058
 6250TIP3    H240386   2.889   5.843   8.400  1.4491 -0.7703 -1.0637
 6251TIP3   OH240387   3.134   2.291   1.792  0.0994 -0.1908 -0.2919
 6251TIP3    H140388   3.110   2.355   1.725  0.5974 -0.7095 -0.9706
 6251TIP3    H240389   3.149   2.210   1.744  1.3665 -0.3389  0.3335
 6252TIP3   OH240390   6.341   6.681   8.350  0.2676 -0.7378 -0.4123
 6252TIP3    H140391   6.405   6.649   8.287  1.3030  1.5875 -0.5970
 6252TIP3    H240392   6.386   6.677   8.434  0.2172 -0.3046 -0.3629
 6253TIP3   OH240393   6.908   4.144   7.077 -0.2975 -0.1242  0.4725
 6253TIP3    H140394   6.837   4.207   7.066  0.1102  0.2506 -0.0285
 6253TIP3    H240395   6.977   4.192   7.122 -1.2511 -1.1513  3.1283
 6254TIP3   OH240396   0.322   5.239   1.250  0.0805  0.5118 -0.5204
 6254TIP3    H140397   0.278   5.187   1.183  0.8003  0.2031 -0.7507
 6254TIP3    H240398   0.306   5.330   1.224  1.3193  0.3838 -1.7276
 6255TIP3   OH240399   0.658   5.012   6.072 -0.1741  0.2259 -0.2900
 6255TIP3    H140400   0.685   4.937   6.019  0.0188  0.6656 -0.8182
 6255TIP3    H240401   0.608   5.068   6.012  0.3195  0.8896 -0.0936
 6256TIP3   OH240402   0.265   7.012   0.292  0.0149 -0.1397  0.0302
 6256TIP3    H140403   0.253   7.015   0.387  2.2273 -0.9040  0.3383
 6256TIP3    H240404   0.293   7.101   0.269  1.9939 -0.6357  0.4557
 6257TIP3   OH240405   5.546   0.114   1.183 -0.1738  0.4304 -0.3420
 6257TIP3    H140406   5.598   0.038   1.157  1.8777  1.1617  1.4623
 6257TIP3    H240407   5.476   0.077   1.237  3.0729  0.0631  3.8388
 6258TIP3   OH240408   2.218   0.563   0.048 -0.4812 -0.3349 -0.4400
 6258TIP3    H140409   2.302   0.604   0.069 -0.1040 -0.7523 -1.0995
 6258TIP3    H240410   2.238   0.469   0.045 -0.7143 -0.3497 -1.7380
 6259TIP3   OH240411   2.590   0.665   7.542 -0.6343  0.6514  0.1114
 6259TIP3    H140412   2.582   0.748   7.494  1.2046  0.5500 -0.3732
 6259TIP3    H240413   2.670   0.675   7.593 -0.7114 -0.6265  0.4772
 6260TIP3   OH240414   1.499   7.219   2.335 -0.3796  0.0944 -0.3486
 6260TIP3    H140415   1.434   7.183   2.275  0.5735  0.4672 -1.6069
 6260TIP3    H240416   1.519   7.146   2.395 -0.7629 -0.5081 -0.9514
 6261TIP3   OH240417   2.309   0.489   1.739  0.4090 -0.0877 -0.5167
 6261TIP3    H140418   2.403   0.471   1.743  0.0018 -2.1156  0.7945
 6261TIP3    H240419   2.293   0.556   1.805  0.7864 -0.4997 -0.0069
 6262TIP3   OH240420   0.307   6.617   1.788  0.3699  0.0187 -0.3406
 6262TIP3    H140421   0.361   6.696   1.789  1.3100 -0.6221 -0.0040
 6262TIP3    H240422   0.223   6.645   1.825  1.0383  0.6067  0.7496
 6263TIP3   OH240423   0.114   6.196   0.448  0.3066 -0.2313  0.1464
 6263TIP3    H140424   0.087   6.268   0.392 -1.0295 -0.2661  0.7318
 6263TIP3    H240425   0.161   6.238   0.520 -0.4069  0.0601  0.4476
 6264TIP3   OH240426   0.250   4.700   0.873  0.4282 -0.4178  0.9891
 6264TIP3    H140427   0.259   4.781   0.822 -0.9094 -0.5772  0.4527
 6264TIP3    H240428   0.336   4.685   0.911  1.2833  0.0709 -0.6994
 6265TIP3   OH240429   7.186   6.422   6.682 -0.2128  0.3424 -0.1712
 6265TIP3    H140430   7.172   6.437   6.589 -0.3949  2.0604  0.1291
 6265TIP3    H240431   7.231   6.500   6.713 -0.0034 -0.2889  1.1597
 6266TIP3   OH240432   2.514   0.348   0.264  0.0132 -0.3236  0.3264
 6266TIP3    H140433   2.606   0.328   0.247  0.0730 -0.4273  0.7655
 6266TIP3    H240434   2.517   0.413   0.335 -0.1974  0.7655 -0.6592
 6267TIP3   OH240435   6.855   4.186   1.420  0.6388  0.2232  0.7412
 6267TIP3    H140436   6.830   4.245   1.492  0.6439  0.1714  0.7860
 6267TIP3    H240437   6.912   4.239   1.364  1.3446 -0.0024  1.2435
 6268TIP3   OH240438   7.339   5.683   0.480 -0.3257 -0.4035 -0.0503
 6268TIP3    H140439   7.409   5.699   0.543  1.4934 -1.8068 -1.6435
 6268TIP3    H240440   7.382   5.638   0.407 -2.5422  0.3590 -1.9008
 6269TIP3   OH240441   2.620   5.648   0.078  0.3761 -0.1151 -0.9761
 6269TIP3    H140442   2.583   5.577   0.026 -0.0318  1.1915 -2.4808
 6269TIP3    H240443   2.555   5.718   0.074  1.2933  0.7851 -0.4625
 6270TIP3   OH240444   6.971   3.402   1.194  0.2388  0.1714 -0.2739
 6270TIP3    H140445   6.985   3.488   1.233 -1.7836  0.3670  0.0579
 6270TIP3    H240446   7.022   3.342   1.248 -1.0410  0.7007  1.5391
 6271TIP3   OH240447   0.173   4.476   7.741  0.2494  0.6308  0.5416
 6271TIP3    H140448   0.114   4.533   7.692  1.1594  2.8123  1.9020
 6271TIP3    H240449   0.230   4.438   7.673 -0.6389  0.9994 -0.4303
 6272TIP3   OH240450   1.304   6.426   7.851 -0.4579  0.6469  0.4507
 6272TIP3    H140451   1.266   6.490   7.912  1.1784  2.9398 -0.8320
 6272TIP3    H240452   1.230   6.394   7.800 -1.6942 -0.4995  2.8545
 6273TIP3   OH240453   0.646   5.167   8.426  0.0716  0.3188  0.4523
 6273TIP3    H140454   0.553   5.177   8.445 -0.6673 -1.9242 -1.7687
 6273TIP3    H240455   0.688   5.239   8.473 -2.5492  0.1907  3.1465
 6274TIP3   OH240456   0.063   7.130   0.834 -0.1007  0.3137  0.0529
 6274TIP3    H140457   0.156   7.105   0.836 -0.0162  0.4521 -1.4420
 6274TIP3    H240458   0.027   7.095   0.915  0.9788 -0.8758  0.0339
 6275TIP3   OH240459   7.043   6.172   1.950  0.0898  0.2715 -0.0151
 6275TIP3    H140460   7.008   6.118   1.879  0.0390  0.5331 -0.1897
 6275TIP3    H240461   7.027   6.121   2.030 -1.3662  0.7151 -0.0101
 6276TIP3   OH240462   6.218   6.122   0.539  0.2755  0.4720  0.8152
 6276TIP3    H140463   6.219   6.038   0.585  0.5307  0.2903  0.4753
 6276TIP3    H240464   6.297   6.167   0.569 -0.9770  1.4867  2.6630
 6277TIP3   OH240465   6.865   5.587   1.906  0.2012 -0.0607 -0.0194
 6277TIP3    H140466   6.818   5.638   1.840 -0.2604 -0.7813 -0.2489
 6277TIP3    H240467   6.936   5.645   1.934  0.1571  0.4082 -0.8469
 6278TIP3   OH240468   2.550   6.668   6.502  0.4266  0.2803 -0.9818
 6278TIP3    H140469   2.515   6.587   6.540  1.1061  0.4452  0.0267
 6278TIP3    H240470   2.567   6.646   6.411  3.2725 -1.6372 -0.0663
 6279TIP3   OH240471   3.012   5.004   2.408 -0.5667  0.1114 -0.0535
 6279TIP3    H140472   3.094   5.042   2.378 -0.4373 -1.3804 -1.6485
 6279TIP3    H240473   3.034   4.958   2.489  0.4844 -1.5539 -1.2719
 6280TIP3   OH240474   2.381   6.764   1.711  0.2583 -0.2601 -0.7599
 6280TIP3    H140475   2.400   6.846   1.756 -0.5118 -0.6350  0.2709
 6280TIP3    H240476   2.463   6.738   1.670  0.7909  0.4243 -0.1144
 6281TIP3   OH240477   1.283   0.366   0.498  0.3571  0.3177 -0.0917
 6281TIP3    H140478   1.234   0.310   0.438  0.8159  1.8535 -1.9706
 6281TIP3    H240479   1.223   0.382   0.571 -1.6518  1.4285 -1.9293
 6282TIP3   OH240480   2.439   4.238   1.377 -0.0059 -0.1250  0.0283
 6282TIP3    H140481   2.522   4.240   1.330 -0.2953 -0.9651 -0.5187
 6282TIP3    H240482   2.372   4.246   1.309 -0.4104 -0.6873  0.3571
 6283TIP3   OH240483   7.326   6.033   1.526  0.4744  0.6080 -0.3138
 6283TIP3    H140484   7.356   5.960   1.581  2.3205  0.3053 -1.6968
 6283TIP3    H240485   7.273   6.086   1.585  2.3791  0.2588  1.8139
 6284TIP3   OH240486   0.668   0.244   2.037  0.6553 -0.5226  0.3001
 6284TIP3    H140487   0.745   0.286   2.076  0.8782  1.6283 -2.3463
 6284TIP3    H240488   0.702   0.195   1.963 -0.4160 -0.2241 -0.4045
 6285TIP3   OH240489   2.265   0.833   0.280  0.0957 -0.0188 -0.1517
 6285TIP3    H140490   2.277   0.869   0.368 -1.1697 -2.3303  1.0192
 6285TIP3    H240491   2.337   0.772   0.268 -0.0638 -0.1419 -0.5053
 6286TIP3   OH240492   3.478   1.034   0.544  0.7039 -0.1711 -0.9055
 6286TIP3    H140493   3.524   1.114   0.520  2.8845 -0.9956  0.3928
 6286TIP3    H240494   3.394   1.064   0.580  1.1513  1.4683 -1.2097
 6287TIP3   OH240495   0.546   6.325   7.400  0.2546 -0.0630 -0.1383
 6287TIP3    H140496   0.508   6.320   7.312 -0.3348 -0.4053  0.1287
 6287TIP3    H240497   0.543   6.418   7.421 -1.1862 -0.1569  0.1801
 6288TIP3   OH240498   7.311   6.129   6.619 -0.2391 -0.0971  0.5551
 6288TIP3    H140499   7.290   6.220   6.643 -2.8864 -0.6068  0.3627
 6288TIP3    H240500   7.327   6.086   6.703  1.3740  0.6003  0.6295
 6289TIP3   OH240501   0.846   5.986   7.611 -0.0427 -0.1039  0.0380
 6289TIP3    H140502   0.820   6.055   7.549  0.1765 -1.1710 -1.2656
 6289TIP3    H240503   0.857   6.032   7.694 -0.4166  1.3517 -0.6917
 6290TIP3   OH240504   4.798   4.089   0.240  0.2358  0.8406 -0.1472
 6290TIP3    H140505   4.764   4.155   0.180  1.9010  1.4380 -0.4538
 6290TIP3    H240506   4.720   4.043   0.271 -0.9706  2.9910  0.1248
 6291TIP3   OH240507   5.608   6.161   6.119  0.0164  0.1561 -0.7379
 6291TIP3    H140508   5.696   6.153   6.083  0.6490 -2.2251  1.1526
 6291TIP3    H240509   5.619   6.211   6.200 -0.4875  0.4495 -0.8431
 6292TIP3   OH240510   2.122   6.710   1.741 -0.5369 -0.1616  0.3035
 6292TIP3    H140511   2.213   6.737   1.738 -1.3374  2.9666  2.0906
 6292TIP3    H240512   2.112   6.667   1.826 -1.0230  0.6923  0.6822
 6293TIP3   OH240513   6.502   5.659   7.018 -0.4344  0.2533  0.1409
 6293TIP3    H140514   6.571   5.706   6.972 -0.0383  0.2936  0.7684
 6293TIP3    H240515   6.486   5.581   6.965 -0.6018  0.7340 -0.5283
 6294TIP3   OH240516   2.996   6.247   1.047  0.1974  0.4832  0.2529
 6294TIP3    H140517   2.923   6.299   1.011 -0.2523 -0.1196  0.2915
 6294TIP3    H240518   2.981   6.249   1.142 -0.3023 -0.4357  0.1935
 6295TIP3   OH240519   2.649   1.274   1.177  0.1860 -0.1457  0.0435
 6295TIP3    H140520   2.679   1.198   1.226 -0.7027 -0.7356 -0.3223
 6295TIP3    H240521   2.562   1.250   1.145 -0.1417  1.0523  0.0006
 6296TIP3   OH240522   1.309   0.039   8.240  0.2671  0.3166 -0.0511
 6296TIP3    H140523   1.358   0.055   8.321  0.8980 -0.5759 -0.2603
 6296TIP3    H240524   1.248  -0.031   8.262  0.0092  0.4966 -0.1808
 6297TIP3   OH240525   0.693   6.587   0.875 -0.1393  0.2540  0.2739
 6297TIP3    H140526   0.772   6.534   0.860  0.3513  1.1317 -0.2911
 6297TIP3    H240527   0.624   6.523   0.891  0.7457 -0.5218  1.0772
 6298TIP3   OH240528   7.206   5.346   0.280  0.0838 -0.4160  0.3524
 6298TIP3    H140529   7.152   5.291   0.224 -0.2081 -0.5124  0.7197
 6298TIP3    H240530   7.166   5.336   0.367  0.2542  0.0831  0.4871
 6299TIP3   OH240531   4.211   4.654   7.856 -0.2058 -0.0209 -0.1643
 6299TIP3    H140532   4.236   4.600   7.931 -1.1916  1.3034  1.1684
 6299TIP3    H240533   4.115   4.659   7.861 -0.3184 -0.3886 -1.8605
 6300TIP3   OH240534   0.014   5.823   0.861 -0.3167  0.1462 -0.3455
 6300TIP3    H140535   0.078   5.868   0.805  1.0139  0.4383  1.3923
 6300TIP3    H240536  -0.071   5.848   0.824  0.5514 -1.0049 -3.2719
 6301TIP3   OH240537   1.800   5.513   6.945 -0.1825  0.3581  0.3215
 6301TIP3    H140538   1.762   5.428   6.925 -0.5029  0.3110  1.1233
 6301TIP3    H240539   1.837   5.543   6.862  1.8983 -1.5424  0.5246
 6302TIP3   OH240540   6.590   6.316   7.098 -0.2913 -0.6155 -0.2465
 6302TIP3    H140541   6.552   6.393   7.056  1.2161  0.4394  0.3015
 6302TIP3    H240542   6.649   6.351   7.165  0.0130 -2.2429  0.3595
 6303TIP3   OH240543   1.936   7.270   2.155 -0.6666  0.1832 -0.1469
 6303TIP3    H140544   1.927   7.239   2.245 -1.1936  0.2778 -0.1701
 6303TIP3    H240545   2.011   7.330   2.158 -0.6324  0.1244  0.2087
 6304TIP3   OH240546   3.992   2.325   0.305 -0.2208  0.1984  0.2271
 6304TIP3    H140547   4.066   2.335   0.246  0.4556 -1.5895  0.7289
 6304TIP3    H240548   4.023   2.264   0.372 -2.2694 -0.9089  0.2146
 6305TIP3   OH240549   7.310   0.701   2.286  0.0307 -0.2807  0.3758
 6305TIP3    H140550   7.390   0.683   2.335  0.8006 -1.1734 -1.1480
 6305TIP3    H240551   7.271   0.615   2.273  0.2616 -0.1589 -1.2437
 6306TIP3   OH240552   5.807   4.332   0.446  0.4727 -0.1541  0.1838
 6306TIP3    H140553   5.749   4.352   0.520 -1.4614  2.7950 -2.0049
 6306TIP3    H240554   5.755   4.273   0.392  0.7659 -0.0265 -0.2304
 6307TIP3   OH240555   2.019   5.194   0.458 -0.0691  0.4219  0.0808
 6307TIP3    H140556   1.959   5.231   0.393 -0.6452 -1.4365 -0.4703
 6307TIP3    H240557   1.979   5.215   0.543 -0.0749  1.5655 -0.2028
 6308TIP3   OH240558   3.067   0.781   7.694 -0.7389 -0.0460  0.4456
 6308TIP3    H140559   3.029   0.694   7.707  0.8243 -0.8097 -0.1342
 6308TIP3    H240560   3.144   0.767   7.640  1.3263  1.2831  2.9365
 6309TIP3   OH240561   2.012   0.115   1.596  0.4243 -0.5672  0.0294
 6309TIP3    H140562   2.021   0.200   1.639 -1.1425 -0.8405  0.9377
 6309TIP3    H240563   2.006   0.052   1.668 -0.5864 -1.2109 -0.6080
 6310TIP3   OH240564   0.616   5.295   1.228 -0.3835 -0.0616  0.1341
 6310TIP3    H140565   0.642   5.342   1.308 -0.1142  1.1596 -0.6532
 6310TIP3    H240566   0.522   5.281   1.238 -0.3209 -0.0605  0.7493
 6311TIP3   OH240567   1.217   0.253   7.631  0.1655 -0.2945 -0.5161
 6311TIP3    H140568   1.265   0.210   7.561 -0.4902 -1.4471 -0.2605
 6311TIP3    H240569   1.263   0.336   7.645  1.7953 -1.1904 -0.5772
 6312TIP3   OH240570   2.739   3.228   7.960 -0.5236  0.1177 -0.5686
 6312TIP3    H140571   2.716   3.321   7.959  0.3156  0.4024  1.8809
 6312TIP3    H240572   2.710   3.198   8.046  2.1400 -1.1007 -0.0551
 6313TIP3   OH240573   6.530   4.728   0.408 -0.7532  0.1891 -0.3852
 6313TIP3    H140574   6.435   4.743   0.409 -0.8619 -0.5047  0.5065
 6313TIP3    H240575   6.550   4.708   0.316 -1.6883 -0.9645 -0.3515
 6314TIP3   OH240576   5.367   5.935   1.221 -0.0296 -0.3052  0.1889
 6314TIP3    H140577   5.346   5.887   1.141 -0.6214  2.3224 -1.2614
 6314TIP3    H240578   5.282   5.951   1.263  0.2274 -1.1237  1.0521
 6315TIP3   OH240579   0.760   0.070   7.027 -0.8218 -0.1440  0.8291
 6315TIP3    H140580   0.744   0.163   7.007 -1.9655 -0.8965 -2.1242
 6315TIP3    H240581   0.680   0.040   7.069 -0.0253  0.4435  2.8111
 6316TIP3   OH240582   2.469   0.653   0.127 -0.2750 -0.2125 -0.3645
 6316TIP3    H140583   2.502   0.573   0.168  0.9775 -1.3062 -3.3093
 6316TIP3    H240584   2.515   0.724   0.171 -1.4284 -1.0627  2.3344
 6317TIP3   OH240585   6.903   6.482   1.647  0.0362 -0.3906  0.2866
 6317TIP3    H140586   6.916   6.576   1.654  1.8841 -0.5383 -0.7699
 6317TIP3    H240587   6.909   6.450   1.738  0.8918  0.3418  0.4961
 6318TIP3   OH240588   2.399   3.510   0.612 -0.0016  0.4106 -0.5392
 6318TIP3    H140589   2.481   3.488   0.568 -1.3136 -0.6285 -2.5308
 6318TIP3    H240590   2.426   3.558   0.690  2.5323 -0.5441 -0.7783
 6319TIP3   OH240591   3.816   6.424   1.981  0.3531 -0.6294 -0.1245
 6319TIP3    H140592   3.871   6.500   1.963 -1.0932  0.2595 -0.8508
 6319TIP3    H240593   3.755   6.454   2.049 -0.7322 -0.8904 -0.9756
 6320TIP3   OH240594   0.149   5.881   7.112 -0.5306  0.1115  0.3090
 6320TIP3    H140595   0.143   5.939   7.188 -1.9271  0.7036 -0.2391
 6320TIP3    H240596   0.182   5.937   7.042  0.0370 -0.2504  0.2857
 6321TIP3   OH240597   0.206   3.095   1.471  0.5266  0.1043 -0.3072
 6321TIP3    H140598   0.209   3.107   1.376 -0.3120  0.4028 -0.3001
 6321TIP3    H240599   0.254   3.170   1.506  1.5758 -0.4628 -0.5220
 6322TIP3   OH240600   0.126   5.600   8.159 -0.5060  0.0036 -0.6570
 6322TIP3    H140601   0.109   5.685   8.119 -0.8474 -0.1842 -0.9165
 6322TIP3    H240602   0.215   5.607   8.193 -0.2435  0.2005 -1.3692
 6323TIP3   OH240603   7.217   5.944   0.208 -0.0033 -0.1904 -0.4969
 6323TIP3    H140604   7.174   5.972   0.127  1.4903  0.9187 -0.9311
 6323TIP3    H240605   7.167   5.988   0.277  0.2967  0.9584 -0.9887
 6324TIP3   OH240606   3.055   4.846   6.948  0.1722 -0.1259  0.1302
 6324TIP3    H140607   3.009   4.898   6.882 -0.2890 -0.4785  0.1732
 6324TIP3    H240608   3.109   4.910   6.994  0.2709  0.1713 -0.3906
 6325TIP3   OH240609   1.986   0.963   1.480 -0.2246  0.1805 -0.0216
 6325TIP3    H140610   1.940   1.005   1.553 -0.4260  0.3425 -0.2417
 6325TIP3    H240611   1.918   0.912   1.435  0.0937 -0.6762  0.4603
 6326TIP3   OH240612   6.404   6.465   7.920 -0.4298  0.3577 -0.9158
 6326TIP3    H140613   6.493   6.471   7.884 -1.2506  0.6329 -2.9500
 6326TIP3    H240614   6.347   6.466   7.843 -2.1672 -0.6192  0.3358
 6327TIP3   OH240615   1.037   6.614   0.250  0.2199 -1.2186  0.1041
 6327TIP3    H140616   1.062   6.567   0.170  1.0372 -0.9201  0.1851
 6327TIP3    H240617   1.078   6.564   0.321 -0.4260 -1.4271  0.3356
 6328TIP3   OH240618   1.893   0.629   2.114  0.0587 -0.5986  0.5412
 6328TIP3    H140619   1.950   0.552   2.122  1.3467  0.4908  2.4934
 6328TIP3    H240620   1.805   0.596   2.134  0.0024 -2.2469 -2.2302
 6329TIP3   OH240621   1.051   6.407   7.291 -0.3701  0.7363  0.0268
 6329TIP3    H140622   1.087   6.326   7.328 -1.2057  1.3525  2.3234
 6329TIP3    H240623   1.125   6.452   7.252  0.8887  0.7283  2.3248
 6330TIP3   OH240624   0.982   5.862   0.988  0.4202 -0.2648 -0.4190
 6330TIP3    H140625   1.058   5.887   1.039 -0.6831  2.7073 -0.1288
 6330TIP3    H240626   0.930   5.807   1.048  0.8710  0.2091  0.4184
 6331TIP3   OH240627   3.991   6.609   0.271  0.3536 -0.2088 -0.4026
 6331TIP3    H140628   3.941   6.647   0.343 -2.0345 -0.0888 -2.0860
 6331TIP3    H240629   4.082   6.629   0.292 -0.4882  1.9334  1.3670
 6332TIP3   OH240630   0.329   6.981   1.740  0.0056  1.1809 -0.2491
 6332TIP3    H140631   0.339   7.031   1.659  0.3379  0.4370 -0.6746
 6332TIP3    H240632   0.418   6.977   1.776 -0.1657  1.6311  0.2264
 6333TIP3   OH240633   4.311   1.613   0.851  0.4862  0.3213 -0.1173
 6333TIP3    H140634   4.281   1.523   0.865  2.5384 -0.2245  0.8890
 6333TIP3    H240635   4.403   1.604   0.828  0.2030  2.0430 -2.0803
 6334TIP3   OH240636   1.516   5.235   1.843  0.1393  0.2213  0.4285
 6334TIP3    H140637   1.535   5.241   1.936  1.0662  1.3401  0.1846
 6334TIP3    H240638   1.421   5.244   1.837  0.2826  2.6522  1.1016
 6335TIP3   OH240639   0.743   6.080   2.434 -0.8310  0.0992 -0.5568
 6335TIP3    H140640   0.726   6.006   2.376  1.2240 -1.3539  0.6395
 6335TIP3    H240641   0.837   6.078   2.449 -1.1194  1.3515  1.6337
 6336TIP3   OH240642   0.678   6.311   1.364  0.5912  0.0875  0.2629
 6336TIP3    H140643   0.628   6.241   1.405  0.5617 -1.4029 -2.1789
 6336TIP3    H240644   0.618   6.386   1.361 -0.4151 -0.7150  0.1977
 6337TIP3   OH240645   0.548   5.225   0.370  0.0999 -0.4108 -0.1677
 6337TIP3    H140646   0.633   5.219   0.327  0.0779 -0.8046 -0.1551
 6337TIP3    H240647   0.531   5.319   0.376  0.3586 -0.3412 -0.5119
 6338TIP3   OH240648   6.772   5.379   2.022 -0.1866 -0.0312  0.3201
 6338TIP3    H140649   6.701   5.399   2.083  0.8258 -1.1679  1.9024
 6338TIP3    H240650   6.801   5.464   1.991 -0.0748  0.6344  2.1780
 6339TIP3   OH240651   1.614   6.479   6.837 -0.1019  0.3053 -0.3976
 6339TIP3    H140652   1.530   6.526   6.835 -0.1678  0.1846 -0.4431
 6339TIP3    H240653   1.628   6.451   6.746  1.0669  2.2617 -0.8588
 6340TIP3   OH240654   3.525   1.724   0.333  0.0249 -0.5072 -0.2569
 6340TIP3    H140655   3.433   1.749   0.331  0.2647  0.2794 -1.3573
 6340TIP3    H240656   3.536   1.684   0.420 -1.2957 -0.4448 -0.0402
 6341TIP3   OH240657   3.100   6.099   0.823  0.3881 -0.5214  0.0373
 6341TIP3    H140658   3.092   6.166   0.891 -1.4417  0.2303 -0.8694
 6341TIP3    H240659   3.065   6.019   0.865  1.1766 -0.5571  0.6331
 6342TIP3   OH240660   2.064   1.691   1.566 -0.0161 -0.6240  0.3137
 6342TIP3    H140661   2.089   1.779   1.594 -0.0981 -0.2209 -0.8748
 6342TIP3    H240662   1.977   1.678   1.604  0.3362 -0.5168  1.1746
 6343TIP3   OH240663   2.747   0.160   1.762  0.0206 -0.3553  0.1816
 6343TIP3    H140664   2.672   0.193   1.713 -1.8300 -2.2410  1.6266
 6343TIP3    H240665   2.709   0.098   1.824  2.8152 -1.4539  0.8581
 6344TIP3   OH240666   3.675   6.821   1.401 -0.5399  0.1127 -0.4609
 6344TIP3    H140667   3.734   6.797   1.330 -0.9118 -1.7389 -0.1646
 6344TIP3    H240668   3.587   6.810   1.365 -0.7307 -0.7494  0.2327
 6345TIP3   OH240669   2.628   6.382   6.377 -0.1926 -0.4309  0.5485
 6345TIP3    H140670   2.720   6.405   6.389  0.0273 -0.2276 -1.4394
 6345TIP3    H240671   2.602   6.427   6.297 -2.2212  0.0764  1.4605
 6346TIP3   OH240672   1.569   4.420   1.463 -0.5062  0.3173  0.1383
 6346TIP3    H140673   1.588   4.500   1.414 -2.3480  1.2010  0.7958
 6346TIP3    H240674   1.476   4.427   1.485 -0.7019 -2.0201  0.1982
 6347TIP3   OH240675   0.548   4.744   0.563  0.3374 -0.3221 -0.2561
 6347TIP3    H140676   0.527   4.657   0.528 -1.4012 -0.2323  0.5454
 6347TIP3    H240677   0.543   4.802   0.487  3.2128 -1.1498 -1.1516
 6348TIP3   OH240678   0.137   6.942   8.331 -0.1811 -0.5554 -0.0977
 6348TIP3    H140679   0.194   7.011   8.364 -0.2750 -1.3897  1.8862
 6348TIP3    H240680   0.049   6.968   8.359 -0.2444 -1.3455  0.4610
 6349TIP3   OH240681   1.298   6.634   2.524 -0.3798  0.4558  0.6521
 6349TIP3    H140682   1.269   6.712   2.572  0.5742  2.7890 -2.4280
 6349TIP3    H240683   1.394   6.637   2.530 -0.3206 -0.1272 -0.0042
 6350TIP3   OH240684   2.724   3.595   8.462 -0.0177  0.1174 -0.5470
 6350TIP3    H140685   2.702   3.644   8.383  0.3824 -0.1945 -0.8526
 6350TIP3    H240686   2.698   3.653   8.534  0.8343  0.9587 -0.9098
 6351TIP3   OH240687   2.328   5.610   1.095 -0.0520  0.2750  0.0164
 6351TIP3    H140688   2.307   5.585   1.005 -0.2557  0.2142  0.0813
 6351TIP3    H240689   2.331   5.706   1.093  0.4300  0.2600 -0.1629
 6352TIP3   OH240690   3.051   5.755   0.411  0.2014 -1.0666  0.2504
 6352TIP3    H140691   3.095   5.839   0.421  1.4869 -1.8158  0.9628
 6352TIP3    H240692   2.992   5.768   0.337 -1.1838  1.1276  1.6307
 6353TIP3   OH240693   7.239   6.869   0.104 -0.3695  0.6516 -0.3240
 6353TIP3    H140694   7.146   6.882   0.086 -0.4703  0.7172  0.2314
 6353TIP3    H240695   7.259   6.932   0.173  0.1884  0.9282 -0.7255
 6354TIP3   OH240696   2.560   4.409   7.990  0.0975  0.0863 -0.0577
 6354TIP3    H140697   2.561   4.494   8.035  0.1372 -0.7139  1.4891
 6354TIP3    H240698   2.650   4.396   7.962 -0.0670  0.9060 -0.9851
 6355TIP3   OH240699   4.374   5.378   1.238  0.3101  0.1799  0.0063
 6355TIP3    H140700   4.352   5.381   1.144 -0.6401  1.3965  0.2532
 6355TIP3    H240701   4.453   5.431   1.245 -0.0197  0.6770 -0.0040
 6356TIP3   OH240702   4.103   3.579   0.396 -0.3904 -0.4871  0.2607
 6356TIP3    H140703   4.067   3.668   0.390  0.5870 -0.0458  0.9606
 6356TIP3    H240704   4.034   3.524   0.359 -0.1554  0.7605 -2.1175
 6357TIP3   OH240705   5.123   2.426   7.638  0.2053  0.5102  0.2016
 6357TIP3    H140706   5.181   2.435   7.562  1.7311  0.9676  1.4047
 6357TIP3    H240707   5.156   2.349   7.684  1.1789  1.9709  2.0078
 6358TIP3   OH240708   6.676   0.204   1.626 -0.5356  0.7003  0.1142
 6358TIP3    H140709   6.736   0.145   1.670 -0.7115  0.0460 -0.5200
 6358TIP3    H240710   6.606   0.148   1.592  0.5837  0.9083 -2.6691
 6359TIP3   OH240711   7.240   4.558   1.276 -0.2525 -0.2488 -0.1075
 6359TIP3    H140712   7.233   4.590   1.365  0.1838  0.2369 -0.2409
 6359TIP3    H240713   7.202   4.470   1.278  2.8767 -1.6448  1.3355
 6360TIP3   OH240714   0.639   0.702   1.428  0.1869  0.5496 -0.8239
 6360TIP3    H140715   0.666   0.722   1.339  0.7263  2.9143 -0.1631
 6360TIP3    H240716   0.721   0.694   1.477 -0.1334  0.7999 -0.2408
 6361TIP3   OH240717   6.317   5.936   1.793  0.2592  0.0817  0.0443
 6361TIP3    H140718   6.351   6.006   1.849  0.2219  0.4936 -0.4387
 6361TIP3    H240719   6.308   5.860   1.851 -1.9683  1.1311  1.1517
 6362TIP3   OH240720   7.054   5.028   2.318  0.1827  0.6997 -0.7274
 6362TIP3    H140721   7.032   5.091   2.386  0.4929  1.4147 -1.2881
 6362TIP3    H240722   7.008   4.948   2.344  0.4205  0.9151  0.4026
 6363TIP3   OH240723   5.993   6.719   1.719 -0.2309 -0.4306 -0.3732
 6363TIP3    H140724   6.018   6.648   1.777 -3.5727  0.4198  2.2895
 6363TIP3    H240725   6.065   6.782   1.724  0.4378 -1.3141  1.2910
 6364TIP3   OH240726   5.071   4.644   0.412  0.3981  0.0334  0.0848
 6364TIP3    H140727   5.123   4.637   0.333 -2.1702 -0.1746 -1.6484
 6364TIP3    H240728   5.052   4.553   0.436 -1.3513  0.1380 -0.8234
 6365TIP3   OH240729   6.988   5.790   7.658 -0.0263  0.0970  0.0312
 6365TIP3    H140730   6.909   5.763   7.706  1.0541 -1.0992  1.1987
 6365TIP3    H240731   6.964   5.872   7.616 -1.8851 -0.2267  0.3976
 6366TIP3   OH240732   2.593   6.405   1.246  0.0073  0.4534 -0.2765
 6366TIP3    H140733   2.657   6.415   1.316 -0.8191 -0.0972  0.5786
 6366TIP3    H240734   2.591   6.311   1.229 -0.5339  0.4717 -0.3295
 6367TIP3   OH240735   2.634   7.282   0.268 -0.2140 -0.1659  0.1312
 6367TIP3    H140736   2.543   7.305   0.285 -0.1946 -1.2760  1.8860
 6367TIP3    H240737   2.657   7.223   0.340  1.4839 -0.9359 -1.0209
 6368TIP3   OH240738   0.963   5.595   1.411  0.4667 -0.6249 -0.1573
 6368TIP3    H140739   0.925   5.598   1.499  1.3763 -1.0032  0.2522
 6368TIP3    H240740   1.048   5.553   1.423  0.8787 -0.0681 -1.1250
 6369TIP3   OH240741   1.125   4.846   1.706 -0.5042 -0.0796  0.2053
 6369TIP3    H140742   1.182   4.912   1.746 -0.3779 -0.1147  0.0799
 6369TIP3    H240743   1.039   4.888   1.703 -0.1822  0.5077 -0.9324
 6370TIP3   OH240744   0.747   5.840   0.811  0.0188 -0.0417  0.1782
 6370TIP3    H140745   0.746   5.744   0.818 -1.6095  0.1333  2.8875
 6370TIP3    H240746   0.824   5.867   0.860  1.4329  0.0047 -1.9774
 6371TIP3   OH240747   0.709   0.103   0.785 -0.1008 -0.7149 -0.0706
 6371TIP3    H140748   0.704   0.022   0.837 -2.4729  0.0262  0.9426
 6371TIP3    H240749   0.644   0.160   0.825  1.6854  1.7930 -0.6537
 6372TIP3   OH240750   2.564   3.979   1.462 -0.3068 -0.0153  0.1214
 6372TIP3    H140751   2.594   4.034   1.389  1.5706 -1.1388  0.0192
 6372TIP3    H240752   2.524   3.903   1.420  1.6506 -1.1326  0.2286
 6373TIP3   OH240753   0.584   0.134   0.553  0.3648  0.0019  0.2136
 6373TIP3    H140754   0.620   0.129   0.641  0.2510 -2.5479  0.1634
 6373TIP3    H240755   0.655   0.171   0.500  0.7475  0.7017  1.2151
 6374TIP3   OH240756   1.059   0.749   1.106  0.7748 -0.2744 -0.2957
 6374TIP3    H140757   0.971   0.781   1.127  1.4562  1.3572  0.1834
 6374TIP3    H240758   1.051   0.654   1.109 -0.9719 -0.1501 -0.2346
 6375TIP3   OH240759   1.152   6.153   7.901 -0.2158 -0.8033 -0.2071
 6375TIP3    H140760   1.245   6.131   7.894 -0.5251 -2.4044  0.5713
 6375TIP3    H240761   1.143   6.191   7.988 -0.7047 -2.8163  0.6396
 6376TIP3   OH240762   5.907   6.777   7.914  0.6529 -0.2541 -0.1320
 6376TIP3    H140763   6.001   6.760   7.920  0.8560  1.1300  0.6391
 6376TIP3    H240764   5.896   6.867   7.944 -0.8190 -0.1120 -1.0323
 6377TIP3   OH240765   1.622   7.211   6.393 -0.0907  0.1254 -1.2024
 6377TIP3    H140766   1.557   7.281   6.384  0.9527  1.1601 -0.8656
 6377TIP3    H240767   1.622   7.191   6.487 -1.7747 -1.7003 -1.5641
 6378TIP3   OH240768   1.282   4.727   1.395 -0.2355 -0.3503 -0.2844
 6378TIP3    H140769   1.294   4.670   1.471 -1.1793 -0.9435 -0.5705
 6378TIP3    H240770   1.338   4.803   1.412  0.6768 -1.1457  0.3191
 6379TIP3   OH240771   1.004   6.729   1.922  0.2805  0.0159  0.3353
 6379TIP3    H140772   0.945   6.737   1.997  0.3357 -0.2882  0.4099
 6379TIP3    H240773   1.081   6.684   1.956  0.4651  0.2151  0.1833
 6380TIP3   OH240774   1.329   6.195   1.635  1.1449  0.2869  0.6937
 6380TIP3    H140775   1.307   6.166   1.724  1.2139  0.0384  0.6317
 6380TIP3    H240776   1.421   6.169   1.624  2.6143  4.4029  2.2218
 6381TIP3   OH240777   2.106   6.260   1.158  0.4424 -0.0433 -0.4632
 6381TIP3    H140778   2.129   6.305   1.240  1.7907 -0.9028 -0.3426
 6381TIP3    H240779   2.182   6.273   1.102  0.3073 -1.0753 -0.8861
 6382TIP3   OH240780   4.101   1.725   8.089  0.0734  0.1897 -0.7530
 6382TIP3    H140781   4.114   1.810   8.130  2.5026 -0.2815 -0.4885
 6382TIP3    H240782   4.100   1.663   8.162 -2.3026  0.0068 -0.8886
 6383TIP3   OH240783   2.458   1.534   0.517  0.5051  0.1020  0.2074
 6383TIP3    H140784   2.492   1.491   0.596  0.3210 -0.0363  0.2124
 6383TIP3    H240785   2.387   1.477   0.488 -0.2023  0.7769  0.6180
 6384TIP3   OH240786   2.925   0.608   8.198 -0.0292  0.0993  0.0338
 6384TIP3    H140787   2.959   0.667   8.266 -0.6323 -1.9772  2.2278
 6384TIP3    H240788   2.837   0.640   8.180 -0.1791  0.1774  0.8667
 6385TIP3   OH240789   2.422   7.245   2.128  0.4749  0.1074 -0.2633
 6385TIP3    H140790   2.421   7.290   2.212 -0.6612 -0.6210  0.1303
 6385TIP3    H240791   2.363   7.296   2.072  0.3795 -0.0195 -0.2799
 6386TIP3   OH240792   2.116   7.218   0.986  0.5412  0.2523  0.3608
 6386TIP3    H140793   2.108   7.294   0.928 -0.1056  0.4711  0.7389
 6386TIP3    H240794   2.191   7.170   0.951  0.3288  0.5279 -0.4984
 6387TIP3   OH240795   7.149   4.298   1.124  0.3262  0.0673  0.6291
 6387TIP3    H140796   7.145   4.206   1.151  0.0627 -0.3663 -0.8330
 6387TIP3    H240797   7.104   4.300   1.040 -1.3897  1.9044  1.5555
 6388TIP3   OH240798   5.992   6.206   0.844 -0.4481  0.5710  0.4671
 6388TIP3    H140799   6.030   6.256   0.772  0.0090  0.1711  0.4255
 6388TIP3    H240800   6.023   6.250   0.923  1.2356 -0.5386  0.4629
 6389TIP3   OH240801   3.217   6.375   0.629  0.2342  0.3552  0.5032
 6389TIP3    H140802   3.274   6.299   0.640 -1.0348 -0.8498 -1.0379
 6389TIP3    H240803   3.246   6.415   0.547  0.2179  0.9472  0.7808
 6390TIP3   OH240804   5.303   0.452   6.926 -0.3776 -0.1559  0.3642
 6390TIP3    H140805   5.211   0.428   6.939 -0.4382 -0.0195  0.1775
 6390TIP3    H240806   5.320   0.432   6.834 -0.0437 -0.7776  0.5540
 6391TIP3   OH240807   2.021   4.780   0.562 -0.1306  0.3168 -0.2154
 6391TIP3    H140808   2.061   4.776   0.475 -0.0636  2.4559 -0.3137
 6391TIP3    H240809   1.945   4.723   0.557  0.7257 -0.7480 -1.2153
 6392TIP3   OH240810   0.778   7.149   0.294 -0.0163  0.1348  0.5837
 6392TIP3    H140811   0.766   7.115   0.206  1.6487  2.8779 -0.7765
 6392TIP3    H240812   0.691   7.178   0.321 -0.6419 -1.2534  0.1246
 6393TIP3   OH240813   2.836   1.050   1.714 -0.4597  0.1806 -0.3089
 6393TIP3    H140814   2.930   1.054   1.727 -0.4426  0.9496 -0.6605
 6393TIP3    H240815   2.801   1.120   1.769 -0.8906 -0.5852  0.4074
 6394TIP3   OH240816   3.713   6.130   0.592 -0.1324  0.2471  0.9832
 6394TIP3    H140817   3.806   6.146   0.574  0.0970 -0.5434  1.4515
 6394TIP3    H240818   3.713   6.071   0.668 -0.9781 -1.3416 -0.2291
 6395TIP3   OH240819   1.992   6.144   0.638 -0.0381  0.6389  0.0717
 6395TIP3    H140820   1.984   6.174   0.729  0.4320 -0.2883  0.4269
 6395TIP3    H240821   1.971   6.050   0.642  1.6935  0.2201 -0.4918
 6396TIP3   OH240822   2.674   5.223   1.491  0.2062  0.1624 -0.1146
 6396TIP3    H140823   2.621   5.208   1.569  0.8823  1.7114  0.6678
 6396TIP3    H240824   2.633   5.299   1.449  1.2063  0.7642 -0.0222
 6397TIP3   OH240825   6.949   0.944   1.741 -0.5376  0.1213 -0.2172
 6397TIP3    H140826   6.968   0.953   1.648 -1.9871 -0.9717 -0.6355
 6397TIP3    H240827   6.855   0.927   1.745 -0.0625 -2.4150  1.2592
 6398TIP3   OH240828   2.542   1.938   1.864 -1.0578  0.4600 -0.4381
 6398TIP3    H140829   2.465   1.993   1.855 -0.7878  0.4459 -3.4517
 6398TIP3    H240830   2.520   1.858   1.817  0.6453  0.3522 -1.1019
 6399TIP3   OH240831   2.107   5.662   6.815 -0.4008 -0.0273  0.4761
 6399TIP3    H140832   2.167   5.736   6.805 -0.6367  0.2281  0.9533
 6399TIP3    H240833   2.027   5.689   6.770 -0.2603 -0.2629  0.0737
 6400TIP3   OH240834   2.445   5.485   7.866 -0.0581 -0.0943 -0.0601
 6400TIP3    H140835   2.529   5.516   7.832  0.6146 -0.7231  1.0328
 6400TIP3    H240836   2.388   5.562   7.860  1.5371  1.3711  2.4499
 6401TIP3   OH240837   1.575   6.831   0.789  0.3432 -0.5291  0.3725
 6401TIP3    H140838   1.514   6.904   0.780  1.0974  0.0523 -0.0816
 6401TIP3    H240839   1.521   6.753   0.776  0.0139  0.0254 -1.8732
 6402TIP3   OH240840   6.681   6.777   8.323 -0.1062 -0.6305  0.2318
 6402TIP3    H140841   6.702   6.729   8.403  0.7873  0.6933  0.8105
 6402TIP3    H240842   6.675   6.709   8.256  1.2423 -1.5508  1.0108
 6403TIP3   OH240843   3.014   3.116   8.091  0.5369 -0.4816 -0.4211
 6403TIP3    H140844   2.985   3.180   8.156 -1.1969 -2.0386  0.3611
 6403TIP3    H240845   3.030   3.036   8.141  1.6347 -0.9812 -1.5494
 6404TIP3   OH240846   3.128   6.273   7.622  0.0542 -0.0321  0.4105
 6404TIP3    H140847   3.125   6.369   7.624 -1.8621 -0.0458 -0.9570
 6404TIP3    H240848   3.037   6.246   7.634  0.5487 -1.6805  0.5353
 6405TIP3   OH240849   4.108   6.023   0.085  0.1934  0.2751 -0.6986
 6405TIP3    H140850   4.116   6.093   0.021  1.9568 -0.2838 -1.1094
 6405TIP3    H240851   4.190   6.024   0.134 -0.8648  0.2848  1.1564
 6406TIP3   OH240852   4.508   4.162   0.433  0.0224  0.5814  0.2756
 6406TIP3    H140853   4.468   4.202   0.510 -1.1035 -0.0554  0.0247
 6406TIP3    H240854   4.590   4.125   0.466  0.0335  1.1788  0.9493
 6407TIP3   OH240855   1.755   4.388   0.055 -0.1883  0.2497  0.7060
 6407TIP3    H140856   1.774   4.350  -0.031  3.0846  0.8326  1.0793
 6407TIP3    H240857   1.692   4.458   0.038  0.3724  0.3057 -1.2112
 6408TIP3   OH240858   4.327   4.714   0.117  0.8378 -0.1384 -0.7377
 6408TIP3    H140859   4.237   4.698   0.089  1.2826 -1.0523 -1.6950
 6408TIP3    H240860   4.332   4.808   0.133 -0.1010  0.0105 -1.3305
 6409TIP3   OH240861   4.207   6.970   0.472 -0.0875 -0.0393 -0.6681
 6409TIP3    H140862   4.209   7.065   0.487 -0.4508 -0.2374  0.7827
 6409TIP3    H240863   4.146   6.958   0.400 -1.5055  0.6988  0.3795
 6410TIP3   OH240864   3.326   0.318   0.702 -0.3071 -0.3277  0.0277
 6410TIP3    H140865   3.309   0.338   0.795  0.0276 -0.6000  0.1469
 6410TIP3    H240866   3.350   0.403   0.664  0.1085 -0.3149  0.3128
 6411TIP3   OH240867   6.800   5.041   6.748  0.1035 -0.3023 -0.2320
 6411TIP3    H140868   6.734   5.037   6.679 -0.6116  0.6270  0.3913
 6411TIP3    H240869   6.797   4.955   6.790  0.4485 -0.8291 -1.2556
 6412TIP3   OH240870   4.131   6.085   2.368 -0.1409 -0.3555 -0.1244
 6412TIP3    H140871   4.145   6.163   2.313 -0.6007 -0.1742  0.0141
 6412TIP3    H240872   4.040   6.061   2.352 -0.5618  0.2771  1.3203
 6413TIP3   OH240873   0.601   3.245   6.151  0.2143 -0.1170  0.2767
 6413TIP3    H140874   0.539   3.316   6.134  0.2531 -0.2735 -0.5827
 6413TIP3    H240875   0.681   3.289   6.179  0.0082  0.1381  0.4685
 6414TIP3   OH240876   2.720   7.095   1.791 -0.0877  0.2114  0.7197
 6414TIP3    H140877   2.806   7.063   1.820  0.2323  1.6711  1.4301
 6414TIP3    H240878   2.701   7.168   1.850 -2.0903 -0.4717  0.9373
 6415TIP3   OH240879   2.483   4.392   6.839  0.0325  0.5111  0.0889
 6415TIP3    H140880   2.388   4.398   6.855 -0.3209 -1.8717 -0.8199
 6415TIP3    H240881   2.519   4.366   6.924 -0.3085  0.1042  0.1140
 6416TIP3   OH240882   4.211   4.219   7.878 -0.1813 -0.3109 -0.5305
 6416TIP3    H140883   4.153   4.237   7.951 -2.4138  0.5553 -2.4512
 6416TIP3    H240884   4.285   4.277   7.890 -0.3443 -0.4611  1.2336
 6417TIP3   OH240885   1.161   5.398   1.392 -0.3796 -0.2977  0.0799
 6417TIP3    H140886   1.234   5.381   1.333  0.0451  3.0470 -0.4982
 6417TIP3    H240887   1.189   5.363   1.477  0.8642 -1.1899 -0.6948
 6418TIP3   OH240888   3.246   4.171   7.857 -0.2161  0.4295 -0.2143
 6418TIP3    H140889   3.260   4.265   7.867 -1.2272  0.7839 -1.8915
 6418TIP3    H240890   3.289   4.149   7.775 -2.6348  0.0422 -1.4185
 6419TIP3   OH240891   4.387   6.538   1.807 -0.4396  0.0627 -0.0044
 6419TIP3    H140892   4.307   6.505   1.849 -0.8062 -0.2308 -0.9168
 6419TIP3    H240893   4.404   6.475   1.736  0.2527  0.4650 -0.1906
 6420TIP3   OH240894   3.036   1.597   0.189 -0.3318  0.0033  0.3284
 6420TIP3    H140895   2.982   1.657   0.240 -0.1374 -0.0742  0.6305
 6420TIP3    H240896   3.010   1.510   0.219  1.2609  0.0056  1.8405
 6421TIP3   OH240897   2.875   0.752   1.504 -0.2374  0.0215  1.0791
 6421TIP3    H140898   2.837   0.719   1.585 -0.9844 -0.0899  0.6817
 6421TIP3    H240899   2.916   0.676   1.463 -0.8374 -0.1556  0.8016
 6422TIP3   OH240900   2.603   4.872   7.342  0.3465  0.5175 -0.6103
 6422TIP3    H140901   2.632   4.932   7.274 -1.1761 -0.8207 -2.4945
 6422TIP3    H240902   2.645   4.789   7.322 -1.3440 -0.3080 -0.8750
 6423TIP3   OH240903   2.303   5.109   8.256  0.0843 -0.1823  0.1018
 6423TIP3    H140904   2.250   5.058   8.194 -2.1209  0.8108  1.1111
 6423TIP3    H240905   2.324   5.190   8.209  0.6296 -0.5244 -0.2544
 6424TIP3   OH240906   6.638   6.007   6.665  0.6973  0.4280  0.4438
 6424TIP3    H140907   6.726   6.045   6.661  0.3531  1.1774 -0.0724
 6424TIP3    H240908   6.592   6.046   6.591 -0.3633  0.7475  1.2641
 6425TIP3   OH240909   2.504   5.556   1.627 -0.3795 -0.0324 -0.4680
 6425TIP3    H140910   2.432   5.522   1.680 -0.7727 -0.7212 -1.4284
 6425TIP3    H240911   2.497   5.509   1.544  2.5255 -1.7754  0.2042
 6426TIP3   OH240912   6.816   0.313   7.699 -0.2654 -0.0267 -0.8672
 6426TIP3    H140913   6.868   0.274   7.769  0.0388  0.6983 -0.6831
 6426TIP3    H240914   6.829   0.407   7.709 -1.0238  0.1296 -1.2764
 6427TIP3   OH240915   2.683   0.018   2.299  0.4873  0.5550 -0.3519
 6427TIP3    H140916   2.765  -0.030   2.290  0.7099  0.8859 -0.0723
 6427TIP3    H240917   2.616  -0.043   2.267  1.1377  1.2927 -3.2122
 6428TIP3   OH240918   1.112   5.097   0.257 -0.4854 -0.1448  0.5054
 6428TIP3    H140919   1.095   5.166   0.193  0.5213  0.3383  0.7504
 6428TIP3    H240920   1.050   5.114   0.328  0.3759  1.0523  0.9763
 6429TIP3   OH240921   1.816   3.515   1.430 -0.5353 -0.9526  0.3727
 6429TIP3    H140922   1.743   3.478   1.480  0.6421 -2.5764  0.9168
 6429TIP3    H240923   1.801   3.487   1.340 -1.3882  0.0006  0.2070
 6430TIP3   OH240924   6.112   1.693   0.943 -0.1491  0.0075  0.0722
 6430TIP3    H140925   6.078   1.612   0.980 -0.5159 -0.7435 -1.8299
 6430TIP3    H240926   6.145   1.742   1.018 -1.7229 -1.0328  1.4679
 6431TIP3   OH240927   6.666   6.533   7.804  0.0501  0.2693 -0.0824
 6431TIP3    H140928   6.622   6.541   7.719 -0.4423  1.5814  0.2919
 6431TIP3    H240929   6.732   6.465   7.791 -0.5566 -0.0932 -1.2953
 6432TIP3   OH240930   3.289   3.969   2.251 -0.6412 -0.2918 -0.0283
 6432TIP3    H140931   3.259   4.058   2.269 -0.5834 -0.1307 -0.7032
 6432TIP3    H240932   3.312   3.933   2.336 -0.0734  0.5482  0.1751
 6433TIP3   OH240933   2.095   5.712   0.882  0.3823 -0.1095 -0.0277
 6433TIP3    H140934   2.129   5.774   0.817 -0.3323 -1.1251 -1.3798
 6433TIP3    H240935   2.128   5.746   0.966  2.7822  0.2525 -1.0616
 6434TIP3   OH240936   3.250   4.262   1.843 -0.3178  0.0406 -0.8217
 6434TIP3    H140937   3.210   4.327   1.784  1.6848  1.4038 -0.7131
 6434TIP3    H240938   3.304   4.313   1.903  1.5399 -1.7331 -0.9111
 6435TIP3   OH240939   3.560   6.269   7.499 -0.0245  0.2896  0.5424
 6435TIP3    H140940   3.557   6.365   7.500  1.3801  0.3412  1.3104
 6435TIP3    H240941   3.481   6.241   7.544 -0.5741  1.0862  0.0769
 6436TIP3   OH240942   2.836   0.346   8.495 -0.1536 -0.2235 -0.9050
 6436TIP3    H140943   2.775   0.414   8.524 -1.3071 -1.0956 -1.2346
 6436TIP3    H240944   2.850   0.291   8.573  2.7733  1.8261  0.0580
 6437TIP3   OH240945   5.440   6.717   1.622  0.1040  0.5255 -0.2035
 6437TIP3    H140946   5.493   6.792   1.594  1.1554 -0.2359 -0.2560
 6437TIP3    H240947   5.495   6.671   1.686 -0.8018  0.1616  0.3216
 6438TIP3   OH240948   4.536   5.695   8.068 -0.3194 -0.3271 -0.0933
 6438TIP3    H140949   4.529   5.732   7.980 -2.9847  0.0612  0.2623
 6438TIP3    H240950   4.559   5.769   8.124  1.6681 -0.6251 -0.4596
 6439TIP3   OH240951   6.398   1.810   1.563 -0.0691  0.5092  0.1869
 6439TIP3    H140952   6.345   1.877   1.606 -1.5373 -0.1048 -0.6137
 6439TIP3    H240953   6.375   1.729   1.608  0.7201  0.3524  0.2991
 6440TIP3   OH240954   2.762   4.657   7.275  0.0443 -0.7395 -0.6270
 6440TIP3    H140955   2.763   4.569   7.238  0.0026 -1.4359  0.9922
 6440TIP3    H240956   2.853   4.685   7.274  0.0434 -0.7632 -1.2439
 6441TIP3   OH240957   5.838   7.018   8.060  0.2272 -0.2263  0.0831
 6441TIP3    H140958   5.889   7.087   8.103  0.6458 -0.7392  0.4109
 6441TIP3    H240959   5.834   6.947   8.124  0.4714 -0.8193 -0.5517
 6442TIP3   OH240960   1.357   0.191   0.818 -0.0113 -0.2196  0.0083
 6442TIP3    H140961   1.447   0.201   0.850  0.4008 -0.6070 -0.9925
 6442TIP3    H240962   1.320   0.279   0.822 -0.0811 -0.3296  1.8618
 6443TIP3   OH240963   1.129   5.323   6.443 -0.4818 -0.4055  0.2014
 6443TIP3    H140964   1.223   5.316   6.427 -0.7871 -1.2393 -1.3187
 6443TIP3    H240965   1.089   5.324   6.356 -1.7739  1.7740  0.7848
 6444TIP3   OH240966   2.228   0.903   0.825 -0.3728  0.0501  0.1064
 6444TIP3    H140967   2.289   0.952   0.880 -0.2599 -0.6123  0.5816
 6444TIP3    H240968   2.151   0.890   0.880 -0.0537 -1.0726  0.3014
 6445TIP3   OH240969   2.625   6.664   8.066  0.0446  0.6773 -0.7461
 6445TIP3    H140970   2.632   6.759   8.056  0.0919  0.5945 -1.5834
 6445TIP3    H240971   2.531   6.647   8.076  0.0157  0.7967 -0.8231
 6446TIP3   OH240972   2.312   6.854   6.610 -0.0616  0.2391  0.6154
 6446TIP3    H140973   2.280   6.944   6.624 -0.3793  0.0518  1.1084
 6446TIP3    H240974   2.324   6.847   6.515 -2.1404  0.0942  0.3525
 6447TIP3   OH240975   3.629   5.572   1.923  0.3151  0.1814  0.1989
 6447TIP3    H140976   3.581   5.633   1.867 -0.2696 -0.4050  0.0539
 6447TIP3    H240977   3.705   5.622   1.953 -0.2754  1.0506  0.2635
 6448TIP3   OH240978   4.840   6.069   1.362 -0.3969  0.3475 -0.2153
 6448TIP3    H140979   4.809   6.152   1.327 -1.6613  0.4605  1.0959
 6448TIP3    H240980   4.760   6.016   1.373  0.1329 -0.2471  0.9539
 6449TIP3   OH240981   2.656   7.326   1.956  0.2094 -0.3929  0.1350
 6449TIP3    H140982   2.719   7.304   2.024  0.4618  1.5428  0.5462
 6449TIP3    H240983   2.581   7.361   2.003  0.5344  1.3107 -0.5742
 6450TIP3   OH240984   3.654   3.011   0.128 -0.6945 -0.5088  0.6312
 6450TIP3    H140985   3.745   3.023   0.102 -0.6290  0.1923  1.1756
 6450TIP3    H240986   3.659   2.986   0.221 -1.0213 -1.0773  0.4939
 6451TIP3   OH240987   1.345   6.160   1.020 -0.1613  0.0082  0.4131
 6451TIP3    H140988   1.433   6.125   1.009  0.3774  1.6510 -0.8200
 6451TIP3    H240989   1.290   6.084   1.035  0.9192 -1.4108 -2.4471
 6452TIP3   OH240990   2.105   4.537   1.000 -0.5810  0.0736  0.3872
 6452TIP3    H140991   2.160   4.606   0.964 -2.6295  3.3603  3.2034
 6452TIP3    H240992   2.142   4.518   1.086 -0.9933 -1.2020  0.2992
 6453TIP3   OH240993   7.288   5.112   8.480  0.0031 -0.6976  0.9384
 6453TIP3    H140994   7.378   5.100   8.449  0.2466  0.8956  0.9889
 6453TIP3    H240995   7.293   5.098   8.575  0.4288  0.5497  1.1057
 6454TIP3   OH240996   1.314   4.687   0.489  0.0840 -0.3800 -0.4656
 6454TIP3    H140997   1.304   4.593   0.504 -2.0230  0.1183  1.5802
 6454TIP3    H240998   1.225   4.720   0.481  0.7563  1.5820 -0.1802
 6455TIP3   OH240999   3.409   6.012   2.340 -0.1117 -0.1987 -0.3509
 6455TIP3    H141000   3.364   5.935   2.373  1.6475 -1.7884 -1.5695
 6455TIP3    H241001   3.501   5.999   2.363  0.9096 -0.5912 -4.2606
 6456TIP3   OH241002   4.072   0.643   0.784  0.3153 -0.6611  0.1533
 6456TIP3    H141003   4.080   0.556   0.823 -0.2585 -1.5076 -1.5863
 6456TIP3    H241004   4.152   0.688   0.809 -0.5117 -0.8035  3.2148
 6457TIP3   OH241005   4.086   4.090   1.159  0.3321  0.3688 -0.0880
 6457TIP3    H141006   4.132   4.084   1.243 -0.7208 -0.8573  0.4327
 6457TIP3    H241007   4.148   4.056   1.095  0.0329 -1.6752  0.6687
 6458TIP3   OH241008   1.827   6.343   7.707  0.2891 -0.2241 -0.0194
 6458TIP3    H141009   1.836   6.431   7.742  0.0141  0.1836 -0.9584
 6458TIP3    H241010   1.848   6.285   7.781 -2.5518  0.5646  1.4606
 6459TIP3   OH241011   5.546   0.773   1.808 -0.1517 -0.3777  0.2703
 6459TIP3    H141012   5.569   0.694   1.759 -0.2471  0.3173 -0.9003
 6459TIP3    H241013   5.566   0.751   1.899  0.9958 -1.3234 -0.1972
 6460TIP3   OH241014   1.629   3.929   6.467  0.4810  0.2041 -0.7176
 6460TIP3    H141015   1.682   3.857   6.503  1.2109  0.5227 -1.1396
 6460TIP3    H241016   1.655   3.933   6.375  0.0401  0.6589 -0.8224
 6461TIP3   OH241017   0.013   3.555   1.844 -0.2674  0.0599  0.5630
 6461TIP3    H141018  -0.050   3.503   1.794  0.3459  0.0479 -0.2090
 6461TIP3    H241019  -0.039   3.626   1.882 -0.6203  0.4662 -0.6599
 6462TIP3   OH241020   2.839   0.177   0.515  0.0071  0.3695 -0.5003
 6462TIP3    H141021   2.923   0.149   0.552 -0.2549 -0.5198 -0.5596
 6462TIP3    H241022   2.783   0.189   0.591 -0.4621 -1.2271 -0.5856
 6463TIP3   OH241023   2.447   0.175   0.943 -0.6842 -0.2967 -0.0814
 6463TIP3    H141024   2.533   0.179   0.985 -0.1653 -2.7126 -0.8609
 6463TIP3    H241025   2.401   0.254   0.975  2.2234  1.6962 -0.6526
 6464TIP3   OH241026   2.620   6.970   2.040  0.5540 -0.2750 -0.0305
 6464TIP3    H141027   2.652   6.895   2.090  0.1933  0.4657  1.3575
 6464TIP3    H241028   2.670   7.044   2.074 -0.4471  0.4108 -0.0289
 6465TIP3   OH241029   4.506   1.410   1.463  0.1835  0.6444  0.1142
 6465TIP3    H141030   4.421   1.448   1.440 -0.3523 -0.1910  0.7013
 6465TIP3    H241031   4.569   1.475   1.433 -0.6317  0.9843 -0.9110
 6466TIP3   OH241032   6.231   4.336   0.019 -0.2217  0.0701 -0.3661
 6466TIP3    H141033   6.257   4.411   0.073 -1.3949 -1.1297  1.8974
 6466TIP3    H241034   6.136   4.344   0.011 -0.6035 -2.1603  1.4565
 6467TIP3   OH241035   5.189   6.398   0.744 -0.4746 -0.0116 -0.5256
 6467TIP3    H141036   5.107   6.362   0.710 -0.4628  0.5542 -1.1854
 6467TIP3    H241037   5.216   6.461   0.676  0.4593 -0.1446 -0.2749
 6468TIP3   OH241038   4.414   2.627   7.384  0.0680 -0.4636  0.0365
 6468TIP3    H141039   4.453   2.713   7.402 -1.1322  0.1224 -0.0896
 6468TIP3    H241040   4.422   2.617   7.289 -0.3414 -0.2181 -0.0239
 6469TIP3   OH241041   1.687   4.378   0.332 -0.2072  0.4758 -0.1730
 6469TIP3    H141042   1.757   4.362   0.395  1.4373  4.3650 -0.8766
 6469TIP3    H241043   1.728   4.365   0.247 -0.2120  3.1315 -0.5999
 6470TIP3   OH241044   2.973   1.405   1.166 -0.3746  0.2635  0.7511
 6470TIP3    H141045   3.058   1.406   1.209 -0.8755  0.8940  1.7533
 6470TIP3    H241046   2.929   1.327   1.201 -1.2792  1.4885  2.4009
 6471TIP3   OH241047   3.659   6.666   6.787  0.9423  0.6389  0.1795
 6471TIP3    H141048   3.709   6.651   6.707  1.5065  2.0346  0.2779
 6471TIP3    H241049   3.576   6.702   6.757 -0.1551 -1.8728 -0.0012
 6472TIP3   OH241050   5.362   5.576   0.489  0.2191 -0.3161  0.0967
 6472TIP3    H141051   5.423   5.625   0.545  1.2978  1.3143 -2.4360
 6472TIP3    H241052   5.282   5.628   0.489  0.0051 -0.6416  0.6125
 6473TIP3   OH241053   1.464   7.082   1.579 -0.3052 -0.8741 -0.0778
 6473TIP3    H141054   1.370   7.083   1.560 -0.3146 -0.9619 -0.0390
 6473TIP3    H241055   1.469   7.091   1.675 -0.2837 -1.1422 -0.0541
 6474TIP3   OH241056   3.543   0.674   1.486 -0.2502 -0.2366 -0.2097
 6474TIP3    H141057   3.612   0.672   1.420 -1.7343  1.2784 -1.8824
 6474TIP3    H241058   3.544   0.763   1.520 -0.8139 -0.4463  0.3681
 6475TIP3   OH241059   3.707   0.991   8.498 -0.4618  0.0698 -0.3706
 6475TIP3    H141060   3.784   0.994   8.442 -1.0499  0.7491 -1.1466
 6475TIP3    H241061   3.636   1.027   8.445 -1.5004 -1.2912  0.0495
 6476TIP3   OH241062   0.430   4.639   7.570  0.4331  0.5497 -0.1773
 6476TIP3    H141063   0.520   4.669   7.578  0.4020  0.4530  0.5356
 6476TIP3    H241064   0.427   4.559   7.621 -0.4026  1.2764  0.9187
 6477TIP3   OH241065   0.107   5.813   1.634  0.1032 -0.4781 -0.2829
 6477TIP3    H141066   0.203   5.816   1.634  0.0863  0.7870  1.4452
 6477TIP3    H241067   0.085   5.739   1.690  0.0736 -1.5928 -1.7560
 6478TIP3   OH241068   3.564   1.357   0.866  0.3654  0.1526 -0.5916
 6478TIP3    H141069   3.514   1.390   0.791  0.3988 -2.2896 -1.7254
 6478TIP3    H241070   3.624   1.292   0.829 -1.6917 -3.3270  1.8971
 6479TIP3   OH241071   2.740   2.082   2.386 -0.3918  0.0025 -0.3759
 6479TIP3    H141072   2.816   2.113   2.436 -0.2881 -0.0601 -0.4929
 6479TIP3    H241073   2.753   2.117   2.298  0.5178 -1.6128 -0.9092
 6480TIP3   OH241074   0.003   7.307   1.165  0.0157  0.0332 -0.2696
 6480TIP3    H141075  -0.021   7.377   1.225  0.0337  0.9913 -1.3610
 6480TIP3    H241076   0.038   7.352   1.088  2.0611 -1.2327 -0.1153
 6481TIP3   OH241077   3.705   1.021   7.791 -0.3274  0.0691  0.0728
 6481TIP3    H141078   3.721   1.102   7.742 -1.6512 -0.2508 -0.9258
 6481TIP3    H241079   3.721   0.951   7.728  1.0449 -0.4650  1.0051
 6482TIP3   OH241080   1.922   5.722   1.417  0.5022 -0.2771 -0.1214
 6482TIP3    H141081   1.876   5.652   1.464  1.2913 -3.6641 -4.0916
 6482TIP3    H241082   2.015   5.705   1.434  0.6304  1.7509  1.3977
 6483TIP3   OH241083   1.515   6.689   8.021 -0.3268 -0.1387  0.1437
 6483TIP3    H141084   1.583   6.623   8.007  1.1013  1.0763  1.1796
 6483TIP3    H241085   1.467   6.692   7.938 -0.6128 -2.6563  0.1776
 6484TIP3   OH241086   0.807   4.234   1.126  0.0662  0.2057 -0.6118
 6484TIP3    H141087   0.852   4.289   1.062 -0.3915  0.7447 -0.4721
 6484TIP3    H241088   0.860   4.241   1.205  0.1394  0.2589 -0.6652
 6485TIP3   OH241089   4.876   1.216   7.417 -0.6799  0.2988 -0.4270
 6485TIP3    H141090   4.781   1.228   7.418 -0.6592  0.4541 -0.3399
 6485TIP3    H241091   4.891   1.153   7.347 -0.6870  1.5930 -1.6268
 6486TIP3   OH241092   3.331   1.556   1.149 -0.5468  0.5682 -0.5631
 6486TIP3    H141093   3.275   1.625   1.183 -2.3972 -0.9430 -0.4847
 6486TIP3    H241094   3.284   1.521   1.073  0.2914 -0.6662 -0.5384
 6487TIP3   OH241095   2.458   4.651   0.070 -0.1138 -0.3585 -0.5206
 6487TIP3    H141096   2.398   4.579   0.050  0.4417 -0.6660 -1.0895
 6487TIP3    H241097   2.516   4.656  -0.006  0.0276  0.5119 -0.3664
 6488TIP3   OH241098   1.003   5.820   7.457  0.6514  0.1365  0.0291
 6488TIP3    H141099   0.952   5.876   7.516  1.3964  1.1642 -0.2833
 6488TIP3    H241100   0.945   5.804   7.382  0.7317  1.1830 -0.2610
 6489TIP3   OH241101   5.092   6.625   1.196  0.3715  0.0335  0.4980
 6489TIP3    H141102   5.112   6.708   1.152 -0.9156 -0.0148 -0.1818
 6489TIP3    H241103   5.145   6.628   1.276  1.2676  0.9696 -0.1004
 6490TIP3   OH241104   1.795   6.998   8.480 -0.7963 -0.1404  0.0207
 6490TIP3    H141105   1.785   6.940   8.556  2.6744  0.1017  0.7715
 6490TIP3    H241106   1.868   6.961   8.431 -0.2572  2.0616 -0.9303
 6491TIP3   OH241107   3.240   2.008   2.155  0.2324 -0.3144  0.4374
 6491TIP3    H141108   3.317   1.952   2.152 -0.0093 -0.6990  1.1317
 6491TIP3    H241109   3.180   1.970   2.091  0.7983  0.2566 -0.4274
 6492TIP3   OH241110   4.715   0.693   7.667 -0.0793 -0.3643  0.0966
 6492TIP3    H141111   4.677   0.649   7.590 -0.7433 -1.2893  0.9447
 6492TIP3    H241112   4.763   0.624   7.713 -1.9428 -0.4573  1.9626
 6493TIP3   OH241113   2.923   5.954   7.778 -0.0507 -0.0744 -0.4401
 6493TIP3    H141114   2.935   6.037   7.823 -1.7344  0.1103 -0.2800
 6493TIP3    H241115   2.831   5.955   7.749 -0.7877 -2.8252  1.5347
 6494TIP3   OH241116   2.014   6.691   2.428 -0.2307 -0.0172 -0.2257
 6494TIP3    H141117   2.099   6.691   2.471 -0.4936  0.5083  0.3156
 6494TIP3    H241118   2.031   6.723   2.339  0.6122 -2.9098 -1.1626
 6495TIP3   OH241119   1.542   6.309   7.925  0.1267 -0.7654 -0.2981
 6495TIP3    H141120   1.519   6.253   7.999  1.7948 -1.8966 -0.6177
 6495TIP3    H241121   1.461   6.356   7.905 -1.6712 -3.8923 -0.7481
 6496TIP3   OH241122   4.366   2.912   7.017  0.5763  0.2778  0.1928
 6496TIP3    H141123   4.442   2.938   7.070  0.7019 -0.7204  0.5227
 6496TIP3    H241124   4.344   2.990   6.966  2.9643  0.0351 -1.2615
 6497TIP3   OH241125   4.834   1.993   7.464  0.5349  0.2281 -0.2820
 6497TIP3    H141126   4.769   2.063   7.467 -0.2324 -0.5378  1.4449
 6497TIP3    H241127   4.806   1.937   7.391 -1.0947 -0.4169  0.8113
 6498TIP3   OH241128   4.010   0.874   7.940  0.5656  0.6548 -0.0192
 6498TIP3    H141129   3.937   0.906   7.994 -0.8348 -0.6314 -1.1201
 6498TIP3    H241130   4.019   0.940   7.871  0.4622  0.8110  0.1156
 6499TIP3   OH241131   3.400   0.067   2.239 -0.2276 -0.3211 -0.0813
 6499TIP3    H141132   3.381  -0.003   2.301 -1.3783 -0.1796 -0.2754
 6499TIP3    H241133   3.318   0.114   2.230  0.2169  0.2988 -0.9115
 6500TIP3   OH241134   4.994   6.188   0.622  0.2419 -0.0585  0.4552
 6500TIP3    H141135   4.947   6.113   0.657 -0.2164 -0.5941 -1.3014
 6500TIP3    H241136   4.936   6.225   0.556  0.9781  1.1245  0.4500
 6501TIP3   OH241137   1.618   7.004   8.202  0.3452  0.2208 -0.0020
 6501TIP3    H141138   1.535   6.990   8.156  0.9398  2.0957 -1.7084
 6501TIP3    H241139   1.676   6.936   8.169 -0.2946 -0.7090  0.7390
 6502TIP3   OH241140   2.640   2.033   0.511 -0.3633 -0.1198  0.4324
 6502TIP3    H141141   2.657   1.941   0.491 -0.2984 -0.3006  1.3169
 6502TIP3    H241142   2.637   2.037   0.606  0.6811  0.9730  0.4398
 6503TIP3   OH241143   4.250   0.179   1.120  0.0311  0.7607 -0.2860
 6503TIP3    H141144   4.245   0.109   1.184  1.6809  2.7102  2.1000
 6503TIP3    H241145   4.247   0.260   1.173 -2.0788  2.5014 -2.9346
 6504TIP3   OH241146   2.021   6.069   2.078  0.0275  0.1675 -0.1505
 6504TIP3    H141147   2.059   6.079   2.165 -0.1041  0.9416 -0.1790
 6504TIP3    H241148   2.034   5.977   2.056  1.4989  0.3309  0.0176
 6505TIP3   OH241149   1.145   0.525   1.678  0.0734 -0.2476 -0.1476
 6505TIP3    H141150   1.188   0.564   1.755 -0.2523 -0.3978  0.1141
 6505TIP3    H241151   1.214   0.477   1.633  0.1575 -0.5633  0.3206
 6506TIP3   OH241152   3.974   5.417   8.360 -0.6703 -0.3013  0.5468
 6506TIP3    H141153   3.907   5.353   8.383 -0.6794 -0.0904  1.1090
 6506TIP3    H241154   4.032   5.370   8.300 -0.3936 -0.9987  1.3411
 6507TIP3   OH241155   2.694   6.041   0.219  0.0329 -0.2771  0.4639
 6507TIP3    H141156   2.692   6.085   0.134  1.3228 -1.6342 -0.2977
 6507TIP3    H241157   2.616   6.073   0.265 -0.2895  1.0100 -0.9480
 6508TIP3   OH241158   0.281   6.891   5.911  0.0434 -0.2002 -0.5367
 6508TIP3    H141159   0.220   6.927   5.847 -2.7218 -3.4597  0.1087
 6508TIP3    H241160   0.296   6.962   5.973 -4.6891  0.2219  0.3578
 6509TIP3   OH241161   2.626   5.947   2.125  0.5781 -0.1221 -0.5797
 6509TIP3    H141162   2.639   6.036   2.159  1.5496 -0.4873  0.0283
 6509TIP3    H241163   2.536   5.946   2.094  0.3140  0.8397  0.1452
 6510TIP3   OH241164   2.632   0.706   6.022  0.2448 -0.2807 -0.2904
 6510TIP3    H141165   2.624   0.785   6.075 -0.2802 -0.4681 -0.0818
 6510TIP3    H241166   2.726   0.696   6.007  0.1742  1.4398 -1.9501
 6511TIP3   OH241167   2.059   0.362   0.295 -0.0206 -0.4930 -0.4231
 6511TIP3    H141168   2.002   0.299   0.337  0.9190 -1.6754 -0.8858
 6511TIP3    H241169   2.013   0.446   0.302 -0.9265 -1.0933  0.8638
 6512TIP3   OH241170   1.244   7.262   1.121  0.5399  0.0535  0.2444
 6512TIP3    H141171   1.226   7.217   1.204  1.2753  0.3818  0.5817
 6512TIP3    H241172   1.220   7.353   1.137  1.0099  0.1833  0.1998
 6513TIP3   OH241173   3.136   1.453   1.425 -0.1863  0.0589 -0.5391
 6513TIP3    H141174   3.185   1.491   1.497  0.1524 -0.9082 -0.2624
 6513TIP3    H241175   3.068   1.400   1.467 -0.7692  0.4848 -0.9253
 6514TIP3   OH241176   1.523   1.527   1.634  0.1427 -0.5329  0.2852
 6514TIP3    H141177   1.497   1.530   1.726  0.0486  0.5025  0.2266
 6514TIP3    H241178   1.538   1.434   1.616 -0.5016 -0.8073  1.1598
 6515TIP3   OH241179   2.894   5.465   1.276  0.0440 -0.2535 -0.0771
 6515TIP3    H141180   2.852   5.380   1.289  2.7929 -1.6942 -0.4680
 6515TIP3    H241181   2.953   5.475   1.350  0.2010  1.0327 -0.3618
 6516TIP3   OH241182   3.701   2.714   2.638  0.0092  0.0680  0.0833
 6516TIP3    H141183   3.639   2.747   2.572 -0.8146 -0.2329  0.6992
 6516TIP3    H241184   3.745   2.792   2.671  0.6164  0.2036 -0.9959
 6517TIP3   OH241185   2.296   6.331   0.964  0.1118 -0.0211  0.0665
 6517TIP3    H141186   2.348   6.380   0.901  0.4330  0.4324  0.6807
 6517TIP3    H241187   2.344   6.249   0.976  0.1411 -0.0356 -0.1526
 6518TIP3   OH241188   0.901   6.422   1.260  0.2259 -1.2370  0.0109
 6518TIP3    H141189   0.820   6.379   1.287 -0.5464 -0.8766 -1.6499
 6518TIP3    H241190   0.934   6.462   1.340 -1.7833 -0.5324  0.5344
 6519TIP3   OH241191   1.436   6.819   0.385 -0.1268 -0.1813 -0.6282
 6519TIP3    H141192   1.517   6.832   0.335  0.2749  0.6092  0.2132
 6519TIP3    H241193   1.462   6.832   0.476 -1.1403 -0.2584 -0.3229
 6520TIP3   OH241194   2.370   4.504   1.459 -0.0461  0.5629  0.0919
 6520TIP3    H141195   2.387   4.411   1.444 -1.2610  0.5327 -1.2579
 6520TIP3    H241196   2.455   4.547   1.448 -0.4107  0.2613 -4.8762
 6521TIP3   OH241197   3.307   4.767   8.222  0.1191  0.2957  0.3552
 6521TIP3    H141198   3.263   4.700   8.274 -0.6469  0.7096  0.2452
 6521TIP3    H241199   3.399   4.761   8.248 -0.3023  0.7250  2.0043
 6522TIP3   OH241200   2.577   6.532   1.917 -0.5146  0.0828  0.2339
 6522TIP3    H141201   2.642   6.600   1.898 -1.2547  0.4511 -0.9803
 6522TIP3    H241202   2.525   6.525   1.837 -1.6197 -0.6069  1.0064
 6523TIP3   OH241203   2.461   5.978   1.463  0.0213  0.5627  0.3823
 6523TIP3    H141204   2.380   6.020   1.491 -0.6418  0.1325 -0.8682
 6523TIP3    H241205   2.486   5.922   1.537  0.9251  3.1073  2.0756
 6524TIP3   OH241206   2.361   0.245   7.133 -0.2288 -0.4467 -0.0498
 6524TIP3    H141207   2.348   0.331   7.093  0.9521 -0.1532  0.1946
 6524TIP3    H241208   2.362   0.184   7.059 -1.9540 -0.3714 -0.1609
 6525TIP3   OH241209   1.702   7.113   0.328 -0.0584 -0.3133  0.2113
 6525TIP3    H141210   1.631   7.138   0.269 -0.8970  0.2919  1.4602
 6525TIP3    H241211   1.720   7.021   0.305 -2.8324 -1.2224  1.4303
 6526TIP3   OH241212   3.464   6.354   0.863 -0.2191  0.6345  0.5399
 6526TIP3    H141213   3.503   6.281   0.911  1.5044 -0.1096 -1.9085
 6526TIP3    H241214   3.375   6.324   0.843  0.5288 -0.9250 -0.6019
 6527TIP3   OH241215   1.611   6.946   2.006  0.1328 -0.6442 -0.7557
 6527TIP3    H141216   1.600   7.028   1.958  0.6163 -0.3182 -0.2949
 6527TIP3    H241217   1.535   6.942   2.064  1.3939  0.6569  0.9897
 6528TIP3   OH241218   0.493   7.064   0.622 -0.0958  0.2062 -0.1861
 6528TIP3    H141219   0.407   7.105   0.636 -0.5002 -0.3959 -0.8847
 6528TIP3    H241220   0.551   7.137   0.602 -0.5479  0.5656 -0.1952
 6529TIP3   OH241221   2.951   5.179   0.697 -0.2737  0.7110  0.5480
 6529TIP3    H141222   2.987   5.266   0.677  1.2295 -0.2909 -1.2662
 6529TIP3    H241223   3.015   5.141   0.757 -0.3000  0.3952  0.3749
 6530TIP3   OH241224   4.244   6.825   1.710 -0.7387 -0.1310  0.6890
 6530TIP3    H141225   4.302   6.817   1.786 -0.8147  0.0200  0.7621
 6530TIP3    H241226   4.192   6.744   1.712 -0.7884 -0.0973  0.8382
 6531TIP3   OH241227   0.896   1.059   1.664 -0.8690  0.2691  0.6513
 6531TIP3    H141228   0.847   0.981   1.638  0.7768 -0.5965  0.0542
 6531TIP3    H241229   0.975   1.057   1.609 -1.3093  2.9441 -0.1808
 6532TIP3   OH241230   2.668   4.584   2.410  0.2933 -0.0392  0.0886
 6532TIP3    H141231   2.665   4.551   2.320  1.6752  0.5336 -0.1908
 6532TIP3    H241232   2.599   4.537   2.455 -0.4133 -0.3449 -1.2767
 6533TIP3   OH241233   4.908   6.487   1.063 -0.2283  0.0284 -0.0937
 6533TIP3    H141234   4.982   6.526   1.109 -0.5332 -0.9509  1.2605
 6533TIP3    H241235   4.837   6.549   1.076  0.4392  1.1692 -1.7424
 6534TIP3   OH241236   3.055   0.069   0.686 -0.6926 -0.5750  0.7707
 6534TIP3    H141237   3.007  -0.014   0.693  1.2029 -1.6923  1.0021
 6534TIP3    H241238   3.076   0.092   0.776  0.0061 -0.6004  0.6188
 6535TIP3   OH241239   3.909   5.516   0.190  0.4263  0.5863 -0.3886
 6535TIP3    H141240   3.898   5.432   0.146  1.7583 -0.6027  1.5036
 6535TIP3    H241241   3.963   5.568   0.130  0.0866 -0.0939 -1.2962
 6536TIP3   OH241242   4.093   5.434   2.037  0.6102 -1.1652  0.0572
 6536TIP3    H141243   3.999   5.425   2.048  0.5022  0.4949  0.6451
 6536TIP3    H241244   4.128   5.435   2.126  0.7714  1.9978  0.0229
 6537TIP3   OH241245   3.020   6.852   1.626  0.7112  0.2485 -0.3599
 6537TIP3    H141246   3.094   6.897   1.586  0.5155  0.0903 -0.9049
 6537TIP3    H241247   3.036   6.858   1.720  0.5050  1.7855 -0.4138
 6538TIP3   OH241248   1.058   0.329   1.324  0.2755 -0.1064 -0.0719
 6538TIP3    H141249   1.093   0.283   1.248 -1.7139 -0.2426 -0.9393
 6538TIP3    H241250   1.109   0.296   1.398  1.8881 -0.3423 -1.2714
 6539TIP3   OH241251   4.386   5.124   2.407 -0.3456  0.0937  0.3162
 6539TIP3    H141252   4.346   5.109   2.321 -0.9927  2.4574  0.1745
 6539TIP3    H241253   4.350   5.055   2.463 -0.2137 -1.2302 -1.1877
 6540TIP3   OH241254   4.300   1.244   8.039  0.2662 -0.6135 -0.3593
 6540TIP3    H141255   4.283   1.214   7.950 -2.1011  0.4236 -0.2808
 6540TIP3    H241256   4.277   1.336   8.039 -0.9228 -0.8672  1.6265
 6541TIP3   OH241257   5.231   0.747   1.905 -0.3396  0.0672 -0.2734
 6541TIP3    H141258   5.204   0.675   1.848 -0.1702 -0.3897  0.2111
 6541TIP3    H241259   5.324   0.760   1.884 -0.1178 -0.5075  0.3144
 6542TIP3   OH241260   2.468   5.820   1.668 -0.2474  0.0698  0.4513
 6542TIP3    H141261   2.491   5.731   1.644 -0.0133  0.5661 -1.2213
 6542TIP3    H241262   2.428   5.812   1.755  0.9707 -1.4869  0.8915
 6543TIP3   OH241263   1.802   3.110   1.252  0.2426 -0.2079 -0.3892
 6543TIP3    H141264   1.757   3.042   1.302  1.2910 -0.9903 -0.4804
 6543TIP3    H241265   1.894   3.082   1.251  0.5751  0.8638 -1.0032
 6544TIP3   OH241266   1.268   5.982   1.333  0.3865 -0.0732  0.1459
 6544TIP3    H141267   1.232   5.919   1.395 -2.2954  1.8413  0.6382
 6544TIP3    H241268   1.312   6.048   1.387  0.4498  0.1332 -0.1533
 6545TIP3   OH241269   5.456   7.308   6.474 -0.2307  0.0175 -0.9792
 6545TIP3    H141270   5.487   7.260   6.397 -0.8148 -0.7655 -0.7317
 6545TIP3    H241271   5.486   7.256   6.548  0.8059  1.0614 -0.6514
 6546TIP3   OH241272   1.466   4.359   6.430 -0.4059 -0.0191 -0.2413
 6546TIP3    H141273   1.436   4.297   6.496 -0.0548  0.0498 -0.0152
 6546TIP3    H241274   1.460   4.311   6.347  0.4512 -0.5671  0.0103
 6547TIP3   OH241275   2.972   3.354   1.024  0.4310  0.1361  0.3789
 6547TIP3    H141276   2.935   3.291   1.086  0.4519 -0.7620 -0.5253
 6547TIP3    H241277   3.025   3.302   0.965  1.2199  1.1246  0.2030
 6548TIP3   OH241278   2.893   3.234   7.607  1.0078  0.0767  0.1865
 6548TIP3    H141279   2.849   3.317   7.586 -0.0041 -0.0415  1.8009
 6548TIP3    H241280   2.897   3.188   7.523 -1.8906  0.1306 -0.0474
 6549TIP3   OH241281   3.855   5.066   1.057 -0.3366 -0.0942  0.0636
 6549TIP3    H141282   3.950   5.055   1.064  0.1541  1.2205 -3.6341
 6549TIP3    H241283   3.821   4.977   1.046  0.8150 -0.2956 -1.9564
 6550TIP3   OH241284   4.794   6.759   1.213  0.3213 -0.1974 -0.0558
 6550TIP3    H141285   4.880   6.779   1.249 -0.9433  1.2777  2.3285
 6550TIP3    H241286   4.775   6.832   1.154 -0.4276  0.9865  1.5923
 6551TIP3   OH241287   2.585   7.097   1.562 -0.0793 -0.6350  0.3160
 6551TIP3    H141288   2.516   7.159   1.584  1.6517  2.0772 -1.5473
 6551TIP3    H241289   2.651   7.111   1.630 -1.1736 -3.0105  1.9230
 6552TIP3   OH241290   3.420   0.617   1.766  0.2694  0.2344 -0.1225
 6552TIP3    H141291   3.399   0.626   1.673  2.5214 -0.8271 -0.7509
 6552TIP3    H241292   3.343   0.573   1.803 -0.5472  0.4571 -1.5017
 6553TIP3   OH241293   5.544   6.641   2.315  0.3398  0.2542 -0.2129
 6553TIP3    H141294   5.534   6.630   2.220 -0.4133 -2.1549  0.1025
 6553TIP3    H241295   5.460   6.676   2.344  1.6443  4.1684 -0.7909
 6554TIP3   OH241296   4.427   5.115   2.055 -0.0911 -0.4866 -0.2977
 6554TIP3    H141297   4.506   5.129   2.108  0.9050 -0.5799 -1.7318
 6554TIP3    H241298   4.454   5.136   1.966 -1.7861 -0.2140 -0.7659
 6555TIP3   OH241299   1.859   5.767   2.430 -0.5266 -0.4385 -0.1856
 6555TIP3    H141300   1.788   5.825   2.403  1.2242  1.1558 -1.4354
 6555TIP3    H241301   1.822   5.679   2.421 -2.1036  0.3386 -1.5366
 6556TIP3   OH241302   2.817   2.924   7.953 -0.2658 -0.7998 -0.1457
 6556TIP3    H141303   2.764   2.952   8.027  0.8301  0.6549  0.1069
 6556TIP3    H241304   2.794   2.832   7.941 -0.2890 -1.1191  2.1363
 6557TIP3   OH241305   1.885   5.563   7.871  0.1951  0.0546  0.7859
 6557TIP3    H141306   1.978   5.543   7.858  0.2161 -0.1904  1.2855
 6557TIP3    H241307   1.850   5.576   7.783  1.0408  1.6271  0.6523
 6558TIP3   OH241308   2.595   5.594   1.141 -0.1353  0.0818  0.0475
 6558TIP3    H141309   2.505   5.614   1.115 -0.6412 -0.8850  1.0380
 6558TIP3    H241310   2.633   5.679   1.164 -0.9420  0.4359  0.0893
 6559TIP3   OH241311   3.511   5.763   6.589  0.1061 -0.4508 -0.4383
 6559TIP3    H141312   3.561   5.694   6.546 -0.0098 -0.4487 -0.5751
 6559TIP3    H241313   3.537   5.843   6.544 -0.1637 -0.4743 -0.6357
 6560TIP3   OH241314   4.811   4.180   1.069 -0.2177 -0.4349 -0.6447
 6560TIP3    H141315   4.745   4.111   1.062  0.1487 -0.8587 -0.0029
 6560TIP3    H241316   4.894   4.133   1.082 -0.1067  0.1425  0.8417
 6561TIP3   OH241317   3.526   5.336   2.818 -0.0480 -0.4353  0.0529
 6561TIP3    H141318   3.483   5.398   2.877  1.3847  1.4827 -0.8282
 6561TIP3    H241319   3.612   5.375   2.802  0.3808 -1.9955 -1.6041
 6562TIP3   OH241320   0.679   0.010   1.294 -0.4570 -0.5284  0.7270
 6562TIP3    H141321   0.693  -0.068   1.348  2.1422  0.2160  1.1872
 6562TIP3    H241322   0.697   0.084   1.352 -2.7638  0.4648  0.2650
 6563TIP3   OH241323   4.291   6.327   0.418  0.1687  0.6755 -0.0951
 6563TIP3    H141324   4.354   6.279   0.364  0.7974  0.8675  0.4564
 6563TIP3    H241325   4.269   6.404   0.366  0.1409  0.4427 -0.4300
 6564TIP3   OH241326   2.713   0.152   1.010 -0.2857 -0.2845  0.5194
 6564TIP3    H141327   2.762   0.233   0.995 -0.5576 -0.1477  0.3689
 6564TIP3    H241328   2.731   0.099   0.932  0.3747 -0.6115  0.8905
 6565TIP3   OH241329   1.354   5.722   2.191 -0.0077  0.2132 -0.0246
 6565TIP3    H141330   1.322   5.666   2.120 -2.0780 -0.1704  1.1427
 6565TIP3    H241331   1.276   5.737   2.245  1.5480  0.3922  2.2191
 6566TIP3   OH241332   4.189   0.545   2.274  0.3098  0.1377  0.8142
 6566TIP3    H141333   4.107   0.587   2.247 -1.5953 -3.3101  0.8147
 6566TIP3    H241334   4.182   0.536   2.369  2.0501  2.4520  1.1818
 6567TIP3   OH241335   6.592   6.622   6.443 -0.0136  0.1440  0.5324
 6567TIP3    H141336   6.618   6.547   6.496  0.2115 -0.4718 -0.4260
 6567TIP3    H241337   6.622   6.698   6.492 -0.1679 -0.3942  1.4717
 6568TIP3   OH241338   2.983   0.999   6.469 -0.3637 -0.2125 -0.2834
 6568TIP3    H141339   2.929   1.038   6.400 -0.7723  1.8942  1.1764
 6568TIP3    H241340   2.931   0.926   6.503 -1.5111  0.6675 -0.1312
 6569TIP3   OH241341   5.116   0.916   0.994 -0.4010 -0.1820 -0.7469
 6569TIP3    H141342   5.073   0.899   1.077 -1.3888  0.3486 -1.1418
 6569TIP3    H241343   5.166   0.996   1.008  0.9465 -1.1065 -0.1178
 6570TIP3   OH241344   4.453   0.177   0.963  0.2191  0.0636 -0.2976
 6570TIP3    H141345   4.409   0.192   0.879 -0.5983  2.0153  0.4700
 6570TIP3    H241346   4.382   0.165   1.026  0.8168  0.7532  0.5149
 6571TIP3   OH241347   6.128   5.588   7.237 -0.0706 -0.7809  0.0628
 6571TIP3    H141348   6.127   5.645   7.160  0.7726  1.4815  1.6738
 6571TIP3    H241349   6.056   5.527   7.223 -0.8031  0.4873 -1.8664
 6572TIP3   OH241350   1.124   6.535   8.339  0.0879 -0.5101 -0.1516
 6572TIP3    H141351   1.160   6.623   8.348 -1.5164  0.0955  0.4914
 6572TIP3    H241352   1.066   6.525   8.414 -0.8068 -1.5999 -0.9730
 6573TIP3   OH241353   3.866   6.707   6.604 -0.7997 -0.0921  0.4568
 6573TIP3    H141354   3.788   6.758   6.583 -0.0775  1.6763  1.8639
 6573TIP3    H241355   3.927   6.726   6.532 -0.4903  1.1693  1.0346
 6574TIP3   OH241356   5.804   4.772   2.046  0.4918  0.7634  0.2581
 6574TIP3    H141357   5.760   4.716   1.983  0.8796  0.2159  0.4679
 6574TIP3    H241358   5.797   4.725   2.129 -0.0401  1.4900  0.6322
 6575TIP3   OH241359   6.505   6.617   0.549 -0.2035 -0.1040 -0.3041
 6575TIP3    H141360   6.597   6.634   0.569 -0.2477 -1.1255  0.8678
 6575TIP3    H241361   6.460   6.699   0.567  0.6288  0.6997 -1.8813
 6576TIP3   OH241362   5.267   5.202   0.999  0.0844 -0.0790 -0.1081
 6576TIP3    H141363   5.338   5.215   1.062 -0.3081  0.1477  0.2905
 6576TIP3    H241364   5.188   5.223   1.048 -0.2151  0.2054 -0.7074
 6577TIP3   OH241365   6.931   2.744   6.957 -0.3624 -0.2013  0.5133
 6577TIP3    H141366   7.026   2.742   6.943 -0.1182  1.4714  1.7937
 6577TIP3    H241367   6.906   2.835   6.937 -1.3162  0.0046  2.5251
 6578TIP3   OH241368   4.897   1.911   2.236  0.0377  0.3388 -0.0020
 6578TIP3    H141369   4.978   1.939   2.194  0.3671  0.6525  0.8378
 6578TIP3    H241370   4.904   1.816   2.242  0.3807  0.3737  0.1440
 6579TIP3   OH241371   5.122   1.125   0.291  0.4741 -0.0623  0.0479
 6579TIP3    H141372   5.202   1.170   0.262 -0.1318  0.3441 -0.9960
 6579TIP3    H241373   5.069   1.193   0.332 -0.3704  0.1544 -1.3842
 6580TIP3   OH241374   3.963   4.757   7.775 -0.3805 -0.5471  0.0942
 6580TIP3    H141375   4.021   4.776   7.701 -1.0362  0.2970 -0.2069
 6580TIP3    H241376   3.910   4.683   7.746  0.3194 -1.1336  0.2607
 6581TIP3   OH241377   3.442   0.328   1.404 -0.1621 -0.3964  0.0272
 6581TIP3    H141378   3.418   0.413   1.440  0.0862 -0.1299 -0.4327
 6581TIP3    H241379   3.359   0.281   1.395 -0.1861 -0.6035  1.2850
 6582TIP3   OH241380   4.579   7.216   0.578 -0.0218 -0.6585 -0.6014
 6582TIP3    H141381   4.651   7.155   0.596  1.8016  1.9359  1.1897
 6582TIP3    H241382   4.530   7.175   0.507 -0.2195 -5.3586  2.0407
 6583TIP3   OH241383   3.996   6.456   8.392  0.5813  0.0759  0.1539
 6583TIP3    H141384   4.027   6.541   8.422  0.1424  0.2191  0.2116
 6583TIP3    H241385   3.944   6.422   8.465 -1.5737  1.0073 -0.9155
 6584TIP3   OH241386   5.915   4.766   1.666 -0.2727 -0.4462 -0.0616
 6584TIP3    H141387   5.859   4.688   1.661  0.6798 -1.1793  0.6222
 6584TIP3    H241388   5.990   4.739   1.719  0.1515  0.8896  0.0424
 6585TIP3   OH241389   5.107   5.166   0.612  0.2782 -0.0007  0.1292
 6585TIP3    H141390   5.191   5.208   0.634 -0.9700  1.2265  2.8086
 6585TIP3    H241391   5.069   5.224   0.546  0.1301  1.2484  1.2737
 6586TIP3   OH241392   5.882   6.803   1.475  0.3828 -0.5507  0.6740
 6586TIP3    H141393   5.956   6.794   1.415 -1.0638  0.9407 -1.4032
 6586TIP3    H241394   5.917   6.778   1.561  3.3008  0.1944 -0.2604
 6587TIP3   OH241395   3.178   5.675   7.350  0.2493  0.4164 -0.6282
 6587TIP3    H141396   3.152   5.741   7.414 -0.7929  0.3794 -1.0141
 6587TIP3    H241397   3.205   5.726   7.273 -0.9962  0.3964 -1.0942
 6588TIP3   OH241398   3.257   3.268   8.204  0.5539  0.5973  0.2851
 6588TIP3    H141399   3.300   3.337   8.254 -1.0730  0.7956  1.4430
 6588TIP3    H241400   3.194   3.313   8.148 -0.6551  0.0450  1.1901
 6589TIP3   OH241401   0.465   1.308   1.569 -0.5412 -0.6188 -0.4379
 6589TIP3    H141402   0.410   1.386   1.579 -0.2383 -0.2410 -1.6598
 6589TIP3    H241403   0.510   1.321   1.485  0.8681 -1.2573  0.2032
 6590TIP3   OH241404   6.061   4.362   8.160  0.3401  0.2823  0.3015
 6590TIP3    H141405   5.983   4.310   8.178  0.4604 -0.2616 -0.6922
 6590TIP3    H241406   6.134   4.308   8.191  0.3527  0.5417  0.7158
 6591TIP3   OH241407   4.356   0.011   1.364 -0.0992  0.1293  0.5751
 6591TIP3    H141408   4.294   0.002   1.437  1.4418  0.1910  1.9380
 6591TIP3    H241409   4.380   0.103   1.364  0.2615  0.0376  0.3091
 6592TIP3   OH241410   3.966   5.747   0.604  0.2122  0.2417  0.0157
 6592TIP3    H141411   3.944   5.766   0.513  1.6196  1.6936 -0.0484
 6592TIP3    H241412   3.882   5.745   0.650 -0.4025  0.9153 -1.0704
 6593TIP3   OH241413   5.209   3.133   0.162 -0.0811 -0.1128 -0.6220
 6593TIP3    H141414   5.292   3.116   0.206  0.2236  1.1525 -0.6786
 6593TIP3    H241415   5.207   3.228   0.151 -0.5390 -0.3260 -2.5511
 6594TIP3   OH241416   5.800   6.291   2.093 -0.4991 -0.3683  0.6023
 6594TIP3    H141417   5.768   6.350   2.161 -0.7732  0.7649 -0.4742
 6594TIP3    H241418   5.895   6.303   2.093 -0.7297  2.0201 -1.2761
 6595TIP3   OH241419   3.828   6.745   0.458 -0.6631  0.8432 -0.5300
 6595TIP3    H141420   3.818   6.774   0.548  0.0296 -0.9129  0.1502
 6595TIP3    H241421   3.893   6.804   0.420  0.6073  0.3279  0.7701
 6596TIP3   OH241422   4.898   5.692   1.928  0.6278 -0.0816 -0.5655
 6596TIP3    H141423   4.949   5.626   1.881 -1.2765 -2.1616  0.2106
 6596TIP3    H241424   4.923   5.681   2.020 -0.8442 -0.7791 -0.2440
 6597TIP3   OH241425   6.253   6.869   1.817  0.5120  0.3983  0.2375
 6597TIP3    H141426   6.215   6.815   1.886 -0.9014 -1.8652 -2.2288
 6597TIP3    H241427   6.345   6.842   1.814  1.2386  2.3646  2.9000
 6598TIP3   OH241428   6.946   4.322   8.302 -0.0491 -0.0110  0.3531
 6598TIP3    H141429   6.924   4.311   8.394 -0.6373  1.4885  0.4094
 6598TIP3    H241430   6.989   4.240   8.277 -0.9346 -0.8830  1.6430
 6599TIP3   OH241431   5.069   5.473   1.898  0.7445 -0.6111 -0.5647
 6599TIP3    H141432   5.096   5.518   1.818  1.1784 -0.2540 -0.2221
 6599TIP3    H241433   5.125   5.510   1.966 -1.1319  0.7575  0.3083
 6600TIP3   OH241434   5.889   5.599   2.235  0.4013 -0.3849  0.0233
 6600TIP3    H141435   5.904   5.582   2.328  1.9969  1.7248  0.1818
 6600TIP3    H241436   5.827   5.672   2.234  0.2379 -0.5322 -0.5916
 6601TIP3   OH241437   5.944   6.947   0.530  0.3575 -0.6991  0.1062
 6601TIP3    H141438   5.997   7.013   0.485  0.3587  0.0090  1.1108
 6601TIP3    H241439   5.871   6.929   0.470 -0.4356  1.2934  0.4166
 6602TIP3   OH241440   5.740   1.117   1.762 -0.2040 -0.0968 -0.0336
 6602TIP3    H141441   5.742   1.045   1.824  1.6846 -0.6355 -0.6619
 6602TIP3    H241442   5.671   1.094   1.700  0.8258 -1.7155 -0.6136
 6603TIP3   OH241443   3.299   0.053   8.493  0.2159 -0.3154 -0.1989
 6603TIP3    H141444   3.215   0.010   8.507 -0.2227 -0.3612 -2.6257
 6603TIP3    H241445   3.284   0.144   8.518 -0.8764 -0.1022 -1.5615
 6604TIP3   OH241446   4.123   5.940   7.705  0.0150  0.4369  0.2497
 6604TIP3    H141447   4.092   5.858   7.667  0.6565  0.2179  0.1999
 6604TIP3    H241448   4.043   5.989   7.725 -0.3614 -0.1140  0.0924
 6605TIP3   OH241449   3.444   5.205   2.571  0.7162  0.0286  0.0361
 6605TIP3    H141450   3.434   5.250   2.655 -1.0422  1.4990 -0.9184
 6605TIP3    H241451   3.370   5.143   2.568  1.8427 -1.3480  0.3702
 6606TIP3   OH241452   5.944   0.226   1.072 -0.5403 -0.4952  0.5000
 6606TIP3    H141453   6.038   0.210   1.068 -0.5578 -0.3444 -0.7746
 6606TIP3    H241454   5.937   0.318   1.098 -0.3242 -0.3350  0.0006
 6607TIP3   OH241455   2.951   6.134   0.292  0.4157 -0.3304 -0.5430
 6607TIP3    H141456   2.877   6.074   0.283  0.5904 -0.2972 -2.3767
 6607TIP3    H241457   3.017   6.084   0.340 -0.2010 -0.9171 -0.2998
 6608TIP3   OH241458   5.451   6.894   7.458 -0.4884 -0.0259 -0.2235
 6608TIP3    H141459   5.546   6.905   7.453 -0.4062  0.0836  1.4640
 6608TIP3    H241460   5.435   6.862   7.547 -2.0320 -0.0211 -0.4916
 6609TIP3   OH241461   4.944   3.105   7.743 -0.4409 -0.4033 -0.0592
 6609TIP3    H141462   4.980   3.032   7.793 -0.4799 -0.3496  0.0466
 6609TIP3    H241463   4.875   3.141   7.799  0.4011  0.4808  0.4008
 6610TIP3   OH241464   6.024   7.184   7.266  0.3414 -0.2445 -0.5192
 6610TIP3    H141465   5.937   7.214   7.291  0.7198  0.5062 -0.0796
 6610TIP3    H241466   6.079   7.204   7.342  0.9623 -0.4225 -0.9156
 6611TIP3   OH241467   3.622   6.410   0.209 -0.1818  0.1332  0.0827
 6611TIP3    H141468   3.656   6.499   0.216  0.9682 -0.1012 -2.1575
 6611TIP3    H241469   3.582   6.407   0.122  1.1562 -1.9913 -0.4826
 6612TIP3   OH241470   3.097   6.203   6.832  0.0830  0.1271  0.1499
 6612TIP3    H141471   3.056   6.174   6.750  2.1123  1.6078 -1.4187
 6612TIP3    H241472   3.105   6.298   6.823  0.3725  0.2995  2.0568
 6613TIP3   OH241473   5.786   5.060   1.417  0.7018 -0.2193  0.2583
 6613TIP3    H141474   5.866   5.031   1.462  1.0710  0.1604 -0.1429
 6613TIP3    H241475   5.801   5.038   1.325 -0.4580 -1.8900  0.4453
 6614TIP3   OH241476   4.096   5.015   0.816 -0.7184  0.4218 -0.0123
 6614TIP3    H141477   4.122   5.056   0.899 -0.1844 -1.1291  0.5939
 6614TIP3    H241478   4.130   5.075   0.750  2.8448 -0.5402  0.7991
 6615TIP3   OH241479   5.148   4.287   1.623  0.3433  0.3714  0.2622
 6615TIP3    H141480   5.097   4.348   1.677  1.1083  0.9620  0.3222
 6615TIP3    H241481   5.083   4.241   1.571 -0.2798  0.8815  0.5854
 6616TIP3   OH241482   5.240   0.615   1.154  0.1432  0.4738  0.1402
 6616TIP3    H141483   5.221   0.640   1.244  0.3499  1.5934 -0.1245
 6616TIP3    H241484   5.291   0.687   1.119 -2.0749  1.2488 -1.6544
 6617TIP3   OH241485   0.413   5.920   0.337  0.1319 -0.4852  0.3387
 6617TIP3    H141486   0.452   5.993   0.386  1.9176 -1.7045  0.7748
 6617TIP3    H241487   0.320   5.923   0.359  0.3707  0.9876  1.2060
 6618TIP3   OH241488   2.744   6.146   1.536 -0.8375 -0.2846  0.6077
 6618TIP3    H141489   2.675   6.104   1.485 -2.1354  0.3160  1.8418
 6618TIP3    H241490   2.717   6.134   1.627  1.4760 -1.3860  1.1828
 6619TIP3   OH241491   4.331   3.797   2.651  0.0179 -0.0361 -0.1101
 6619TIP3    H141492   4.258   3.752   2.694 -0.3642 -0.7661 -1.4970
 6619TIP3    H241493   4.369   3.732   2.593  1.1102  0.6716 -0.2026
 6620TIP3   OH241494   6.450   6.208   6.855 -0.4405  0.1721 -0.3945
 6620TIP3    H141495   6.519   6.244   6.911 -0.2801  0.9155 -1.0645
 6620TIP3    H241496   6.471   6.239   6.767 -1.2710 -0.1284 -0.7075
 6621TIP3   OH241497   6.345   5.669   0.187  0.4249 -0.1662  0.1948
 6621TIP3    H141498   6.435   5.697   0.169 -0.2138  0.7595 -1.7272
 6621TIP3    H241499   6.333   5.592   0.133  0.0011 -0.2005  0.3400
 6622TIP3   OH241500   5.532   3.320   7.953  0.5757 -0.0421 -0.3435
 6622TIP3    H141501   5.548   3.407   7.988 -0.7921  0.3509 -0.6697
 6622TIP3    H241502   5.536   3.330   7.858  1.2707 -0.5130 -0.3694
 6623TIP3   OH241503   4.559   6.836   6.758 -0.1811 -0.3309 -0.1114
 6623TIP3    H141504   4.554   6.885   6.676  0.7606  1.1221  0.6661
 6623TIP3    H241505   4.634   6.777   6.746  0.4761  0.4659 -0.0146
 6624TIP3   OH241506   4.570   7.300   2.383 -0.3280 -0.0260  0.2947
 6624TIP3    H141507   4.640   7.350   2.341 -1.0055 -0.3011 -1.1899
 6624TIP3    H241508   4.605   7.211   2.390 -0.5786 -0.1842 -0.5319
 6625TIP3   OH241509   5.938   1.104   6.605  0.0896 -0.3127  0.1669
 6625TIP3    H141510   6.006   1.171   6.596 -0.0196 -0.1987  0.1740
 6625TIP3    H241511   5.899   1.099   6.518  0.7779 -1.1060 -0.1004
 6626TIP3   OH241512   5.635   2.214   2.035  0.7479  0.3761 -0.4390
 6626TIP3    H141513   5.653   2.121   2.052  1.0490  0.9813  2.8019
 6626TIP3    H241514   5.687   2.234   1.957 -0.3970 -2.4940 -2.0235
 6627TIP3   OH241515   3.413   3.031   6.776 -0.2034 -0.5097 -0.0426
 6627TIP3    H141516   3.506   3.045   6.759 -0.6525  0.5344 -1.9203
 6627TIP3    H241517   3.388   2.959   6.718 -0.5228 -0.9181  0.5954
 6628TIP3   OH241518   2.797   0.203   0.230  0.0890  0.6164 -0.0131
 6628TIP3    H141519   2.843   0.187   0.312 -0.0491  1.0567  0.1557
 6628TIP3    H241520   2.727   0.138   0.229  1.0756 -0.4395 -0.5584
 6629TIP3   OH241521   6.033   5.113   2.139 -0.5209 -0.2378  0.1202
 6629TIP3    H141522   6.069   5.078   2.220 -0.4981 -0.3435  0.0631
 6629TIP3    H241523   6.110   5.131   2.085 -0.5837 -1.0837 -0.2582
 6630TIP3   OH241524   3.737   6.959   1.107  0.4839 -0.0457  0.0283
 6630TIP3    H141525   3.831   6.945   1.115  0.4259 -1.8937 -2.2252
 6630TIP3    H241526   3.716   7.017   1.181  3.6684  1.9302 -0.4882
 6631TIP3   OH241527   6.512   5.899   0.947  0.1305  0.0838  0.3510
 6631TIP3    H141528   6.574   5.931   0.882  0.5066 -0.9060  0.2131
 6631TIP3    H241529   6.474   5.978   0.985  0.7311  0.6804 -0.2767
 6632TIP3   OH241530   5.561   5.921   1.409  0.3952 -0.2492 -0.5454
 6632TIP3    H141531   5.612   5.999   1.388 -0.0721  0.0516 -0.5469
 6632TIP3    H241532   5.482   5.928   1.356  0.6575 -1.0582 -1.0602
 6633TIP3   OH241533   6.496   6.901   7.041  0.4949  0.4983 -0.0339
 6633TIP3    H141534   6.514   6.811   7.070 -1.8044  0.0500  0.0571
 6633TIP3    H241535   6.432   6.935   7.103 -1.4973  0.8897 -2.2161
 6634TIP3   OH241536   4.328   1.661   7.066  0.2924 -0.4887  0.3049
 6634TIP3    H141537   4.392   1.684   7.133 -1.1345 -1.2984  1.9760
 6634TIP3    H241538   4.244   1.666   7.111 -0.5191 -3.2250 -0.8352
 6635TIP3   OH241539   3.066   7.271   7.809 -0.3946 -0.4446  0.2147
 6635TIP3    H141540   3.062   7.306   7.898 -2.3635 -1.0777  0.3940
 6635TIP3    H241541   3.025   7.338   7.754  1.2154  0.1458 -0.3079
 6636TIP3   OH241542   5.855   5.224   7.730  0.3840 -0.6424 -0.3670
 6636TIP3    H141543   5.933   5.190   7.774  1.3312 -0.7769 -2.1100
 6636TIP3    H241544   5.865   5.197   7.639 -0.7283  1.0205 -1.0025
 6637TIP3   OH241545   3.586   5.673   0.296 -0.7338 -0.1712 -0.0831
 6637TIP3    H141546   3.518   5.605   0.300 -0.4189 -0.3966  2.3821
 6637TIP3    H241547   3.577   5.719   0.380  1.0096  0.9242 -0.4911
 6638TIP3   OH241548   6.377   7.088   0.437  0.2824  0.1490 -0.4073
 6638TIP3    H141549   6.408   7.159   0.381 -0.6563  1.8713  1.1980
 6638TIP3    H241550   6.281   7.089   0.427  0.2010 -0.3789  0.2532
 6639TIP3   OH241551   5.681   6.187   7.516  0.1165  0.1701  0.1700
 6639TIP3    H141552   5.606   6.135   7.546  0.4754 -0.5806 -0.2218
 6639TIP3    H241553   5.705   6.147   7.433  1.8930 -0.5532  1.0106
 6640TIP3   OH241554   6.106   7.109   0.395 -0.0761 -0.5571  0.3691
 6640TIP3    H141555   6.082   7.081   0.307  1.3898  2.7313 -1.1607
 6640TIP3    H241556   6.056   7.190   0.409  2.8100  1.2293  0.8277
 6641TIP3   OH241557   3.770   4.721   0.315  0.9369  0.2457 -0.8614
 6641TIP3    H141558   3.804   4.649   0.368  0.0834 -1.0654 -2.0246
 6641TIP3    H241559   3.793   4.800   0.363 -0.2803 -0.9047  1.7343
 6642TIP3   OH241560   5.774   0.881   0.085 -0.6936  0.1888  0.4126
 6642TIP3    H141561   5.687   0.877   0.126 -0.5338  2.0034  0.9494
 6642TIP3    H241562   5.785   0.973   0.059 -0.0506 -0.5510 -2.1343
 6643TIP3   OH241563   6.295   6.391   8.485 -0.0997  0.0829  0.4404
 6643TIP3    H141564   6.291   6.487   8.483 -0.9185  0.0172 -1.9267
 6643TIP3    H241565   6.231   6.367   8.552 -0.7573  1.1514  0.2158
 6644TIP3   OH241566   5.732   7.094   0.339  0.0472 -0.0845  0.3080
 6644TIP3    H141567   5.664   7.133   0.284 -0.4976 -0.0773  0.9822
 6644TIP3    H241568   5.709   7.001   0.342  0.0803 -0.0859  0.5105
 6645TIP3   OH241569   4.610   5.474   1.311 -0.2080 -0.3738  0.2745
 6645TIP3    H141570   4.686   5.422   1.284  0.4485  1.1432 -0.8422
 6645TIP3    H241571   4.640   5.521   1.389 -0.5363 -0.9967  0.7868
 6646TIP3   OH241572   3.075   0.541   6.501 -0.0172 -0.7367  0.3111
 6646TIP3    H141573   3.031   0.468   6.544 -1.1650 -0.6168 -0.6382
 6646TIP3    H241574   3.022   0.559   6.424  1.2172 -0.0195 -0.3919
 6647TIP3   OH241575   2.172   6.357   7.627 -0.3503  0.1997 -0.2538
 6647TIP3    H141576   2.130   6.294   7.686  0.1621  0.4655  0.4081
 6647TIP3    H241577   2.236   6.401   7.682  0.2293  0.3612 -1.0556
 6648TIP3   OH241578   3.927   5.447   7.831 -0.1066 -0.4840 -0.8537
 6648TIP3    H141579   4.002   5.396   7.861  0.9767  1.9477  0.7405
 6648TIP3    H241580   3.929   5.440   7.736  1.0012 -2.0063 -0.7306
 6649TIP3   OH241581   0.844   7.143   1.677  0.4781  0.1144  0.1446
 6649TIP3    H141582   0.849   7.163   1.770  0.8973  1.4050 -0.1460
 6649TIP3    H241583   0.915   7.193   1.637 -1.5552  1.9926 -1.2649
 6650TIP3   OH241584   4.218   5.879   0.871 -0.2569  0.3978  0.1967
 6650TIP3    H141585   4.152   5.939   0.905  0.1290  0.7650  0.2991
 6650TIP3    H241586   4.278   5.934   0.822  0.9440  0.3322  1.5355
 6651TIP3   OH241587   1.932   5.528   8.379 -0.2679  0.3815 -0.0807
 6651TIP3    H141588   1.903   5.550   8.290  0.7274  2.3682  0.0535
 6651TIP3    H241589   1.980   5.446   8.369  2.3153  2.0398 -1.8830
 6652TIP3   OH241590   5.188   5.940   8.411 -0.3125 -0.6847 -0.5058
 6652TIP3    H141591   5.233   5.934   8.495 -1.2443  0.9940  0.1496
 6652TIP3    H241592   5.246   5.995   8.357 -1.3848  1.2755  0.2593
 6653TIP3   OH241593   0.455   5.939   7.922 -0.0092  0.4102 -0.3232
 6653TIP3    H141594   0.537   5.959   7.967 -0.4482  0.4657  0.4678
 6653TIP3    H241595   0.441   6.013   7.864  0.0807  0.8070  0.1555
 6654TIP3   OH241596   5.507   6.955   2.003 -1.0542  0.0601 -0.5166
 6654TIP3    H141597   5.543   6.878   2.046 -1.2375  1.0834  1.5141
 6654TIP3    H241598   5.415   6.956   2.030 -0.4916  2.2904  1.4014
 6655TIP3   OH241599   2.418   0.474   6.307 -0.3358  0.5646 -0.5500
 6655TIP3    H141600   2.505   0.449   6.277  0.5419  1.8290  0.9140
 6655TIP3    H241601   2.359   0.416   6.258  1.2250  0.5755 -2.5104
 6656TIP3   OH241602   4.022   7.230   8.156 -0.3187 -0.0320 -0.2081
 6656TIP3    H141603   4.050   7.156   8.103 -1.8032  0.2356 -1.4161
 6656TIP3    H241604   4.051   7.307   8.106  0.4359  0.2149  0.5969
 6657TIP3   OH241605   6.312   5.236   0.961  0.4202  0.6122 -0.6180
 6657TIP3    H141606   6.399   5.215   0.995 -0.1662  0.0365  0.5567
 6657TIP3    H241607   6.320   5.225   0.866  0.8058 -2.4997 -0.2552
 6658TIP3   OH241608   3.240   1.291   1.238  0.1915  0.2048 -0.3212
 6658TIP3    H141609   3.228   1.364   1.299 -2.7439 -0.0621 -0.5020
 6658TIP3    H241610   3.179   1.224   1.269 -0.1320 -0.5644 -2.5511
 6659TIP3   OH241611   4.960   2.025   1.712 -0.3258  0.1117  0.5386
 6659TIP3    H141612   5.033   1.976   1.674 -1.8742 -0.1847 -2.2045
 6659TIP3    H241613   4.961   2.109   1.665 -1.5580  0.2369  0.7228
 6660TIP3   OH241614   2.448   1.844   0.973  0.0657 -0.1368 -0.3773
 6660TIP3    H141615   2.394   1.846   1.052  0.2695  1.9231 -0.2550
 6660TIP3    H241616   2.397   1.794   0.910 -1.7066  1.2022 -0.0434
 6661TIP3   OH241617   5.524   0.533   1.623  0.1144 -0.0247 -0.3818
 6661TIP3    H141618   5.619   0.546   1.626  0.0793  0.2660 -0.5404
 6661TIP3    H241619   5.512   0.469   1.552  0.0990  0.8264 -1.1596
 6662TIP3   OH241620   1.780   6.319   1.416  0.5571 -0.2252  0.0233
 6662TIP3    H141621   1.731   6.376   1.356 -0.0076 -0.2326  0.4715
 6662TIP3    H241622   1.872   6.335   1.396  0.3678 -0.6206 -1.2342
 6663TIP3   OH241623   0.512   7.302   1.048 -0.0329 -0.0010 -0.6382
 6663TIP3    H141624   0.571   7.272   1.118 -1.8749 -0.6700  0.6652
 6663TIP3    H241625   0.493   7.393   1.070 -1.8604 -0.6753  0.6274
 6664TIP3   OH241626   3.574   5.209   8.134 -0.0112 -0.7259  0.0657
 6664TIP3    H141627   3.590   5.303   8.146 -0.0018 -0.6986 -0.1571
 6664TIP3    H241628   3.661   5.170   8.127  0.0332 -1.0159  2.1306
 6665TIP3   OH241629   3.110   0.659   1.234  0.4144  0.2274  0.0018
 6665TIP3    H141630   3.100   0.710   1.154 -0.2535  1.3370  0.7743
 6665TIP3    H241631   3.069   0.575   1.214 -0.3720  0.7410 -0.5917
 6666TIP3   OH241632   2.315   1.781   1.226 -0.3489 -0.2586  0.1864
 6666TIP3    H141633   2.362   1.741   1.299 -0.9012 -0.2049  0.5725
 6666TIP3    H241634   2.224   1.786   1.255 -0.9603 -2.1201 -1.3133
 6667TIP3   OH241635   3.315   7.280   7.964  0.3323  0.0798 -0.1455
 6667TIP3    H141636   3.362   7.249   8.042 -0.1277 -0.0532  0.0771
 6667TIP3    H241637   3.269   7.203   7.932 -0.1932  0.3533 -0.0404
 6668TIP3   OH241638   3.825   3.972   0.282 -0.3296  0.1896  0.3637
 6668TIP3    H141639   3.778   3.972   0.366 -1.3892 -2.2325 -0.2004
 6668TIP3    H241640   3.756   3.972   0.216  0.4750 -1.8740 -0.4947
 6669TIP3   OH241641   3.155   4.573   6.974  0.3322 -0.0048 -0.3156
 6669TIP3    H141642   3.123   4.663   6.966  1.6620  0.5793  0.7215
 6669TIP3    H241643   3.231   4.570   6.915 -0.2308 -0.7184 -1.0225
 6670TIP3   OH241644   2.431   7.305   7.701 -0.1106 -0.3696  0.4048
 6670TIP3    H141645   2.443   7.235   7.764 -1.0163 -0.5684  0.3618
 6670TIP3    H241646   2.520   7.332   7.678  0.2314  0.3085  2.4090
 6671TIP3   OH241647   4.946   1.738   1.486  0.5127 -0.0767 -0.0261
 6671TIP3    H141648   4.900   1.821   1.497 -1.8957 -0.9565 -2.6724
 6671TIP3    H241649   4.957   1.729   1.391  1.3738 -2.4449  0.2572
 6672TIP3   OH241650   5.684   6.622   0.138  0.1765 -0.4446 -0.2934
 6672TIP3    H141651   5.769   6.587   0.111 -0.0022 -0.4453 -0.8551
 6672TIP3    H241652   5.705   6.693   0.199  0.5797 -0.3984 -0.4860
 6673TIP3   OH241653   3.353   5.526   7.172  0.2563  0.6629 -0.0425
 6673TIP3    H141654   3.271   5.541   7.219 -0.1163 -0.7793 -0.2322
 6673TIP3    H241655   3.345   5.439   7.135  2.1962  0.1753  0.6062
 6674TIP3   OH241656   3.616   1.961   8.007  0.1455 -0.3069 -0.2628
 6674TIP3    H141657   3.686   1.909   8.049 -0.5552 -0.1925  1.0623
 6674TIP3    H241658   3.595   1.912   7.928  0.6479 -1.1815  0.1322
 6675TIP3   OH241659   5.831   3.853   2.202 -0.2625 -0.1236  0.1091
 6675TIP3    H141660   5.904   3.804   2.239  0.9501  1.6115  0.0453
 6675TIP3    H241661   5.777   3.876   2.278 -0.6014 -1.1154  0.1864
 6676TIP3   OH241662   6.958   4.952   1.928  0.0726 -0.1695  0.3469
 6676TIP3    H141663   6.927   5.036   1.961  1.2293 -0.1717  1.4932
 6676TIP3    H241664   6.943   4.956   1.833 -0.2221  1.1744  0.4455
 6677TIP3   OH241665   0.662   5.980   8.367 -0.2930  0.0355 -0.0119
 6677TIP3    H141666   0.752   6.005   8.348 -0.4418  1.1033  0.6326
 6677TIP3    H241667   0.634   6.041   8.435 -1.2260 -0.8402  0.4023
 6678TIP3   OH241668   5.798   5.046   2.008  0.3533 -0.1333 -0.2579
 6678TIP3    H141669   5.878   5.075   2.052  0.6310 -0.8315 -0.3029
 6678TIP3    H241670   5.781   4.959   2.044  0.5290 -0.6680 -1.4624
 6679TIP3   OH241671   1.096   0.728   6.990 -0.5187  0.5633  0.1992
 6679TIP3    H141672   1.172   0.714   7.046 -2.0949  1.3354  2.6399
 6679TIP3    H241673   1.056   0.642   6.980  0.8626  0.0803 -1.4465
 6680TIP3   OH241674   5.522   0.341   0.607  0.5693 -0.2365 -0.7747
 6680TIP3    H141675   5.582   0.359   0.535 -2.7282 -1.7076 -4.0914
 6680TIP3    H241676   5.551   0.257   0.642  1.9433  0.2862 -0.6260
 6681TIP3   OH241677   6.540   4.443   8.479 -0.0213  0.2400  0.1339
 6681TIP3    H141678   6.455   4.402   8.463 -0.6358  1.9880 -1.3225
 6681TIP3    H241679   6.600   4.398   8.420  0.1084 -1.0986  1.2702
 6682TIP3   OH241680   3.443   0.254   1.023 -0.7593  0.1279 -0.4478
 6682TIP3    H141681   3.431   0.278   1.115  0.7310 -1.3324  0.1617
 6682TIP3    H241682   3.527   0.293   0.999 -1.0443  0.3246 -1.1210
 6683TIP3   OH241683   5.754   6.118   1.364  0.0342  0.6015 -0.0016
 6683TIP3    H141684   5.806   6.094   1.288 -0.2551 -0.4903  0.1228
 6683TIP3    H241685   5.809   6.177   1.415  1.3584 -0.9284  0.3880
 6684TIP3   OH241686   3.280   5.400   0.156 -0.5223 -0.1868 -0.1331
 6684TIP3    H141687   3.208   5.424   0.215 -0.8003 -1.2556 -0.0182
 6684TIP3    H241688   3.298   5.480   0.106 -2.4421 -0.1593 -0.8404
 6685TIP3   OH241689   5.757   7.031   1.682 -0.0103 -0.3911  0.1728
 6685TIP3    H141690   5.844   7.069   1.666 -0.4890  1.2069  1.3132
 6685TIP3    H241691   5.729   7.002   1.595  2.0764 -1.8664 -0.0639
 6686TIP3   OH241692   2.463   0.187   1.819  0.8105  0.5623 -0.0798
 6686TIP3    H141693   2.442   0.267   1.772 -2.2773 -0.4643 -0.5549
 6686TIP3    H241694   2.495   0.217   1.904 -0.9318  2.3138 -0.0044
 6687TIP3   OH241695   5.990   6.490   0.676  0.5387  0.1536  0.2779
 6687TIP3    H141696   6.049   6.564   0.657  3.1033 -1.4835  1.5615
 6687TIP3    H241697   5.969   6.499   0.769  2.3795 -1.7289  0.9129
 6688TIP3   OH241698   5.528   5.082   1.237 -0.1422  0.5705 -0.0711
 6688TIP3    H141699   5.497   5.067   1.326 -2.5210  0.5819 -0.8699
 6688TIP3    H241700   5.574   5.166   1.242  1.7326 -0.5135  1.5897
 6689TIP3   OH241701   4.028   6.406   1.757 -0.4623 -0.4980  0.5584
 6689TIP3    H141702   3.940   6.403   1.794 -0.2029 -0.9499  1.1341
 6689TIP3    H241703   4.085   6.372   1.825 -0.0826 -2.0911 -0.5323
 6690TIP3   OH241704   5.358   2.758   8.374 -0.0059  0.2628 -0.3848
 6690TIP3    H141705   5.366   2.826   8.441  0.5433 -0.3627  0.1945
 6690TIP3    H241706   5.267   2.730   8.378  0.1061 -0.0097  0.3401
 6691TIP3   OH241707   4.851   5.600   7.251 -0.4381  0.5762  0.0353
 6691TIP3    H141708   4.759   5.626   7.243  0.0258  2.2609 -0.0815
 6691TIP3    H241709   4.851   5.528   7.315 -1.8666  0.3201 -0.2366
 6692TIP3   OH241710   3.196   7.148   1.365  0.1159 -0.3509  0.2914
 6692TIP3    H141711   3.169   7.192   1.446  1.9099 -1.9803  1.8455
 6692TIP3    H241712   3.264   7.204   1.329 -0.3560  0.1415  0.1665
 6693TIP3   OH241713   3.607   2.470   1.408 -0.1956 -0.0979  0.0678
 6693TIP3    H141714   3.683   2.417   1.382 -0.5991  0.5222 -2.5531
 6693TIP3    H241715   3.645   2.550   1.444  0.4091  0.1608 -1.1135
 6694TIP3   OH241716   3.313   0.558   1.435  0.0479  0.1368 -0.4614
 6694TIP3    H141717   3.234   0.605   1.407 -0.7308  0.0817  1.5698
 6694TIP3    H241718   3.385   0.619   1.419 -0.8917  1.8678  1.6593
 6695TIP3   OH241719   1.965   3.880   0.865  0.0531  0.3867 -0.0112
 6695TIP3    H141720   1.913   3.830   0.928 -2.2264 -0.1721 -2.2340
 6695TIP3    H241721   2.018   3.814   0.820  1.0309  0.6722  0.7164
 6696TIP3   OH241722   1.460   5.427   2.357 -0.4890  0.0293 -0.8007
 6696TIP3    H141723   1.368   5.450   2.376 -0.2788  0.1257  0.1148
 6696TIP3    H241724   1.454   5.363   2.286 -1.2779 -0.1861 -0.5479
 6697TIP3   OH241725   5.041   4.635   2.090  0.0709 -0.5520  0.1856
 6697TIP3    H141726   5.126   4.668   2.061 -0.8419 -0.3703 -2.3077
 6697TIP3    H241727   5.027   4.678   2.175  0.4389  2.8850 -1.4235
 6698TIP3   OH241728   3.596   5.252   0.504 -0.9772 -0.2712  0.3001
 6698TIP3    H141729   3.522   5.305   0.532 -1.2401 -0.3554 -0.2405
 6698TIP3    H241730   3.636   5.302   0.433 -1.9825 -1.3910 -1.0768
 6699TIP3   OH241731   5.695   0.631   0.433 -0.3489 -0.4182  0.3566
 6699TIP3    H141732   5.756   0.569   0.473  3.6170  1.8294 -1.8670
 6699TIP3    H241733   5.690   0.703   0.496 -0.7748 -0.6237  0.5606
 6700TIP3   OH241734   4.405   3.184   8.040 -0.9866  0.1620 -1.1905
 6700TIP3    H141735   4.442   3.268   8.012 -1.6402  0.8322 -0.0707
 6700TIP3    H241736   4.312   3.192   8.020 -1.3107  0.3019  0.3322
 6701TIP3   OH241737   3.775   6.637   1.609 -0.4696 -0.3316 -0.1710
 6701TIP3    H141738   3.745   6.718   1.567  0.2487  0.3590  0.6101
 6701TIP3    H241739   3.868   6.631   1.586 -0.6928 -1.3075 -0.8052
 6702TIP3   OH241740   2.881   3.835   0.315 -0.1032  0.2461 -0.5884
 6702TIP3    H141741   2.882   3.765   0.380 -1.0722 -0.0559 -0.8861
 6702TIP3    H241742   2.955   3.816   0.257 -0.0534 -0.2412 -0.3650
 6703TIP3   OH241743   4.188   0.061   2.162  0.1193  0.0099  1.0748
 6703TIP3    H141744   4.244   0.067   2.239 -1.2094  0.4830  2.0378
 6703TIP3    H241745   4.119  -0.000   2.188 -0.7096  0.6885  0.4929
 6704TIP3   OH241746   6.199   4.310   1.635 -0.1118  0.6278  0.1118
 6704TIP3    H141747   6.196   4.217   1.657  2.0305  0.7356  1.0319
 6704TIP3    H241748   6.108   4.338   1.633 -0.7091 -1.1537  1.3333
 6705TIP3   OH241749   0.209   6.459   7.462 -0.5410 -0.7899 -0.0885
 6705TIP3    H141750   0.268   6.392   7.496  0.8739  0.4113 -0.0901
 6705TIP3    H241751   0.262   6.539   7.461 -1.6319 -0.0423 -1.7559
 6706TIP3   OH241752   6.063   6.538   1.936  0.2741  0.2214  0.2569
 6706TIP3    H141753   6.071   6.459   1.990 -0.1006 -0.3378 -0.4920
 6706TIP3    H241754   6.062   6.610   1.999  2.3735 -0.2488  0.8599
 6707TIP3   OH241755   5.001   3.216   2.099 -0.0246 -0.0086  0.0563
 6707TIP3    H141756   5.034   3.140   2.051 -1.0302 -0.3780 -0.0517
 6707TIP3    H241757   5.043   3.209   2.185  0.9878  0.0959 -0.4265
 6708TIP3   OH241758   7.152   6.076   7.617 -0.1273  0.0820  0.5948
 6708TIP3    H141759   7.064   6.063   7.580  0.9245 -1.7896 -1.3283
 6708TIP3    H241760   7.166   6.170   7.612 -1.3536  0.2167 -0.6776
 6709TIP3   OH241761   5.002   5.720   7.533 -0.1828 -0.1159 -0.0424
 6709TIP3    H141762   4.936   5.738   7.467 -1.6566  0.0618  1.4361
 6709TIP3    H241763   4.959   5.740   7.616  1.5519 -0.5235  0.9872
 6710TIP3   OH241764   3.574   6.177   0.365  0.2979  0.6066 -0.0408
 6710TIP3    H141765   3.645   6.167   0.428 -0.1417 -0.8081  0.2432
 6710TIP3    H241766   3.591   6.261   0.322  3.7066 -0.9509 -1.9224
 6711TIP3   OH241767   1.475   5.706   1.386 -0.2021 -0.7195 -0.0418
 6711TIP3    H141768   1.391   5.735   1.422  0.4458 -0.8532  1.6332
 6711TIP3    H241769   1.529   5.785   1.383  0.1885 -0.9516  0.5888
 6712TIP3   OH241770   3.853   5.418   0.526  0.0616  0.3900  0.2658
 6712TIP3    H141771   3.940   5.458   0.534 -0.6270  2.3914 -1.9964
 6712TIP3    H241772   3.867   5.327   0.551  2.5313  1.0075  1.2908
 6713TIP3   OH241773   3.966   0.169   0.158 -0.5738 -0.2997 -0.4986
 6713TIP3    H141774   3.984   0.113   0.083  1.1666 -0.5972  0.1212
 6713TIP3    H241775   3.996   0.256   0.130  1.4228 -0.6941  0.3505
 6714TIP3   OH241776   7.122   3.729   1.017 -0.3177  0.7492  0.0004
 6714TIP3    H141777   7.040   3.692   0.986  0.4832  0.2503 -1.5895
 6714TIP3    H241778   7.184   3.714   0.946  1.1777  1.0516  1.1988
 6715TIP3   OH241779   3.259   6.958   1.561  0.1917  0.4842 -0.0488
 6715TIP3    H141780   3.306   6.878   1.537  1.5101  1.3093 -0.2527
 6715TIP3    H241781   3.260   7.011   1.481 -1.0791  0.5275 -0.0494
 6716TIP3   OH241782   0.018   0.120   1.393 -0.4594  0.0395 -0.1262
 6716TIP3    H141783   0.069   0.201   1.404 -0.4186  0.0967 -0.7319
 6716TIP3    H241784   0.042   0.067   1.470  0.4773  0.0895 -0.3716
 6717TIP3   OH241785   3.523   4.775   0.117  0.2523  0.4410  0.9846
 6717TIP3    H141786   3.439   4.737   0.143 -0.1102  1.0424  0.7226
 6717TIP3    H241787   3.509   4.870   0.124  0.3581  0.5949 -0.7118
 6718TIP3   OH241788   3.593   5.058   0.179 -0.6604 -0.0461 -0.0130
 6718TIP3    H141789   3.585   5.065   0.084  0.1027 -0.2716 -0.1030
 6718TIP3    H241790   3.513   5.096   0.214 -0.5404  0.8482 -0.7202
 6719TIP3   OH241791   3.072   5.915   0.098  0.1094  0.0506  0.3954
 6719TIP3    H141792   2.978   5.926   0.084  0.2263 -0.2457 -0.7508
 6719TIP3    H241793   3.107   6.004   0.098 -0.3071  0.2174  1.9101
 6720TIP3   OH241794   4.205   7.079   1.659  0.1669  0.2821 -0.4012
 6720TIP3    H141795   4.191   6.985   1.674  0.0157  0.3629 -0.0372
 6720TIP3    H241796   4.281   7.101   1.712  1.9148 -0.2192 -2.6146
 6721TIP3   OH241797   6.381   5.595   1.297 -0.3087 -0.2999 -0.1594
 6721TIP3    H141798   6.349   5.529   1.235  0.0785  1.9073 -2.8151
 6721TIP3    H241799   6.463   5.626   1.259 -0.2818  1.4075  1.2268
 6722TIP3   OH241800   2.822   4.855   7.546 -0.6843  0.7074  0.1394
 6722TIP3    H141801   2.789   4.891   7.463 -0.0488 -0.1734 -0.5038
 6722TIP3    H241802   2.917   4.864   7.539 -0.4136 -2.4495 -0.6769
 6723TIP3   OH241803   4.886   6.087   2.028 -0.4228 -0.0177 -0.1743
 6723TIP3    H141804   4.816   6.153   2.031 -1.1975 -0.7208 -1.7856
 6723TIP3    H241805   4.842   6.005   2.051  0.1695 -0.2523  0.1298
 6724TIP3   OH241806   0.132   3.937   1.167  0.3813 -0.0084  0.4716
 6724TIP3    H141807   0.183   4.008   1.127 -0.6910 -0.2657 -1.4014
 6724TIP3    H241808   0.055   3.981   1.203  0.2274 -0.0771  0.2277
 6725TIP3   OH241809   5.579   2.949   1.441 -0.0560  0.4982  0.2759
 6725TIP3    H141810   5.603   2.952   1.348  0.5551  0.1481  0.4165
 6725TIP3    H241811   5.657   2.979   1.487  0.1388 -0.6746  0.7427
 6726TIP3   OH241812   2.796   4.653   0.976  1.0051 -0.2702 -0.1120
 6726TIP3    H141813   2.788   4.584   0.910 -2.1183 -0.0868 -0.0389
 6726TIP3    H241814   2.839   4.725   0.931  0.5177 -0.7896 -1.4370
 6727TIP3   OH241815   6.043   4.126   6.869 -0.3679  0.3566 -0.4321
 6727TIP3    H141816   6.012   4.171   6.790 -0.9919  1.7545  0.5796
 6727TIP3    H241817   5.971   4.137   6.932  0.4333 -0.0851  0.5592
 6728TIP3   OH241818   4.910   5.699   8.433  0.5112  0.3276  0.3818
 6728TIP3    H141819   4.970   5.658   8.495  2.7410  3.9526  0.7669
 6728TIP3    H241820   4.967   5.741   8.369 -1.5894  2.7505  0.0021
 6729TIP3   OH241821   2.677   6.858   0.853 -0.2916 -0.2656 -0.0341
 6729TIP3    H141822   2.761   6.849   0.807  0.6062  1.2281  1.2735
 6729TIP3    H241823   2.653   6.950   0.842 -1.8442 -0.7331 -0.5445
 6730TIP3   OH241824   1.484   4.889   0.025 -0.1159 -0.7778  0.4645
 6730TIP3    H141825   1.469   4.975  -0.014 -0.2304 -0.6249  0.8424
 6730TIP3    H241826   1.401   4.866   0.066 -0.2603 -1.3272 -0.1238
 6731TIP3   OH241827   4.904   0.135   2.089 -0.2637  0.2304  0.3428
 6731TIP3    H141828   4.912   0.215   2.142  0.6865  0.1806  0.2801
 6731TIP3    H241829   4.811   0.113   2.094 -0.6121  1.5673  0.0386
 6732TIP3   OH241830   5.815   4.738   7.198 -0.2840 -0.3956  1.0180
 6732TIP3    H141831   5.875   4.664   7.209  0.6870 -0.1365 -2.0633
 6732TIP3    H241832   5.872   4.814   7.186 -1.2360  0.1605 -0.0787
 6733TIP3   OH241833   4.849   0.040   8.155 -0.4885  0.3742  0.1295
 6733TIP3    H141834   4.831  -0.054   8.166  0.4400  0.0559 -1.0127
 6733TIP3    H241835   4.805   0.081   8.230  1.8804 -1.3079  2.5760
 6734TIP3   OH241836   3.798   0.932   8.108 -0.2136 -0.3055  0.3847
 6734TIP3    H141837   3.822   1.024   8.102  0.9112 -0.5720  0.5875
 6734TIP3    H241838   3.705   0.932   8.128 -0.6202  0.7560 -1.4108
 6735TIP3   OH241839   4.401   6.162   1.144  0.7445 -0.6449  0.5797
 6735TIP3    H141840   4.467   6.099   1.116  1.0087  0.1658 -0.6545
 6735TIP3    H241841   4.361   6.193   1.063  2.4027  2.7061  0.9637
 6736TIP3   OH241842   2.282   5.868   1.068 -0.1997 -0.0572  0.0975
 6736TIP3    H141843   2.322   5.948   1.033 -0.9000  0.1996 -0.1292
 6736TIP3    H241844   2.225   5.899   1.138  0.3771 -0.4695  0.7541
 6737TIP3   OH241845   3.714   6.659   0.213  0.0741 -0.4664 -0.4425
 6737TIP3    H141846   3.728   6.729   0.276 -0.4736 -0.1313 -0.6928
 6737TIP3    H241847   3.710   6.703   0.128 -2.3623 -0.5558 -0.4074
 6738TIP3   OH241848   3.140   4.275   2.348 -0.5037 -0.0073 -0.2034
 6738TIP3    H141849   3.120   4.323   2.268 -1.3952 -0.7004 -0.4120
 6738TIP3    H241850   3.162   4.342   2.412  0.6374  0.5231 -1.1468
 6739TIP3   OH241851   5.941   1.045   2.117 -0.3169  0.0963 -0.2555
 6739TIP3    H141852   5.952   1.028   2.211  1.9336 -1.8198 -0.7928
 6739TIP3    H241853   5.871   1.110   2.112  0.5388  1.3713  2.8288
 6740TIP3   OH241854   4.564   1.558   8.442  0.0502  0.2647 -0.8550
 6740TIP3    H141855   4.601   1.639   8.477 -2.0960  0.9025  0.0250
 6740TIP3    H241856   4.545   1.577   8.351 -2.4275  1.5035 -0.1226
 6741TIP3   OH241857   6.465   4.787   1.254  0.5885  0.1867  0.5422
 6741TIP3    H141858   6.508   4.702   1.263  1.7531  0.6956 -0.1415
 6741TIP3    H241859   6.530   4.843   1.213 -0.4231  1.2222  0.3163
 6742TIP3   OH241860   1.884   0.627   6.451  0.6715 -0.4452 -0.4978
 6742TIP3    H141861   1.831   0.551   6.427 -0.5337 -0.2448  1.4079
 6742TIP3    H241862   1.827   0.702   6.436  1.3007 -0.0356 -0.8552
 6743TIP3   OH241863   5.489   6.355   1.368 -0.0149  0.0920 -0.1798
 6743TIP3    H141864   5.500   6.446   1.396 -1.6949 -0.0394  0.9598
 6743TIP3    H241865   5.512   6.303   1.444 -1.5915 -0.3476  0.0272
 6744TIP3   OH241866   0.845   4.755   7.955  0.5067  0.0704 -0.6072
 6744TIP3    H141867   0.760   4.753   7.999  0.0038  0.2501 -1.5561
 6744TIP3    H241868   0.866   4.848   7.947  0.9190  0.0180 -0.1297
 6745TIP3   OH241869   6.587   3.712   7.709 -0.1679 -0.1043  0.3182
 6745TIP3    H141870   6.656   3.768   7.746 -0.0199  0.1968 -0.4146
 6745TIP3    H241871   6.542   3.768   7.646 -1.6892 -0.0082  1.4710
 6746TIP3   OH241872   3.935   3.431   1.463  0.5975  0.3809 -0.2277
 6746TIP3    H141873   3.878   3.370   1.511  0.8444 -0.1296 -0.5823
 6746TIP3    H241874   3.882   3.461   1.389  1.3699 -1.4318 -1.5504
 6747TIP3   OH241875   0.611   4.280   6.461 -0.0671 -1.1454 -0.2473
 6747TIP3    H141876   0.565   4.234   6.390 -0.9625 -1.6006  0.6038
 6747TIP3    H241877   0.671   4.215   6.496  0.2871 -0.9586 -0.5038
 6748TIP3   OH241878   4.660   6.447   7.666 -0.2246 -0.0422 -0.5810
 6748TIP3    H141879   4.702   6.479   7.746 -1.5077  2.0935 -0.7430
 6748TIP3    H241880   4.571   6.423   7.693  0.1616 -1.8989 -0.8361
 6749TIP3   OH241881   5.065   4.405   8.247  0.2587 -0.7049 -0.3962
 6749TIP3    H141882   4.995   4.345   8.275  0.4484 -1.5078 -1.6173
 6749TIP3    H241883   5.037   4.437   8.162  0.8080 -0.0786 -0.3518
 6750TIP3   OH241884   3.970   0.023   8.429  0.9707 -0.4014 -0.2158
 6750TIP3    H141885   3.916   0.039   8.351 -0.4320 -0.8251  0.6570
 6750TIP3    H241886   4.056  -0.001   8.394  0.9844  1.5670 -1.6200
 6751TIP3   OH241887   3.998   0.249   1.581  0.0949  0.9650 -1.0603
 6751TIP3    H141888   4.067   0.189   1.608  0.5369  1.4753 -1.0495
 6751TIP3    H241889   3.942   0.197   1.523  1.3187  0.9720 -2.2666
 6752TIP3   OH241890   6.836   5.738   1.609  0.1115  0.1215  0.7086
 6752TIP3    H141891   6.838   5.643   1.596 -1.3332 -0.1053  1.9766
 6752TIP3    H241892   6.750   5.755   1.647  1.0899  1.7062  2.3091
 6753TIP3   OH241893   7.222   7.068   0.286  0.6845  0.0632  0.1398
 6753TIP3    H141894   7.142   7.064   0.337  0.4761 -2.7136 -0.2977
 6753TIP3    H241895   7.290   7.094   0.348 -0.2340  0.5872  0.9205
 6754TIP3   OH241896   2.445   6.488   0.786 -0.5356 -0.5746 -0.0581
 6754TIP3    H141897   2.384   6.555   0.757 -1.5094 -0.3035  2.4918
 6754TIP3    H241898   2.506   6.534   0.844  0.1748 -1.4505 -0.0938
 6755TIP3   OH241899   7.310   4.830   1.645 -0.0996 -0.0486 -0.0719
 6755TIP3    H141900   7.331   4.857   1.556 -0.4591 -0.1091 -0.1770
 6755TIP3    H241901   7.395   4.809   1.685  0.1426  0.8008 -0.1239
 6756TIP3   OH241902   2.357   3.996   1.087 -0.0797 -0.5978  0.6820
 6756TIP3    H141903   2.290   3.932   1.063  0.6172 -1.1206  0.1032
 6756TIP3    H241904   2.405   4.013   1.005 -0.1144  0.4879  0.8848
 6757TIP3   OH241905   0.056   0.536   1.990  0.0331  0.0300 -0.5433
 6757TIP3    H141906  -0.029   0.528   2.032  0.7358 -0.9554  0.7367
 6757TIP3    H241907   0.109   0.467   2.030  0.5039 -1.4835 -3.6119
 6758TIP3   OH241908   0.261   6.860   0.935  1.0077  0.2849  0.0594
 6758TIP3    H141909   0.245   6.845   1.028 -0.0360 -0.8559 -0.2986
 6758TIP3    H241910   0.345   6.907   0.933  2.4446 -2.1445  1.4155
 6759TIP3   OH241911   5.221   6.349   8.191 -0.0337  0.2633 -0.6926
 6759TIP3    H141912   5.162   6.286   8.150  2.5542 -0.4338 -3.5207
 6759TIP3    H241913   5.216   6.427   8.135 -0.1194  1.1152  0.4731
 6760TIP3   OH241914   4.568   6.079   0.402 -0.0795  0.1983 -0.4733
 6760TIP3    H141915   4.605   5.991   0.393 -2.2255 -0.7538 -0.3385
 6760TIP3    H241916   4.507   6.087   0.329 -0.5565  1.2431  0.0292
 6761TIP3   OH241917   5.550   5.776   0.604 -0.2156 -0.3952  0.2645
 6761TIP3    H141918   5.554   5.809   0.515  0.4518 -1.3920 -0.0833
 6761TIP3    H241919   5.538   5.854   0.658  0.7850  0.3555 -0.5810
 6762TIP3   OH241920   6.679   6.908   0.765  0.0676  0.4325 -0.5142
 6762TIP3    H141921   6.714   6.950   0.844 -1.0713  0.4108  0.0180
 6762TIP3    H241922   6.593   6.876   0.792 -0.2019  0.1653 -1.6901
 6763TIP3   OH241923   3.392   5.103   1.793  0.1723  0.3725  0.4978
 6763TIP3    H141924   3.387   5.025   1.849 -1.0358 -1.3046 -1.8692
 6763TIP3    H241925   3.304   5.142   1.798 -0.1528 -0.1749 -0.7414
 6764TIP3   OH241926   0.138   5.273   0.338 -0.4792 -0.2896 -0.2773
 6764TIP3    H141927   0.177   5.305   0.419  1.4813 -0.8323 -0.9818
 6764TIP3    H241928   0.086   5.347   0.306  3.1694  1.9811 -1.3663
 6765TIP3   OH241929   5.886   3.612   0.699 -0.3308 -0.5212 -0.2874
 6765TIP3    H141930   5.944   3.662   0.756 -1.2094  1.0703 -0.7496
 6765TIP3    H241931   5.930   3.613   0.614 -0.1721 -0.8363 -0.2075
 6766TIP3   OH241932   5.185   6.517   0.492 -0.2262 -0.2270 -0.1562
 6766TIP3    H141933   5.259   6.530   0.432  1.2323  2.5780  2.1861
 6766TIP3    H241934   5.110   6.501   0.434  1.6187 -0.1050 -2.6536
 6767TIP3   OH241935   2.201   0.949   1.690  0.0313  0.3276  0.0889
 6767TIP3    H141936   2.153   1.016   1.641  2.1446  0.8309 -1.4089
 6767TIP3    H241937   2.198   0.872   1.633 -2.0655 -0.7641  1.6331
 6768TIP3   OH241938   5.671   0.985   1.092 -0.4285  0.3638  0.0667
 6768TIP3    H141939   5.604   1.026   1.037 -0.6609  1.8633  1.4446
 6768TIP3    H241940   5.751   0.991   1.039 -0.5305  2.2947  0.0836
 6769TIP3   OH241941   3.974   6.939   0.307  0.1523  0.5244  0.5167
 6769TIP3    H141942   4.035   6.931   0.234  0.3568  0.7131  0.6658
 6769TIP3    H241943   3.924   7.019   0.289 -1.5650 -0.7828 -0.7297
 6770TIP3   OH241944   3.859   6.127   7.029  0.8109 -0.2530 -0.9454
 6770TIP3    H141945   3.813   6.173   7.099  0.3632 -3.0181  0.6189
 6770TIP3    H241946   3.949   6.119   7.059  1.0017 -0.0103 -1.4342
 6771TIP3   OH241947   0.163   4.415   0.724  0.5477  0.1798 -0.1333
 6771TIP3    H141948   0.229   4.354   0.692  1.6613  1.2812  0.0200
 6771TIP3    H241949   0.105   4.361   0.778  0.7277 -0.9855 -1.0831
 6772TIP3   OH241950   6.516   5.217   1.191  0.1136  0.1574  0.0197
 6772TIP3    H141951   6.424   5.201   1.210 -0.4025  1.0627 -1.6778
 6772TIP3    H241952   6.555   5.235   1.277 -1.7473  2.0928  0.4935
 6773TIP3   OH241953   1.801   0.302   0.686 -0.1878 -0.4288 -0.1520
 6773TIP3    H141954   1.732   0.367   0.673 -0.1001 -0.3273 -0.1062
 6773TIP3    H241955   1.760   0.234   0.739  0.6212  1.0372  2.4049
 6774TIP3   OH241956   6.618   0.623   7.266  0.3448 -0.0284  0.0907
 6774TIP3    H141957   6.569   0.549   7.302  0.3230 -0.0846 -0.0528
 6774TIP3    H241958   6.710   0.596   7.275  0.2810 -1.0098 -1.9357
 6775TIP3   OH241959   3.143   7.337   1.594 -0.5404  0.4217 -0.5803
 6775TIP3    H141960   3.156   7.361   1.685  0.7728  0.9337 -0.8873
 6775TIP3    H241961   3.064   7.384   1.567 -3.2206 -2.7512  1.3413
 6776TIP3   OH241962   7.166   5.470   0.988  0.7161 -0.2239 -0.4871
 6776TIP3    H141963   7.123   5.386   0.974 -1.1757  0.9743 -2.0253
 6776TIP3    H241964   7.102   5.523   1.034  0.8479  1.2809 -1.9786
 6777TIP3   OH241965   0.630   3.500   1.796  0.2753  0.0144  0.3485
 6777TIP3    H141966   0.612   3.459   1.881 -0.5138  1.1746  0.7638
 6777TIP3    H241967   0.613   3.593   1.811 -0.7052  0.1209 -1.3172
 6778TIP3   OH241968   0.789   0.629   1.675  0.2506  0.3531 -0.2682
 6778TIP3    H141969   0.751   0.659   1.757 -0.3582  1.2898 -0.8851
 6778TIP3    H241970   0.882   0.619   1.694 -0.2179 -1.6128  1.1607
 6779TIP3   OH241971   6.553   1.847   2.233 -0.2377  0.3588 -0.3004
 6779TIP3    H141972   6.482   1.783   2.233 -0.9111  1.0944  0.3676
 6779TIP3    H241973   6.509   1.932   2.224  0.6417  0.7356 -1.1310
 6780TIP3   OH241974   0.006   0.339   1.726  0.0844  1.0740 -0.0931
 6780TIP3    H141975   0.091   0.300   1.747 -0.7103 -0.3605  0.4892
 6780TIP3    H241976   0.011   0.427   1.762  1.5475  1.2256 -0.5998
 6781TIP3   OH241977   4.376   6.524   0.968  0.3400 -0.0114 -0.3126
 6781TIP3    H141978   4.448   6.466   0.944  0.0723 -1.2484  1.8149
 6781TIP3    H241979   4.414   6.612   0.961  2.3003 -0.6653  1.4809
 6782TIP3   OH241980   6.379   5.259   0.694  0.2232 -0.3453  0.0327
 6782TIP3    H141981   6.395   5.218   0.609  3.2588  1.4700 -0.3467
 6782TIP3    H241982   6.375   5.352   0.676 -0.0494  0.0121  1.7787
 6783TIP3   OH241983   6.864   4.995   7.693  0.4449  0.5858 -0.1828
 6783TIP3    H141984   6.954   5.021   7.675  0.1597  0.7977 -1.2829
 6783TIP3    H241985   6.851   4.914   7.643 -0.0968  0.7594 -0.3328
 6784TIP3   OH241986   0.375   6.711   7.967 -0.3908  0.1073 -0.3379
 6784TIP3    H141987   0.386   6.729   8.060  0.2521 -0.0480 -0.3809
 6784TIP3    H241988   0.294   6.756   7.943 -0.4100  0.3769  0.2334
 6785TIP3   OH241989   6.117   6.775   0.971  0.0390 -0.5692  0.2633
 6785TIP3    H141990   6.185   6.765   0.904  0.1837  1.1742  0.1257
 6785TIP3    H241991   6.051   6.710   0.947  0.6207 -0.7466 -0.9099
 6786TIP3   OH241992   6.126   6.960   1.584  0.5991  0.0798  0.2107
 6786TIP3    H141993   6.182   6.944   1.660 -0.4786  0.2427  1.0431
 6786TIP3    H241994   6.186   6.954   1.509  2.4841  3.9002  1.3002
 6787TIP3   OH241995   5.519   6.785   0.524 -0.1965  0.6927 -0.3766
 6787TIP3    H141996   5.473   6.717   0.572  0.1394  0.0820 -0.9185
 6787TIP3    H241997   5.513   6.862   0.581 -2.2569  0.7569 -0.6354
 6788TIP3   OH241998   2.835   0.115   6.489 -0.0531 -0.6331  0.3630
 6788TIP3    H141999   2.792   0.174   6.427  1.2577  0.1021  0.1398
 6788TIP3    H242000   2.820   0.028   6.453  0.8824 -0.1978 -1.1219
 6789TIP3   OH242001   5.124   1.105   1.658 -0.1637 -0.0252 -0.5241
 6789TIP3    H142002   5.162   1.059   1.584  0.7057  2.4012 -1.6143
 6789TIP3    H242003   5.041   1.140   1.625  0.1493  0.9281 -0.3227
 6790TIP3   OH242004   5.885   3.982   0.878  1.0328 -0.1637 -0.3991
 6790TIP3    H142005   5.945   4.050   0.910  1.4983 -0.6209 -0.2980
 6790TIP3    H242006   5.804   4.029   0.858  1.4589  0.4729 -0.6351
 6791TIP3   OH242007   5.374   5.567   1.327  0.1899  0.4441  0.5245
 6791TIP3    H142008   5.303   5.631   1.319 -0.9841 -0.9497 -0.5470
 6791TIP3    H242009   5.329   5.483   1.331  1.8090 -0.4731 -0.2221
 6792TIP3   OH242010   6.682   6.387   1.473 -0.4504 -0.1131 -0.2851
 6792TIP3    H142011   6.730   6.312   1.507 -1.4476 -1.1653 -1.1701
 6792TIP3    H242012   6.711   6.461   1.527  2.0623 -0.7343 -0.7288
 6793TIP3   OH242013   5.328   0.650   2.256 -0.9161 -0.9822  0.5432
 6793TIP3    H142014   5.322   0.559   2.225 -0.6384 -0.4363 -1.1748
 6793TIP3    H242015   5.237   0.680   2.259 -0.8924 -0.6990 -0.8787
 6794TIP3   OH242016   5.889   3.024   8.242 -0.3778 -0.2328  0.3287
 6794TIP3    H142017   5.914   3.115   8.257  1.0383 -0.7960  1.5056
 6794TIP3    H242018   5.793   3.026   8.240 -0.3787  1.2074  0.8604
 6795TIP3   OH242019   3.870   5.246   1.738  0.0813  0.5145  0.2978
 6795TIP3    H142020   3.795   5.220   1.793  0.1602 -0.1408  0.1041
 6795TIP3    H242021   3.875   5.177   1.672  0.5417  0.8347  0.0027
 6796TIP3   OH242022   6.797   7.007   1.321  0.1489 -0.2164 -0.4017
 6796TIP3    H142023   6.875   7.062   1.328  0.6054 -0.7737 -0.9599
 6796TIP3    H242024   6.824   6.923   1.360 -0.5279 -0.0529  0.4227
 6797TIP3   OH242025   5.102   5.963   1.345  0.3120 -0.2551  0.1524
 6797TIP3    H142026   5.124   5.957   1.438  0.5677 -1.0067  0.0466
 6797TIP3    H242027   5.012   5.995   1.343  0.2131 -0.4981  0.6633
 6798TIP3   OH242028   5.259   5.301   1.361  0.7910 -0.1830 -0.0793
 6798TIP3    H142029   5.226   5.329   1.446  0.1523 -1.8070  0.2324
 6798TIP3    H242030   5.337   5.249   1.381 -0.5416 -2.3485 -0.2920
 6799TIP3   OH242031   4.177   5.439   1.677  0.0472  0.5265 -0.5483
 6799TIP3    H142032   4.222   5.492   1.612  1.0478  0.1714 -0.1633
 6799TIP3    H242033   4.153   5.359   1.630 -0.3549  0.7912 -0.8007
 6800TIP3   OH242034   6.664   3.605   7.971  0.2297  0.2887  0.7820
 6800TIP3    H142035   6.590   3.623   7.913 -1.0725 -0.5269  2.1538
 6800TIP3    H242036   6.638   3.528   8.021  1.0465  1.3165  2.8747
 6801TIP3   OH242037   6.541   6.103   1.613  0.9301 -0.0161  0.4494
 6801TIP3    H142038   6.577   6.096   1.702  2.0204 -0.3852 -0.0068
 6801TIP3    H242039   6.533   6.198   1.598  0.3298  0.0411  1.0944
 6802TIP3   OH242040   6.763   5.634   7.175 -0.3148  0.0278 -0.3741
 6802TIP3    H142041   6.710   5.566   7.215  0.6315  0.5847  1.8778
 6802TIP3    H242042   6.793   5.596   7.092 -1.5734 -1.4523 -0.1718
 6803TIP3   OH242043   5.988   5.692   1.552 -0.2517  0.3561  0.4292
 6803TIP3    H142044   6.015   5.616   1.603 -0.8371  0.4117  0.8225
 6803TIP3    H242045   6.059   5.755   1.564 -0.7107  0.6305  1.7450
 6804TIP3   OH242046   1.449   3.993   7.135 -0.0507 -0.1279 -0.2864
 6804TIP3    H142047   1.466   4.052   7.208 -2.7428  3.5423 -2.4451
 6804TIP3    H242048   1.536   3.971   7.101  1.0914  0.5927  2.0753
 6805TIP3   OH242049   2.668   0.142   8.418 -0.2626 -0.1298 -0.0985
 6805TIP3    H142050   2.686   0.151   8.325 -2.1644  0.1781 -0.4503
 6805TIP3    H242051   2.713   0.216   8.459  1.9094 -1.1426 -0.5461
 6806TIP3   OH242052   6.709   5.321   1.050 -0.8337  0.1645 -0.1992
 6806TIP3    H142053   6.618   5.309   1.079 -1.4407  0.8350 -1.7703
 6806TIP3    H242054   6.716   5.268   0.971  0.5795 -1.0211  0.7056
 6807TIP3   OH242055   6.464   0.903   2.132  0.2686  0.5307 -0.2567
 6807TIP3    H142056   6.484   0.996   2.142 -0.5494  0.6644  0.1824
 6807TIP3    H242057   6.369   0.898   2.144  0.3531 -0.4003  0.0301
 6808TIP3   OH242058   7.319   5.337   7.476 -0.0847  0.2550 -0.7801
 6808TIP3    H142059   7.379   5.318   7.403 -0.0654 -0.5901 -0.5527
 6808TIP3    H242060   7.365   5.402   7.529  0.0458  0.6244 -1.3425
 6809TIP3   OH242061   5.029   6.666   2.066  0.6910 -0.2871 -0.4656
 6809TIP3    H142062   5.017   6.732   1.997  0.0730 -0.1043 -0.1893
 6809TIP3    H242063   5.055   6.717   2.142 -1.1798 -0.1877  0.1394
 6810TIP3   OH242064   0.105   5.287   1.697 -0.2100 -0.4491  0.2530
 6810TIP3    H142065   0.109   5.382   1.693  0.6824 -0.5301 -1.1643
 6810TIP3    H242066   0.129   5.265   1.787 -1.9574  0.7187  1.0332
 6811TIP3   OH242067   7.252   4.728   2.449  0.0475 -0.8294  0.7637
 6811TIP3    H142068   7.202   4.782   2.511 -0.6017 -0.1981 -0.2975
 6811TIP3    H242069   7.307   4.791   2.402 -0.7188 -1.0807 -0.4838
 6812TIP3   OH242070   5.887   0.780   7.457  0.5462 -0.6492 -0.8084
 6812TIP3    H142071   5.796   0.803   7.437  0.6559  1.2897  0.7745
 6812TIP3    H242072   5.934   0.863   7.450  1.6166 -1.0338  1.6112
 6813TIP3   OH242073   4.650   5.860   1.376 -0.0380  0.5832  0.5189
 6813TIP3    H142074   4.694   5.782   1.411 -0.7523 -0.0596  0.0121
 6813TIP3    H242075   4.565   5.861   1.421 -0.3525  0.6118 -0.0711
 6814TIP3   OH242076   2.385   6.189   0.374 -0.6933 -0.1273  0.2653
 6814TIP3    H142077   2.389   6.248   0.449 -0.3703  0.3222 -0.1108
 6814TIP3    H242078   2.319   6.123   0.399 -1.4394  0.6881  0.4545
 6815TIP3   OH242079   5.939   0.801   1.356 -0.6800 -0.1586 -0.3711
 6815TIP3    H142080   5.994   0.723   1.356  0.0031  0.2771  1.7764
 6815TIP3    H242081   5.910   0.810   1.447 -0.8323  2.0097 -0.5999
 6816TIP3   OH242082   6.238   4.675   0.716 -0.4276 -0.5012  0.0430
 6816TIP3    H142083   6.283   4.696   0.797  1.5943 -0.8556 -0.9665
 6816TIP3    H242084   6.235   4.580   0.713  1.0605 -0.5443 -1.0909
 6817TIP3   OH242085   6.986   5.985   8.474 -0.2924  0.0491  0.1829
 6817TIP3    H142086   6.986   5.954   8.384  1.3410 -0.4869  0.3653
 6817TIP3    H242087   6.984   6.080   8.467  1.8669  0.0698 -0.4492
 6818TIP3   OH242088   5.805   3.383   1.605 -0.4593  0.0154 -0.1851
 6818TIP3    H142089   5.743   3.416   1.671 -0.4214 -0.4313  0.0735
 6818TIP3    H242090   5.876   3.447   1.606 -0.4831  0.0392  0.1699
 6819TIP3   OH242091   5.711   0.260   1.820  0.2338  1.0381  0.5570
 6819TIP3    H142092   5.741   0.206   1.893  0.1079  1.4318  0.9041
 6819TIP3    H242093   5.641   0.315   1.857 -2.6691 -1.5560 -0.7915
 6820TIP3   OH242094   1.394   5.279   0.169 -0.0278 -0.0401  0.0630
 6820TIP3    H142095   1.310   5.278   0.123 -0.6293 -0.0001  1.1525
 6820TIP3    H242096   1.456   5.241   0.107 -0.6445  0.8860 -1.1485
 6821TIP3   OH242097   0.107   6.841   1.779  0.3702 -0.2199  0.0841
 6821TIP3    H142098   0.097   6.824   1.873  0.6969 -1.2814 -0.0620
 6821TIP3    H242099   0.193   6.882   1.771  1.5338 -2.6135 -0.0357
 6822TIP3   OH242100   6.307   0.381   1.625  0.4811  0.0692  0.5815
 6822TIP3    H142101   6.250   0.329   1.682 -2.9733  0.7525 -2.0614
 6822TIP3    H242102   6.330   0.322   1.554  2.3059  0.0987  1.1383
 6823TIP3   OH242103   7.285   6.365   1.542 -0.1566  0.5712 -0.0401
 6823TIP3    H142104   7.224   6.376   1.470  1.0509  0.3508 -1.1101
 6823TIP3    H242105   7.249   6.292   1.593 -0.3037 -0.1489 -1.1639
 6824TIP3   OH242106   5.750   6.452   2.323 -0.3554  0.1116  0.0491
 6824TIP3    H142107   5.678   6.515   2.327 -0.3879  0.1992 -1.7576
 6824TIP3    H242108   5.829   6.506   2.333 -0.4854  0.1572  0.8411
 6825TIP3   OH242109   5.747   7.174   0.632  0.0043  0.3962  0.5576
 6825TIP3    H142110   5.809   7.114   0.675  1.9059 -0.5731 -3.3005
 6825TIP3    H242111   5.670   7.119   0.614  0.2063  0.1469  0.4517
 6826TIP3   OH242112   7.316   6.053   2.200  0.3658  0.7177 -1.1821
 6826TIP3    H142113   7.269   6.094   2.128 -0.5195 -1.0763 -1.6806
 6826TIP3    H242114   7.281   5.963   2.203  0.4541  0.7120  1.3843
 6827TIP3   OH242115   5.527   5.464   6.775  0.1538 -0.2678  0.1298
 6827TIP3    H142116   5.520   5.547   6.726 -1.1384  0.8124  2.0725
 6827TIP3    H242117   5.510   5.396   6.709  1.6975  0.9693 -1.5864
 6828TIP3   OH242118   5.639   5.638   2.045 -0.4749 -0.0235  0.0065
 6828TIP3    H142119   5.633   5.583   2.122 -0.8359 -0.9002 -0.6434
 6828TIP3    H242120   5.569   5.702   2.055  0.0929  0.4744  0.8735
 6829TIP3   OH242121   5.492   2.611   1.338 -0.2071  0.1158  0.4581
 6829TIP3    H142122   5.501   2.674   1.266 -0.4724  0.7397  0.9737
 6829TIP3    H242123   5.447   2.659   1.407 -3.2844 -1.4952 -0.2878
 6830TIP3   OH242124   5.409   6.011   1.623  0.5000 -0.0405 -0.3926
 6830TIP3    H142125   5.434   5.963   1.544 -2.2064 -0.4954 -1.0084
 6830TIP3    H242126   5.409   5.944   1.692  0.1503 -0.2259 -0.5687
 6831TIP3   OH242127   5.106   1.002   0.600 -0.4731  0.7275 -0.0367
 6831TIP3    H142128   5.023   0.982   0.556 -1.1402  0.8692  1.1515
 6831TIP3    H242129   5.082   1.020   0.690  0.9085  0.3375  0.4240
 6832TIP3   OH242130   6.905   7.158   8.462  0.0168 -0.2694 -0.6266
 6832TIP3    H142131   6.918   7.232   8.402  1.7172  0.1581  0.2442
 6832TIP3    H242132   6.821   7.177   8.504 -0.4486  0.2148 -1.7399
 6833TIP3   OH242133   5.474   3.939   2.137  0.0354  0.1484  0.0089
 6833TIP3    H142134   5.385   3.945   2.101 -0.3910 -1.8501  0.6206
 6833TIP3    H242135   5.468   3.870   2.203  1.2136  2.5183  2.6759
 6834TIP3   OH242136   6.889   0.132   7.517  0.0103  0.0746 -0.0749
 6834TIP3    H142137   6.835   0.054   7.512 -1.0944  0.6714  1.8006
 6834TIP3    H242138   6.856   0.179   7.594  1.6807  1.5991 -0.2460
 6835TIP3   OH242139   6.948   5.939   8.177  0.5545 -0.0487 -0.3782
 6835TIP3    H142140   7.019   5.929   8.113  1.2364  0.9304  0.2247
 6835TIP3    H242141   6.898   5.858   8.169  3.4033 -2.0276  1.2473
 6836TIP3   OH242142   7.173   5.128   8.163  0.4848 -0.5163  0.1924
 6836TIP3    H142143   7.170   5.179   8.082  0.1287  0.8768  1.0528
 6836TIP3    H242144   7.253   5.076   8.156 -0.9360 -2.4863 -2.2366
 6837TIP3   OH242145   6.594   5.631   0.791  0.7296 -0.2094  0.6018
 6837TIP3    H142146   6.623   5.710   0.745  0.7029  1.5922  3.5835
 6837TIP3    H242147   6.666   5.608   0.849  0.3576 -1.8571  0.4383
 6838TIP3   OH242148   3.165   6.833   0.973 -0.2548 -0.5524  0.0334
 6838TIP3    H142149   3.093   6.778   1.005  1.0989 -1.4746  1.6118
 6838TIP3    H242150   3.243   6.779   0.986  0.8617  0.9160 -0.4527
 6839TIP3   OH242151   5.297   3.082   1.635  0.1830 -0.6477  0.4722
 6839TIP3    H142152   5.329   3.172   1.629  0.2972 -0.6316  1.3480
 6839TIP3    H242153   5.204   3.089   1.612 -0.2786 -0.0048  2.4492
 6840TIP3   OH242154   6.190   5.882   8.305 -0.1425  0.1623 -0.3245
 6840TIP3    H142155   6.168   5.951   8.243 -1.2261 -0.5123 -0.6972
 6840TIP3    H242156   6.138   5.806   8.277  1.4135 -0.9675 -0.2313
 6841TIP3   OH242157   4.537   5.769   1.013  0.8447 -0.1408  0.2371
 6841TIP3    H142158   4.493   5.794   1.095  1.2797 -0.7567  0.6668
 6841TIP3    H242159   4.578   5.849   0.982  0.7774  0.0681  0.6876
 6842TIP3   OH242160   2.007   5.367   1.338 -0.4573 -0.5431 -0.8039
 6842TIP3    H142161   1.923   5.407   1.314 -0.5352 -0.6847 -0.7686
 6842TIP3    H242162   2.002   5.356   1.433 -0.7363 -1.3084 -0.8999
 6843TIP3   OH242163   4.759   6.256   0.490  0.7186 -0.5865 -0.3313
 6843TIP3    H142164   4.699   6.182   0.487 -0.0997 -0.0282  1.4987
 6843TIP3    H242165   4.718   6.318   0.551  2.2999  0.5551 -0.3897
 6844TIP3   OH242166   6.580   0.446   0.771 -0.3000 -0.3464 -0.4221
 6844TIP3    H142167   6.577   0.351   0.782 -1.0861 -0.3285 -0.4740
 6844TIP3    H242168   6.673   0.465   0.756  0.0533 -0.9444  0.9666
 6845TIP3   OH242169   6.091   4.819   1.968 -0.1793  0.7367  0.1875
 6845TIP3    H142170   6.018   4.823   2.030  0.3156 -0.9454  0.9139
 6845TIP3    H242171   6.074   4.740   1.917  1.5687 -0.1531  0.9394
 6846TIP3   OH242172   1.105   0.643   7.314 -0.4274 -0.1066 -0.0613
 6846TIP3    H142173   1.022   0.682   7.286  0.1877  1.6902  0.5449
 6846TIP3    H242174   1.079   0.569   7.369 -1.6212 -0.7259 -1.4040
 6847TIP3   OH242175   6.642   6.786   2.331  0.0856 -0.1132 -0.0017
 6847TIP3    H142176   6.571   6.781   2.395 -0.3481 -0.6964 -0.5191
 6847TIP3    H242177   6.600   6.822   2.253  0.7491  1.1980  0.2372
 6848TIP3   OH242178   1.147   6.289   0.351 -0.6327  0.3814 -0.0401
 6848TIP3    H142179   1.144   6.332   0.266 -2.6039  0.0252 -0.1746
 6848TIP3    H242180   1.120   6.357   0.413  0.8495  0.6551  0.3224
 6849TIP3   OH242181   3.703   0.425   0.967  0.1962 -0.5520 -0.4654
 6849TIP3    H142182   3.775   0.450   1.025  0.5810 -0.9778 -0.7596
 6849TIP3    H242183   3.737   0.352   0.917 -0.4228 -0.7101 -0.6548
 6850TIP3   OH242184   5.885   0.318   7.798 -0.1302  0.2008 -0.4036
 6850TIP3    H142185   5.909   0.268   7.720  1.1671  0.0515  0.0798
 6850TIP3    H242186   5.896   0.256   7.870  1.4841  1.1639  0.2055
 6851TIP3   OH242187   2.794   0.755   6.946 -0.8743  0.1006 -0.1734
 6851TIP3    H142188   2.760   0.827   6.893  1.5901  0.4030 -1.3890
 6851TIP3    H242189   2.863   0.794   6.999  1.0464 -1.4652 -1.4125
 6852TIP3   OH242190   5.027   0.032   0.600  0.3574 -0.3328 -0.2947
 6852TIP3    H142191   4.945   0.079   0.617  0.3607 -0.3733 -0.1743
 6852TIP3    H242192   5.093   0.101   0.593  0.5278 -0.3748  0.8006
 6853TIP3   OH242193   0.358   6.149   7.791 -0.8103  0.0341 -0.3010
 6853TIP3    H142194   0.308   6.209   7.847 -0.3958  0.6823 -0.6117
 6853TIP3    H242195   0.325   6.166   7.703 -1.3472 -0.8654 -0.2781
 6854TIP3   OH242196   5.951   5.330   1.923 -0.4948  0.2024  0.6946
 6854TIP3    H142197   5.964   5.235   1.919  1.3943  0.3673  2.0995
 6854TIP3    H242198   5.977   5.354   2.012 -3.4790  1.7004  1.2286
 6855TIP3   OH242199   2.936   4.717   8.464 -1.0229 -1.0829  0.5876
 6855TIP3    H142200   2.990   4.640   8.444  0.5940  0.3566 -0.7427
 6855TIP3    H242201   2.877   4.725   8.389 -0.1694 -0.1787 -0.0055
 6856TIP3   OH242202   4.655   1.431   1.701 -0.3617 -0.0675 -0.2425
 6856TIP3    H142203   4.621   1.348   1.734 -0.5826  0.1132 -0.0068
 6856TIP3    H242204   4.622   1.436   1.611 -0.9466  0.0920 -0.0247
 6857TIP3   OH242205   5.623   5.937   0.959 -0.3924 -0.0315 -0.3331
 6857TIP3    H142206   5.610   6.023   0.920  0.4854 -0.8560 -2.5212
 6857TIP3    H242207   5.551   5.884   0.926 -1.3893  0.0308  1.6420
 6858TIP3   OH242208   6.435   7.014   2.413  0.1115 -0.2264  0.6715
 6858TIP3    H142209   6.452   6.962   2.492  1.4755  0.1193  0.6232
 6858TIP3    H242210   6.380   6.957   2.359 -0.2521 -0.7423  1.5703
 6859TIP3   OH242211   5.213   6.719   0.702  0.1703 -0.8285  0.7743
 6859TIP3    H142212   5.129   6.681   0.727 -0.4614  0.5594  0.8296
 6859TIP3    H242213   5.239   6.672   0.623 -2.3719  1.0336 -1.2646
 6860TIP3   OH242214   5.902   1.225   7.474 -0.1481 -0.3806  0.1144
 6860TIP3    H142215   5.924   1.297   7.414 -1.2090  2.5131  3.0367
 6860TIP3    H242216   5.968   1.158   7.456  1.8462  1.9518 -1.6500
 6861TIP3   OH242217   4.090   0.987   0.632  0.0410  0.3461 -0.2761
 6861TIP3    H142218   4.076   0.978   0.538 -1.0261  0.6912 -0.1516
 6861TIP3    H242219   4.045   0.912   0.671  1.3449 -0.3610 -0.1061
 6862TIP3   OH242220   5.903   5.745   7.440  0.3935  0.3011  0.2097
 6862TIP3    H142221   5.856   5.748   7.524  0.0832  0.1267  0.0426
 6862TIP3    H242222   5.852   5.684   7.387  1.0973 -0.2882  0.2017
 6863TIP3   OH242223   4.053   7.175   7.671  0.4370  0.1149 -0.0210
 6863TIP3    H142224   4.065   7.264   7.639  1.6583  0.1952  0.6440
 6863TIP3    H242225   4.138   7.150   7.707  0.1564 -1.3820 -0.3483
 6864TIP3   OH242226   2.275   0.733   1.875  0.2392  0.2853  0.0129
 6864TIP3    H142227   2.353   0.761   1.923  1.4162  0.9124 -2.2166
 6864TIP3    H242228   2.251   0.809   1.823 -1.2433 -0.2666 -0.1255
 6865TIP3   OH242229   5.955   1.067   2.390 -0.2378  0.1308  0.5627
 6865TIP3    H142230   5.892   1.078   2.461  2.1447  2.6245  2.3911
 6865TIP3    H242231   6.009   0.992   2.417  0.8247  1.2313  1.5622
 6866TIP3   OH242232   4.343   0.389   0.303 -0.0749  0.6632 -0.6511
 6866TIP3    H142233   4.318   0.297   0.307 -1.5152  1.1067  1.2171
 6866TIP3    H242234   4.264   0.437   0.326  0.9211  2.3544 -0.6118
 6867TIP3   OH242235   7.149   0.247   2.012 -0.3424  0.7855 -0.0126
 6867TIP3    H142236   7.213   0.176   2.021 -0.0873  1.1366  1.0754
 6867TIP3    H242237   7.076   0.220   2.066  0.6653  2.3449  2.2151
 6868TIP3   OH242238   3.841   6.205   0.849 -0.1467  0.3909  0.3426
 6868TIP3    H142239   3.906   6.225   0.782  1.0242  0.3665  1.4316
 6868TIP3    H242240   3.786   6.283   0.853 -1.4896 -0.4184 -2.0483
 6869TIP3   OH242241   6.820   5.640   8.139 -0.5130 -0.0140 -0.5538
 6869TIP3    H142242   6.747   5.599   8.092 -0.7692  0.4127 -0.5341
 6869TIP3    H242243   6.788   5.649   8.229 -0.6939  0.7875 -0.6948
 6870TIP3   OH242244   6.030   6.301   8.373 -0.1269  0.0543 -0.3106
 6870TIP3    H142245   6.035   6.286   8.279 -1.1837 -0.9371 -0.2086
 6870TIP3    H242246   6.093   6.239   8.411  0.6336  0.7648 -0.3766
 6871TIP3   OH242247   0.063   0.547   0.692  0.3943 -0.1999  0.3762
 6871TIP3    H142248   0.074   0.483   0.762 -0.8382 -0.3349  0.4644
 6871TIP3    H242249   0.067   0.632   0.736 -0.6291 -0.2902  0.6515
 6872TIP3   OH242250   6.302   5.876   2.678 -0.0524 -0.4981  0.4949
 6872TIP3    H142251   6.389   5.835   2.682  0.7005  1.0225  0.1210
 6872TIP3    H242252   6.272   5.860   2.588  0.2898 -0.1669  0.3162
 6873TIP3   OH242253   0.012   6.265   8.085  0.0814  0.5386  1.2359
 6873TIP3    H142254  -0.045   6.328   8.129 -0.8449  0.6954 -0.1272
 6873TIP3    H242255   0.095   6.271   8.131  0.1167  3.0104  0.9312
 6874TIP3   OH242256   6.582   0.443   1.673  0.0990 -0.2014 -0.0011
 6874TIP3    H142257   6.490   0.457   1.652  1.0896  1.3100 -3.8423
 6874TIP3    H242258   6.597   0.350   1.655 -0.3580 -0.1197 -0.8228
 6875TIP3   OH242259   6.176   5.786   2.454 -0.1669 -0.0516  0.6797
 6875TIP3    H142260   6.217   5.763   2.371  0.8317  0.6109  0.9761
 6875TIP3    H242261   6.120   5.711   2.475  0.9062 -0.9761  0.2668
 6876TIP3   OH242262   5.824   6.335   0.110 -0.0409 -0.2420  0.0877
 6876TIP3    H142263   5.828   6.385   0.029  0.0679 -1.4832 -0.6905
 6876TIP3    H242264   5.911   6.341   0.148  0.3681 -0.9761 -0.7134
 6877TIP3   OH242265   6.828   5.409   7.034  0.2661  0.0651 -0.1809
 6877TIP3    H142266   6.868   5.394   7.120  0.8881 -3.0573 -0.9403
 6877TIP3    H242267   6.799   5.322   7.006 -0.9116  1.2092 -2.6538
 6878TIP3   OH242268   0.852   6.224   8.121 -0.1464  0.2096 -0.0625
 6878TIP3    H142269   0.896   6.183   8.196 -0.3308 -0.7644 -0.4733
 6878TIP3    H242270   0.882   6.315   8.122 -0.6662  0.3835  1.5843
 6879TIP3   OH242271   1.292   6.995   1.860  0.4651  0.7853  0.3142
 6879TIP3    H142272   1.323   6.945   1.936  2.4700  0.8206 -0.4433
 6879TIP3    H242273   1.354   7.068   1.853  1.0572  0.0825 -2.0824
 6880TIP3   OH242274   6.222   5.918   0.076 -0.1321  0.4211  0.2477
 6880TIP3    H142275   6.209   5.920  -0.019  0.2867  1.1497  0.2087
 6880TIP3    H242276   6.260   5.832   0.092  1.4976  0.9939 -0.4624
 6881TIP3   OH242277   5.325   4.320   2.440  0.3297  0.5584  0.0632
 6881TIP3    H142278   5.313   4.414   2.436 -3.2065  0.1909  0.5374
 6881TIP3    H242279   5.260   4.284   2.379 -0.3584 -1.6578  2.0186
 6882TIP3   OH242280   6.409   6.056   7.293  0.1465  0.6081  0.0145
 6882TIP3    H142281   6.438   6.146   7.276 -1.4912  1.0997 -0.3209
 6882TIP3    H242282   6.390   6.021   7.206 -0.0922  0.2577  0.2079
 6883TIP3   OH242283   1.137   0.208   1.577  0.1590  0.9324  0.2075
 6883TIP3    H142284   1.087   0.237   1.653 -0.1392  1.1783 -0.0827
 6883TIP3    H242285   1.227   0.235   1.596  0.3134 -0.1278  1.0451
 6884TIP3   OH242286   3.326   1.094   1.546  0.1331  0.2380  0.8915
 6884TIP3    H142287   3.306   1.182   1.513 -0.1024 -0.5547 -1.1489
 6884TIP3    H242288   3.255   1.075   1.608  1.1752  2.1798  2.7271
 6885TIP3   OH242289   6.274   4.778   0.455  0.0625  0.1397  0.7739
 6885TIP3    H142290   6.261   4.734   0.539 -1.3150 -4.0549 -1.4630
 6885TIP3    H242291   6.189   4.774   0.412  1.4773 -0.8779 -2.1125
 6886TIP3   OH242292   5.909   6.581   0.945  0.4847 -0.1513 -0.3661
 6886TIP3    H142293   5.879   6.546   1.029  1.3713 -0.1115 -0.0265
 6886TIP3    H242294   5.840   6.641   0.917  0.1293 -0.2681  0.2683
 6887TIP3   OH242295   0.296   1.347   1.833  0.1389  0.1241  0.2548
 6887TIP3    H142296   0.248   1.318   1.911 -2.2565  0.9020 -0.8965
 6887TIP3    H242297   0.282   1.278   1.769 -1.5859  1.5194 -0.9156
 6888TIP3   OH242298   5.311   5.028   0.318 -0.1644  0.3409  0.0528
 6888TIP3    H142299   5.354   4.955   0.274 -0.6700 -1.0308  1.7887
 6888TIP3    H242300   5.371   5.051   0.389 -0.4140  1.0621  0.0331
 6889TIP3   OH242301   6.674   6.707   1.606  0.1016  0.4138  0.2171
 6889TIP3    H142302   6.645   6.635   1.662 -0.2505  0.2529 -0.1700
 6889TIP3    H242303   6.757   6.736   1.645  1.0402 -1.2083 -0.5046
 6890TIP3   OH242304   1.763   5.535   1.591 -0.0054  0.0509  0.3188
 6890TIP3    H142305   1.701   5.475   1.549 -1.1358 -1.4892  3.9897
 6890TIP3    H242306   1.845   5.487   1.595  1.5546  2.0653 -4.4786
 6891TIP3   OH242307   7.050   0.398   7.423 -0.2078 -0.3762 -0.5728
 6891TIP3    H142308   6.965   0.396   7.468 -1.2340 -2.9487 -2.5093
 6891TIP3    H242309   7.028   0.420   7.333  1.3026 -0.2518 -0.9181
 6892TIP3   OH242310   6.601   5.134   8.206 -0.1823 -0.1045  0.5587
 6892TIP3    H142311   6.602   5.222   8.168  0.7799 -0.0142  0.7620
 6892TIP3    H242312   6.568   5.078   8.136 -1.6635  0.5407  0.7247
 6893TIP3   OH242313   6.511   2.936   0.586  0.0817 -0.6215  0.1784
 6893TIP3    H142314   6.542   3.021   0.554  0.7317 -0.7376  0.4894
 6893TIP3    H242315   6.425   2.925   0.546 -0.0395  0.2217  0.2035
 6894TIP3   OH242316   0.736   5.056   0.985 -0.5711 -0.4275  0.3350
 6894TIP3    H142317   0.724   5.039   0.892 -1.1240 -2.1377  0.6929
 6894TIP3    H242318   0.788   5.136   0.989 -3.0576  1.3259 -1.3949
 6895TIP3   OH242319   0.316   6.265   8.142 -0.0717  0.2150 -0.6023
 6895TIP3    H142320   0.324   6.340   8.083 -0.5451  1.8701  1.4015
 6895TIP3    H242321   0.406   6.235   8.156  0.3186  1.7956  0.3327
 6896TIP3   OH242322   5.452   5.262   0.175  0.3797 -0.5465  0.1648
 6896TIP3    H142323   5.420   5.218   0.253  1.8128 -0.9976  0.5166
 6896TIP3    H242324   5.488   5.345   0.207 -0.1918 -0.1541 -0.1912
 6897TIP3   OH242325   3.894   5.214   0.256 -0.1130  0.0781 -0.4804
 6897TIP3    H142326   3.819   5.273   0.257  0.8999  1.3883  0.3120
 6897TIP3    H242327   3.898   5.180   0.345  0.2422  0.0217 -0.5191
 6898TIP3   OH242328   2.037   0.168   7.593  0.3922  0.6499  0.2576
 6898TIP3    H142329   2.072   0.254   7.617  1.9817  0.0401  0.1522
 6898TIP3    H242330   2.090   0.106   7.644 -0.6370 -0.2785  0.2071
 6899TIP3   OH242331   4.737   5.162   1.675  0.2195 -0.8232  0.0114
 6899TIP3    H142332   4.815   5.156   1.729  0.0960 -0.1036  0.2717
 6899TIP3    H242333   4.665   5.171   1.737  0.0686 -0.0694 -0.2678
 6900TIP3   OH242334   3.104   0.752   0.980  0.0074 -0.0413  0.1388
 6900TIP3    H142335   3.158   0.831   0.987  0.3763 -0.1250 -1.5334
 6900TIP3    H242336   3.143   0.702   0.908 -2.4913  0.0576 -1.3497
 6901TIP3   OH242337   2.007   5.762   0.228  0.1785  0.0493  0.2310
 6901TIP3    H142338   2.032   5.830   0.291 -0.6594 -0.5072  1.1746
 6901TIP3    H242339   2.038   5.681   0.267  0.7066 -0.1836 -0.6481
 6902TIP3   OH242340   6.704   2.593   1.186  0.2721  0.3482 -0.2554
 6902TIP3    H142341   6.765   2.636   1.246  1.0770 -0.1857 -0.6898
 6902TIP3    H242342   6.631   2.654   1.180  0.1838  0.4218  1.2521
 6903TIP3   OH242343   1.334   0.227   6.551  0.0978  0.3893 -0.0836
 6903TIP3    H142344   1.266   0.172   6.513 -0.7987  1.0739  0.5185
 6903TIP3    H242345   1.372   0.273   6.475  1.3791 -1.5975 -0.6856
 6904TIP3   OH242346   4.776   6.034   0.895 -0.0892  0.9836  0.0870
 6904TIP3    H142347   4.814   6.122   0.901 -0.1693  1.0272 -0.0368
 6904TIP3    H242348   4.763   6.019   0.801 -0.3517  0.9610  0.1245
 6905TIP3   OH242349   5.816   6.931   1.157 -0.1805  0.5474 -0.2501
 6905TIP3    H142350   5.816   7.022   1.187  0.5189  0.9633 -1.4527
 6905TIP3    H242351   5.865   6.883   1.224  0.8079  1.3469 -0.3824
 6906TIP3   OH242352   5.124   0.979   2.008 -0.4503 -0.4597 -0.0489
 6906TIP3    H142353   5.164   0.894   1.987 -0.4566 -0.4910  0.0652
 6906TIP3    H242354   5.098   0.971   2.100  1.1534  0.3024  0.4911
 6907TIP3   OH242355   3.419   0.728   7.925  0.1889 -0.5044 -0.7680
 6907TIP3    H142356   3.446   0.654   7.869  0.8189 -1.1079  0.3126
 6907TIP3    H242357   3.343   0.695   7.972 -0.4909  0.0914 -1.4457
 6908TIP3   OH242358   2.310   0.382   8.350 -0.0388  0.3950  0.1484
 6908TIP3    H142359   2.241   0.354   8.291  0.3181 -1.9233  0.7787
 6908TIP3    H242360   2.331   0.304   8.401  0.0380  2.1711  2.9670
 6909TIP3   OH242361   1.451   5.961   0.247 -0.2171 -0.1688  0.7804
 6909TIP3    H142362   1.370   5.990   0.289  0.6579  3.0746  0.3151
 6909TIP3    H242363   1.521   6.001   0.298  1.0313 -0.6365 -0.5069
 6910TIP3   OH242364   6.247   5.261   0.198 -0.3494 -0.1572 -0.2653
 6910TIP3    H142365   6.214   5.329   0.258 -1.9892  1.8404 -3.3127
 6910TIP3    H242366   6.201   5.181   0.225 -0.8532  0.6473  1.3132
 6911TIP3   OH242367   4.973   5.289   6.597 -0.0549  0.0191 -0.0924
 6911TIP3    H142368   4.959   5.349   6.524  1.8600 -0.9341 -1.2787
 6911TIP3    H242369   5.021   5.215   6.559  1.6882 -0.1311  2.2696
 6912TIP3   OH242370   5.440   5.891   7.163 -0.1194 -0.0659  0.3268
 6912TIP3    H142371   5.449   5.966   7.105 -1.0120 -1.3969 -1.5750
 6912TIP3    H242372   5.352   5.897   7.198  0.2751  0.5049  1.2456
 6913TIP3   OH242373   5.585   5.033   0.944 -0.2145  0.1083  0.4369
 6913TIP3    H142374   5.567   5.100   1.009 -0.6803 -1.3854  1.8813
 6913TIP3    H242375   5.524   5.052   0.873 -1.4672  0.2713  1.5365
 6914TIP3   OH242376   5.332   4.139   0.663 -0.1282  0.5406  0.7104
 6914TIP3    H142377   5.266   4.129   0.731  0.4929 -4.4150  0.7597
 6914TIP3    H242378   5.411   4.101   0.701  0.8975  0.0808 -1.8094
 6915TIP3   OH242379   7.135   4.893   8.435  0.1882 -0.6473 -0.6370
 6915TIP3    H142380   7.178   4.978   8.425  3.4443 -2.4534 -3.1885
 6915TIP3    H242381   7.065   4.894   8.369  0.4452 -0.0565 -0.9046
 6916TIP3   OH242382   3.905   4.226   1.534  0.2604  0.2982 -0.1220
 6916TIP3    H142383   3.883   4.297   1.594  1.0028  0.9238 -0.5890
 6916TIP3    H242384   3.835   4.227   1.469 -0.9173 -0.8091  1.0734
 6917TIP3   OH242385   7.162   6.448   0.611 -0.1890  0.3083  0.0708
 6917TIP3    H142386   7.186   6.490   0.528  0.7420 -0.3259  0.0133
 6917TIP3    H242387   7.209   6.499   0.677 -0.6415  0.5861  0.1816
 6918TIP3   OH242388   5.189   5.383   6.759 -0.2953  0.2776 -0.6703
 6918TIP3    H142389   5.117   5.337   6.715  0.8492 -0.6303 -1.6420
 6918TIP3    H242390   5.255   5.395   6.691  1.9118 -1.9585  0.9613
 6919TIP3   OH242391   3.004   6.399   0.235 -0.0507  0.1105  0.4758
 6919TIP3    H142392   3.009   6.320   0.288  0.9664  0.7005  1.2739
 6919TIP3    H242393   2.919   6.394   0.191 -0.2250 -1.1423  0.9563
 6920TIP3   OH242394   0.890   6.767   2.178  0.1711 -0.5360 -0.2903
 6920TIP3    H142395   0.837   6.707   2.231 -0.7072 -2.1447 -2.8930
 6920TIP3    H242396   0.980   6.751   2.207 -0.3727 -0.7206  1.3394
 6921TIP3   OH242397   7.107   5.228   2.625  0.7442  0.0170  0.6632
 6921TIP3    H142398   7.132   5.306   2.574 -0.6059  0.4458  0.6362
 6921TIP3    H242399   7.022   5.251   2.663  0.3891 -1.4081  0.7441
 6922TIP3   OH242400   1.569   4.946   0.903  0.2472  0.6449  0.2534
 6922TIP3    H142401   1.518   5.020   0.871  0.0868  0.9954  1.2787
 6922TIP3    H242402   1.637   4.932   0.837  0.9886  2.4647  0.5971
 6923TIP3   OH242403   6.166   0.273   2.189  0.1945 -0.1992 -0.1574
 6923TIP3    H142404   6.184   0.287   2.096  0.8449 -0.6843 -0.1122
 6923TIP3    H242405   6.238   0.217   2.219 -0.4531 -0.7292  0.4427
 6924TIP3   OH242406   0.366   0.869   1.871  0.1286  0.1333  0.1557
 6924TIP3    H142407   0.390   0.958   1.842  1.5936 -0.1021  0.5931
 6924TIP3    H242408   0.445   0.817   1.853 -0.6458 -1.0265  0.1236
 6925TIP3   OH242409   0.074   0.211   2.286 -0.6324 -0.0880 -0.1567
 6925TIP3    H142410   0.111   0.223   2.373  0.7429  0.6982 -0.8471
 6925TIP3    H242411  -0.021   0.210   2.300 -0.4036 -0.2325  1.3750
 6926TIP3   OH242412   1.073   0.978   2.637 -0.2412 -0.0279 -0.1507
 6926TIP3    H142413   1.058   1.029   2.717  1.5899 -1.1123  0.9312
 6926TIP3    H242414   1.029   0.895   2.653 -1.6438  0.5047 -1.1498
 6927TIP3   OH242415   0.267   1.080   1.395  0.3904 -0.8755 -0.0869
 6927TIP3    H142416   0.196   1.130   1.436  0.1325 -0.9380 -0.4499
 6927TIP3    H242417   0.346   1.105   1.444  0.2423 -0.2271 -0.1789
 6928TIP3   OH242418   6.929   0.177   2.529 -0.1714  0.5209  0.4878
 6928TIP3    H142419   6.862   0.109   2.539  0.8143 -0.7163 -0.9881
 6928TIP3    H242420   6.880   0.256   2.504 -1.3030  0.2970  1.9612
 6929TIP3   OH242421   3.094   0.911   7.997 -0.5891  0.2081 -0.0350
 6929TIP3    H142422   3.094   0.995   7.951 -0.4179  0.2135 -0.0277
 6929TIP3    H242423   3.052   0.850   7.937  1.4814 -0.2570 -1.0760
 6930TIP3   OH242424   6.541   2.391   2.328 -0.0647 -0.8626 -0.4929
 6930TIP3    H142425   6.618   2.334   2.332 -0.4807 -1.4136 -0.3015
 6930TIP3    H242426   6.487   2.365   2.403 -0.3925 -0.4093 -0.5647
 6931TIP3   OH242427   0.682   2.587   1.698  0.1936 -0.4689 -0.0215
 6931TIP3    H142428   0.705   2.676   1.672 -0.5365  0.3035  1.8336
 6931TIP3    H242429   0.590   2.577   1.671  0.8525 -1.4003 -2.0217
 6932TIP3   OH242430   2.445   7.001   1.827  0.8455 -0.2892 -0.2376
 6932TIP3    H142431   2.486   7.080   1.791  0.9600  0.5816  1.7200
 6932TIP3    H242432   2.507   6.971   1.894  0.4629 -1.6462 -0.4817
 6933TIP3   OH242433   0.960   0.828   2.229 -0.0630  0.5935 -0.3231
 6933TIP3    H142434   0.994   0.838   2.318 -0.8272  0.9490 -0.0660
 6933TIP3    H242435   1.033   0.789   2.180  0.2214  0.0009  0.5525
 6934TIP3   OH242436   4.957   2.239   1.515  0.8271  0.1210 -0.2719
 6934TIP3    H142437   4.939   2.184   1.439 -0.0813  1.1129 -0.7742
 6934TIP3    H242438   4.886   2.304   1.516 -0.1767 -0.9092  2.3864
 6935TIP3   OH242439   0.904   2.754   1.827 -0.0404 -0.5744  0.4151
 6935TIP3    H142440   0.920   2.673   1.876 -0.2263 -1.8910 -1.6612
 6935TIP3    H242441   0.847   2.805   1.884 -1.6394 -2.7963  0.8564
 6936TIP3   OH242442   1.545   0.421   1.855  0.5048 -0.4849  0.3812
 6936TIP3    H142443   1.612   0.490   1.857 -0.2853  0.2567  1.6769
 6936TIP3    H242444   1.515   0.414   1.945 -0.0122 -1.9628  0.1080
 6937TIP3   OH242445   0.900   0.752   2.640  0.4633  0.2630  0.1369
 6937TIP3    H142446   0.867   0.773   2.728  0.5548 -1.4516  0.5874
 6937TIP3    H242447   0.822   0.736   2.588  0.4141  1.1718 -0.0903
 6938TIP3   OH242448   4.400   7.177   0.916 -0.4261  0.3914  0.3764
 6938TIP3    H142449   4.404   7.103   0.855 -0.9492 -0.9201  1.9098
 6938TIP3    H242450   4.363   7.248   0.865 -0.2409 -0.5000 -1.0272
 6939TIP3   OH242451   4.514   1.228   0.897 -0.2214  0.3795 -0.0453
 6939TIP3    H142452   4.575   1.283   0.946  0.3454 -0.0814 -0.2245
 6939TIP3    H242453   4.566   1.151   0.872 -0.8091  0.0978 -0.4106
 6940TIP3   OH242454   5.240   1.447   1.551 -0.8587 -0.1178  0.2344
 6940TIP3    H142455   5.244   1.476   1.460  0.5821  0.5366  0.4867
 6940TIP3    H242456   5.182   1.511   1.594 -0.6671  0.2132  0.0029
 6941TIP3   OH242457   1.752   0.861   2.648 -0.1156 -0.2612  0.5467
 6941TIP3    H142458   1.766   0.944   2.602 -2.8680  0.5126  0.9663
 6941TIP3    H242459   1.838   0.835   2.678  0.9540  1.9247 -0.4915
 6942TIP3   OH242460   3.379   2.225   1.955  0.0529 -0.6667  0.0199
 6942TIP3    H142461   3.315   2.248   1.887 -0.9773 -1.7047  0.6272
 6942TIP3    H242462   3.333   2.164   2.012  0.3935  1.4358  2.6098
 6943TIP3   OH242463   1.844   4.486   1.887  0.1142 -0.5220  0.1599
 6943TIP3    H142464   1.911   4.500   1.954  0.9323 -0.1961 -0.7279
 6943TIP3    H242465   1.892   4.457   1.810 -0.9710 -2.2413  0.1109
 6944TIP3   OH242466   3.132   1.176   1.819 -0.4178  0.1067  0.4218
 6944TIP3    H142467   3.196   1.156   1.887 -0.4514  1.0994  0.7499
 6944TIP3    H242468   3.072   1.238   1.860 -0.2545  0.9505 -0.6146
 6945TIP3   OH242469   2.903   5.266   0.421 -0.5417 -0.0333 -0.1713
 6945TIP3    H142470   2.923   5.205   0.492 -0.4013 -0.2024 -0.3561
 6945TIP3    H242471   2.860   5.340   0.464 -1.9308 -0.8496 -0.1306
 6946TIP3   OH242472   3.824   2.058   6.586  0.6236 -0.3533 -0.0506
 6946TIP3    H142473   3.856   2.128   6.643 -1.5098 -0.1853  0.9728
 6946TIP3    H242474   3.831   2.094   6.498 -0.3419  1.1043  0.4565
 6947TIP3   OH242475   2.005   0.388   1.470 -0.1537 -0.3707 -0.3688
 6947TIP3    H142476   2.010   0.293   1.461 -1.2597 -0.3133 -1.7696
 6947TIP3    H242477   2.043   0.423   1.389 -1.2316  0.3471 -0.5813
 6948TIP3   OH242478   1.415   6.690   8.291 -0.3250 -0.1190  0.4937
 6948TIP3    H142479   1.424   6.596   8.303  1.2603  0.1745  1.9299
 6948TIP3    H242480   1.452   6.707   8.205 -1.7953 -0.9484 -0.3254
 6949TIP3   OH242481   2.513   1.172   2.032  0.3507 -0.0807  0.1531
 6949TIP3    H142482   2.605   1.166   2.057  0.3848  1.0673  0.3388
 6949TIP3    H242483   2.504   1.113   1.957  0.8806 -1.3907  1.1064
 6950TIP3   OH242484   5.601   0.433   2.025 -0.0786  0.0785 -0.0161
 6950TIP3    H142485   5.572   0.523   2.011  0.2370  0.2291  0.3061
 6950TIP3    H242486   5.523   0.390   2.062 -0.3979  0.0820 -0.6809
 6951TIP3   OH242487   4.223   0.981   1.966  0.4154 -0.3831 -0.5066
 6951TIP3    H142488   4.151   0.967   2.029  0.5168 -0.5170 -0.4207
 6951TIP3    H242489   4.293   1.020   2.018  0.4359 -0.3316 -0.5733
 6952TIP3   OH242490   0.043   6.752   0.592  0.1524 -0.1123  0.1936
 6952TIP3    H142491   0.025   6.682   0.530  0.7243  0.0871 -0.2043
 6952TIP3    H242492   0.126   6.729   0.632 -0.3075 -0.3362  1.0277
 6953TIP3   OH242493   4.587   1.059   2.109 -0.0712  0.5768 -0.9120
 6953TIP3    H142494   4.538   1.080   2.188  1.2009  1.1676 -0.2549
 6953TIP3    H242495   4.565   1.128   2.047 -2.5816 -0.9494 -1.7804
 6954TIP3   OH242496   2.057   7.268   1.807  0.3963  0.1187 -0.0158
 6954TIP3    H142497   2.140   7.284   1.851 -0.4014  0.3101  1.4451
 6954TIP3    H242498   2.072   7.189   1.754  1.6006  0.3708 -0.0602
 6955TIP3   OH242499   5.405   5.098   0.758 -0.3387  0.6265  0.4218
 6955TIP3    H142500   5.363   5.053   0.684  0.5282  1.2378 -0.4619
 6955TIP3    H242501   5.344   5.167   0.782 -0.6749  0.3557  0.3534
 6956TIP3   OH242502   4.608   0.332   2.239  0.0778  0.0687  0.1857
 6956TIP3    H142503   4.560   0.403   2.197  0.3743 -0.7657 -1.5805
 6956TIP3    H242504   4.695   0.368   2.257 -0.2753  0.6479  0.7343
 6957TIP3   OH242505   3.830   2.228   1.370  0.2684 -0.4810 -0.2386
 6957TIP3    H142506   3.906   2.189   1.327  0.7661  0.3064 -0.0781
 6957TIP3    H242507   3.866   2.279   1.442 -0.5794 -1.9715  1.2796
 6958TIP3   OH242508   3.585   3.382   8.098  0.8066  0.5239  0.6099
 6958TIP3    H142509   3.632   3.463   8.079  2.1620 -0.4085 -0.0352
 6958TIP3    H242510   3.525   3.406   8.169  2.2109  1.7363  1.4160
 6959TIP3   OH242511   4.047   1.324   2.347 -0.1615 -0.3042 -0.0039
 6959TIP3    H142512   4.076   1.372   2.425  0.2938 -0.7290  0.0902
 6959TIP3    H242513   4.127   1.286   2.311 -0.3160  0.1684 -0.8784
 6960TIP3   OH242514   5.884   7.198   0.960  0.3069 -0.3400  0.4760
 6960TIP3    H142515   5.923   7.111   0.948  2.1612  0.6278 -0.7452
 6960TIP3    H242516   5.924   7.251   0.891 -1.9777  1.1088  0.2456
 6961TIP3   OH242517   5.313   1.725   2.329 -0.0099 -0.0767  0.2037
 6961TIP3    H142518   5.262   1.646   2.312  0.0943  0.2026 -1.4500
 6961TIP3    H242519   5.388   1.719   2.270  0.4403  0.8618  0.6608
 6962TIP3   OH242520   0.533   7.231   0.384  0.8928 -0.8486  0.4921
 6962TIP3    H142521   0.468   7.250   0.316 -0.6197 -2.7763  1.3416
 6962TIP3    H242522   0.535   7.309   0.439 -1.1310 -0.9739  0.7757
 6963TIP3   OH242523   5.781   1.385   1.842  0.7649 -0.3055  0.3582
 6963TIP3    H142524   5.861   1.401   1.793 -0.4711  1.1424 -1.2229
 6963TIP3    H242525   5.762   1.292   1.828  0.4623  0.0826 -1.8511
 6964TIP3   OH242526   5.472   2.266   8.350  0.3303 -0.3007 -0.1903
 6964TIP3    H142527   5.538   2.335   8.356  1.9866 -1.7318 -1.3332
 6964TIP3    H242528   5.473   2.224   8.435  1.7956 -1.1045 -0.5991
 6965TIP3   OH242529   6.646   5.549   0.498 -0.3926 -0.5136  0.0302
 6965TIP3    H142530   6.647   5.482   0.430 -2.2736  0.7751 -1.3162
 6965TIP3    H242531   6.669   5.503   0.578  1.0719 -2.2182 -1.3402
 6966TIP3   OH242532   5.550   6.982   0.710  0.1870  0.3396 -0.1702
 6966TIP3    H142533   5.527   7.074   0.719  0.2376  0.2426  0.9616
 6966TIP3    H242534   5.517   6.940   0.789 -2.1628 -1.1135 -1.8285
 6967TIP3   OH242535   6.491   6.495   2.071  0.5587 -0.4725 -0.0324
 6967TIP3    H142536   6.448   6.573   2.105 -0.2513 -0.3947 -1.1965
 6967TIP3    H242537   6.429   6.424   2.087  1.3067 -0.8870  1.0511
 6968TIP3   OH242538   6.539   0.118   2.452 -0.0457  0.0469 -0.5908
 6968TIP3    H142539   6.489   0.118   2.534 -1.5542 -1.1726 -1.4849
 6968TIP3    H242540   6.615   0.063   2.470  0.0961  0.5049  0.2464
 6969TIP3   OH242541   4.910   6.994   7.784  0.0322  0.2483  0.0470
 6969TIP3    H142542   4.878   7.080   7.811 -1.9903 -0.9503  1.5648
 6969TIP3    H242543   4.995   6.986   7.829 -1.2389  0.1467  2.5115
 6970TIP3   OH242544   6.545   7.215   1.959  0.0223  0.3780 -0.0562
 6970TIP3    H142545   6.569   7.135   1.913  1.0178  0.1956  0.7581
 6970TIP3    H242546   6.586   7.207   2.045 -2.1917  0.4805  1.0587
 6971TIP3   OH242547   6.909   1.537   2.090 -0.5243  0.2474  0.1374
 6971TIP3    H142548   6.998   1.551   2.056  0.0890 -0.3827  1.4383
 6971TIP3    H242549   6.921   1.478   2.164 -1.9048  1.1209  1.0778
 6972TIP3   OH242550   5.791   5.869   1.176 -0.4906  0.3179 -0.3321
 6972TIP3    H142551   5.722   5.911   1.124  1.5931  0.2673 -3.2874
 6972TIP3    H242552   5.766   5.777   1.179 -0.1552  0.1533 -2.1162
 6973TIP3   OH242553   3.778   7.117   8.198 -0.4428 -0.3140 -0.5311
 6973TIP3    H142554   3.865   7.158   8.191 -0.5281 -0.1076 -0.3547
 6973TIP3    H242555   3.740   7.153   8.278 -0.8464 -0.1172 -0.8152
 6974TIP3   OH242556   0.416   7.147   8.215  0.0742 -0.5456  0.3516
 6974TIP3    H142557   0.428   7.185   8.128 -1.5600 -1.4637 -0.3079
 6974TIP3    H242558   0.491   7.088   8.226  0.3722 -0.3096 -0.3635
 6975TIP3   OH242559   6.604   0.159   0.226  0.1221  0.2865  0.0835
 6975TIP3    H142560   6.550   0.082   0.206  0.2018 -0.0964  1.3096
 6975TIP3    H242561   6.544   0.233   0.217 -0.0622  0.0491 -0.6806
 6976TIP3   OH242562   5.433   0.323   1.447 -0.0397 -0.1921 -0.7490
 6976TIP3    H142563   5.471   0.363   1.369  0.9154  0.5411  0.0710
 6976TIP3    H242564   5.346   0.295   1.420  0.0911  0.5096 -1.9364
 6977TIP3   OH242565   5.856   1.442   7.869 -0.0470  0.1218 -0.7080
 6977TIP3    H142566   5.940   1.411   7.835  0.3409 -0.2990  0.6116
 6977TIP3    H242567   5.840   1.524   7.822  0.1567 -0.7708 -2.3708
 6978TIP3   OH242568   4.657   4.652   0.480  0.0014 -0.6240 -0.3551
 6978TIP3    H142569   4.633   4.584   0.544 -0.3707  0.3528  0.5489
 6978TIP3    H242570   4.584   4.653   0.418 -0.4299 -0.4208  0.1495
 6979TIP3   OH242571   2.705   3.363   0.769 -0.1906 -0.4747  0.1521
 6979TIP3    H142572   2.645   3.324   0.833  1.2191 -1.0591  1.1659
 6979TIP3    H242573   2.756   3.289   0.737  1.1695  0.2536  0.6081
 6980TIP3   OH242574   6.783   3.217   1.999 -0.0207  0.2797  0.1101
 6980TIP3    H142575   6.813   3.157   2.068  1.4017 -0.0637 -0.7790
 6980TIP3    H242576   6.829   3.188   1.921 -1.1559  1.0572 -0.8594
 6981TIP3   OH242577   0.189   5.506   1.427 -0.0557  0.7200 -0.1504
 6981TIP3    H142578   0.167   5.489   1.335 -2.4652 -1.7271  0.8222
 6981TIP3    H242579   0.109   5.540   1.465  0.6379  0.7722  1.2991
 6982TIP3   OH242580   1.911   2.806   1.716 -0.1744 -0.2205  0.9805
 6982TIP3    H142581   1.914   2.766   1.803  1.7731  3.5514  2.7146
 6982TIP3    H242582   1.852   2.880   1.725  1.0132  0.9482 -0.6066
 6983TIP3   OH242583   0.204   2.455   2.584  0.3645  0.2988  0.3460
 6983TIP3    H142584   0.190   2.456   2.678  2.2454  2.2088  0.6264
 6983TIP3    H242585   0.283   2.403   2.571  0.7810  1.0255 -0.0770
 6984TIP3   OH242586   6.469   1.662   1.327  0.6122  0.3335 -0.0026
 6984TIP3    H142587   6.440   1.738   1.379  2.7708  0.8724  0.4831
 6984TIP3    H242588   6.442   1.683   1.238 -0.6739  0.6992  0.4599
 6985TIP3   OH242589   6.819   3.783   1.284  0.3818 -0.1136  0.2136
 6985TIP3    H142590   6.882   3.828   1.341  0.5141  2.2331 -1.6644
 6985TIP3    H242591   6.865   3.704   1.255  1.8087  0.6465  0.3183
 6986TIP3   OH242592   5.725   1.610   1.988 -0.1128  0.0913  0.4411
 6986TIP3    H142593   5.802   1.640   2.037 -0.4713 -1.3236  1.9464
 6986TIP3    H242594   5.754   1.530   1.945 -0.7355 -0.4759  1.0568
 6987TIP3   OH242595   0.497   1.090   1.760  0.7253 -0.2105 -0.1490
 6987TIP3    H142596   0.472   1.167   1.708 -0.2684 -1.1877 -1.1254
 6987TIP3    H242597   0.550   1.037   1.701 -0.1201 -1.1595 -0.0715
 6988TIP3   OH242598   6.796   3.265   1.047  0.7941 -0.4761 -0.1135
 6988TIP3    H142599   6.787   3.170   1.061  1.2126 -0.5222 -0.1561
 6988TIP3    H242600   6.861   3.293   1.112 -1.6664  0.3340  2.0644
 6989TIP3   OH242601   0.196   1.863   1.802  0.3747  0.5258  0.2097
 6989TIP3    H142602   0.214   1.901   1.716 -0.1433 -0.3835 -0.3035
 6989TIP3    H242603   0.270   1.804   1.818 -0.8598 -1.3309 -0.8039
 6990TIP3   OH242604   0.681   2.373   1.901 -0.0620  1.0743 -0.3765
 6990TIP3    H142605   0.714   2.435   1.836  0.9922  1.1301  0.1948
 6990TIP3    H242606   0.730   2.292   1.885  1.1740  1.4824  1.1709
 6991TIP3   OH242607   5.136   2.580   1.942 -0.2490  0.0004  0.2622
 6991TIP3    H142608   5.198   2.517   1.906  0.2490 -0.6621  2.2199
 6991TIP3    H242609   5.054   2.530   1.950 -0.5957  0.3996 -0.7699
 6992TIP3   OH242610   3.132   4.510   1.702 -0.2701  0.4028  0.8550
 6992TIP3    H142611   3.180   4.592   1.694 -0.8312  0.5728 -0.7898
 6992TIP3    H242612   3.063   4.529   1.766 -1.7906  1.8804 -1.1886
 6993TIP3   OH242613   0.628   6.915   1.654  0.0362 -0.4626 -0.2546
 6993TIP3    H142614   0.710   6.937   1.697  0.5741 -0.1988 -1.3822
 6993TIP3    H242615   0.573   6.877   1.723  0.7998  0.1189  0.6852
 6994TIP3   OH242616   1.606   4.120   1.448 -0.5524  0.2806  0.2332
 6994TIP3    H142617   1.530   4.112   1.391  0.3299 -0.7197 -0.8228
 6994TIP3    H242618   1.622   4.214   1.453 -2.1921  0.5456  0.9283
 6995TIP3   OH242619   1.953   4.045   2.258 -0.5988 -0.1176 -0.3079
 6995TIP3    H142620   1.921   4.043   2.348 -0.4758 -0.8226 -0.2796
 6995TIP3    H242621   2.048   4.035   2.266 -0.4223  1.2935 -0.4354
 6996TIP3   OH242622   6.508   3.348   2.461  0.7873 -0.5969 -0.0193
 6996TIP3    H142623   6.539   3.352   2.371  0.3307  1.0715 -0.1154
 6996TIP3    H242624   6.445   3.420   2.467  2.4844  0.7438  2.2764
 6997TIP3   OH242625   2.651   3.460   2.556 -0.5880  0.4069 -0.2491
 6997TIP3    H142626   2.695   3.514   2.621  0.4221  1.3600 -1.6987
 6997TIP3    H242627   2.708   3.383   2.547  0.0550  0.9697 -1.0751
 6998TIP3   OH242628   0.427   5.274   1.538  0.2166 -0.1498  0.0073
 6998TIP3    H142629   0.400   5.288   1.448  1.8040  0.9600 -0.3240
 6998TIP3    H242630   0.361   5.318   1.591 -0.9161 -1.1061 -0.5774
 6999TIP3   OH242631   0.885   1.525   2.193  0.5453  0.1906 -0.2058
 6999TIP3    H142632   0.915   1.445   2.237 -0.1711 -0.2089 -0.4464
 6999TIP3    H242633   0.905   1.510   2.100  1.3471  0.7176 -0.1282
 7000TIP3   OH242634   2.798   3.809   2.426  0.8751  0.7028 -0.4180
 7000TIP3    H142635   2.890   3.811   2.453  0.7736  0.6888 -0.0679
 7000TIP3    H242636   2.752   3.859   2.493  0.6195  0.6749 -0.5708
 7001TIP3   OH242637   3.718   0.783   7.325  0.4301  0.2455 -0.4050
 7001TIP3    H142638   3.765   0.792   7.408  0.1686  0.3125 -0.2640
 7001TIP3    H242639   3.783   0.746   7.265  0.5129 -0.1574 -0.0719
 7002TIP3   OH242640   2.594   5.100   2.046 -0.3288  0.8517  0.0314
 7002TIP3    H142641   2.672   5.091   2.101 -1.2399  0.9258  1.3427
 7002TIP3    H242642   2.546   5.173   2.085 -0.2960  1.8145 -1.6956
 7003TIP3   OH242643   2.540   5.432   1.375 -0.7913  0.3903 -0.2147
 7003TIP3    H142644   2.571   5.489   1.305  0.8369 -0.8603 -0.5303
 7003TIP3    H242645   2.456   5.398   1.343 -0.0376 -0.1993 -1.5692
 7004TIP3   OH242646   4.588   3.497   2.712 -0.5822 -0.1535 -0.4089
 7004TIP3    H142647   4.545   3.522   2.631 -1.1559 -1.2671 -0.4592
 7004TIP3    H242648   4.526   3.438   2.755  0.3696 -0.8000  0.0974
 7005TIP3   OH242649   3.373   4.150   7.172 -0.9321  0.0700 -0.3221
 7005TIP3    H142650   3.349   4.125   7.262 -2.3042 -2.7617 -1.4191
 7005TIP3    H242651   3.295   4.193   7.138 -0.6562  0.5212 -0.3801
 7006TIP3   OH242652   5.184   2.766   0.128  0.0519  0.1801 -0.0692
 7006TIP3    H142653   5.233   2.844   0.101  1.2727 -1.0658 -1.5174
 7006TIP3    H242654   5.141   2.736   0.049 -0.7829 -0.3784  0.5894
 7007TIP3   OH242655   2.013   0.959   0.057 -0.3061  0.0397  0.2952
 7007TIP3    H142656   2.001   0.947  -0.037 -0.0518 -0.7423  0.3595
 7007TIP3    H242657   1.956   0.893   0.097  0.8380 -0.7302  0.6656
 7008TIP3   OH242658   5.545   2.091   1.506 -0.0873 -0.0416  0.4849
 7008TIP3    H142659   5.516   2.180   1.486 -2.1562 -0.9813 -0.8489
 7008TIP3    H242660   5.576   2.096   1.596 -0.6057  1.9312  0.5866
 7009TIP3   OH242661   3.507   4.459   2.260 -0.2696  0.2975 -0.0869
 7009TIP3    H142662   3.465   4.410   2.330 -0.3228 -0.7557 -0.8486
 7009TIP3    H242663   3.594   4.421   2.253  0.0605  1.0219  0.0266
 7010TIP3   OH242664   4.996   3.162   1.086 -0.2177  0.2107 -0.4312
 7010TIP3    H142665   4.983   3.081   1.135 -1.3018  0.3088 -0.5329
 7010TIP3    H242666   5.077   3.199   1.121 -0.6274 -0.0488  0.8363
 7011TIP3   OH242667   5.762   0.721   7.910  0.1678 -0.5404 -0.3964
 7011TIP3    H142668   5.731   0.791   7.854 -0.4674 -0.0870  0.5104
 7011TIP3    H242669   5.690   0.706   7.972  2.0749  1.1922  2.3599
 7012TIP3   OH242670   3.140   3.474   0.636 -0.1349  0.0384  0.4449
 7012TIP3    H142671   3.235   3.468   0.636 -0.2010 -1.2925  0.4479
 7012TIP3    H242672   3.115   3.459   0.728 -0.3890 -0.6569  0.2679
 7013TIP3   OH242673   5.904   2.394   2.035 -0.3293 -0.4782  0.6884
 7013TIP3    H142674   5.947   2.310   2.018 -2.3505 -1.1871 -1.2674
 7013TIP3    H242675   5.971   2.459   2.014  0.4605 -1.5746 -0.3356
 7014TIP3   OH242676   5.300   2.919   2.044  0.0098 -0.1254 -0.1177
 7014TIP3    H142677   5.356   2.851   2.007  0.2788  0.6293 -1.1032
 7014TIP3    H242678   5.254   2.875   2.116  0.3545 -1.2861 -0.5910
 7015TIP3   OH242679   3.944   2.540   0.684 -0.1480 -0.2002  0.5027
 7015TIP3    H142680   3.891   2.460   0.674  0.5530 -0.5919 -0.2040
 7015TIP3    H242681   3.941   2.581   0.597 -1.2527  1.0270  1.1091
 7016TIP3   OH242682   3.988   2.598   1.943 -0.1520 -0.0109 -0.0344
 7016TIP3    H142683   3.971   2.505   1.928 -0.6911 -0.0956  1.0583
 7016TIP3    H242684   4.039   2.601   2.024 -0.2889  0.6540  0.0349
 7017TIP3   OH242685   4.447   2.787   2.901  0.5901  0.0753  0.3100
 7017TIP3    H142686   4.461   2.880   2.919 -1.3726  0.8560 -1.8115
 7017TIP3    H242687   4.531   2.756   2.870  0.3663  2.1257 -2.5958
 7018TIP3   OH242688   3.489   5.275   1.588  0.1183 -0.4360  0.4365
 7018TIP3    H142689   3.584   5.272   1.587  0.1310 -0.1601 -1.3001
 7018TIP3    H242690   3.463   5.213   1.657  1.4890 -2.1511 -0.5534
 7019TIP3   OH242691   0.608   4.762   8.087  0.0011  0.3266  0.0784
 7019TIP3    H142692   0.635   4.679   8.126  0.8208 -0.0522 -1.2678
 7019TIP3    H242693   0.513   4.753   8.075  0.3901 -1.3370 -2.1450
 7020TIP3   OH242694   4.779   3.299   2.673  0.2000 -0.0369 -0.8164
 7020TIP3    H142695   4.725   3.242   2.617 -0.7375 -0.3663  0.3997
 7020TIP3    H242696   4.733   3.383   2.672 -0.0028 -0.1389 -0.2863
 7021TIP3   OH242697   4.588   2.186   1.080 -0.1654 -0.0154  0.7797
 7021TIP3    H142698   4.664   2.235   1.114  0.3016 -1.1466  1.3870
 7021TIP3    H242699   4.618   2.151   0.996  0.1243 -0.8089  1.2140
 7022TIP3   OH242700   2.132   3.143   0.163  0.0748 -0.7748  0.0349
 7022TIP3    H142701   2.121   3.204   0.090  0.8811  0.2811  0.7728
 7022TIP3    H242702   2.079   3.180   0.234 -0.8309 -1.8746 -0.0548
 7023TIP3   OH242703   4.883   2.109   1.294 -0.4668  0.3903  0.4198
 7023TIP3    H142704   4.911   2.091   1.204  1.2865  1.2199  0.7901
 7023TIP3    H242705   4.836   2.030   1.321  2.1846 -1.3387  0.0429
 7024TIP3   OH242706   4.069   2.323   1.911  0.2999  0.5360 -0.0078
 7024TIP3    H142707   4.144   2.313   1.852  1.0584  0.4555  0.9494
 7024TIP3    H242708   4.105   2.302   1.998 -0.5571  1.6220  0.6139
 7025TIP3   OH242709   4.407   2.534   0.938  0.1613  0.6659 -0.1927
 7025TIP3    H142710   4.432   2.560   1.027  1.3556 -0.9658 -0.0300
 7025TIP3    H242711   4.475   2.571   0.882  2.2920 -2.6205  0.1147
 7026TIP3   OH242712   2.621   0.985   1.529  0.3085  0.5679 -0.0327
 7026TIP3    H142713   2.693   0.983   1.591 -1.2269 -1.4367  1.7532
 7026TIP3    H242714   2.570   1.062   1.553  0.5138  0.6139  0.2527
 7027TIP3   OH242715   4.745   2.405   1.189 -0.3626 -0.0406 -0.2513
 7027TIP3    H142716   4.766   2.399   1.283  1.3157 -1.2713 -0.6811
 7027TIP3    H242717   4.812   2.463   1.153  0.1655 -1.1079 -1.0097
 7028TIP3   OH242718   6.952   6.273   1.179 -0.2997 -0.1278  0.2351
 7028TIP3    H142719   6.865   6.240   1.155 -0.1518 -0.0263 -0.4354
 7028TIP3    H242720   7.011   6.201   1.160 -0.2277 -0.1834  0.6595
 7029TIP3   OH242721   0.031   2.937   2.062 -0.1592 -0.0140  0.5141
 7029TIP3    H142722  -0.045   2.954   2.119 -0.7677 -0.1225 -0.2508
 7029TIP3    H242723   0.031   2.842   2.051  1.7100 -0.2830  2.7106
 7030TIP3   OH242724   0.996   4.646   1.522  0.0690 -0.0581  0.5535
 7030TIP3    H142725   1.022   4.708   1.589  2.6153 -0.7402  0.2685
 7030TIP3    H242726   0.986   4.563   1.569  0.0105 -0.1473  0.3838
 7031TIP3   OH242727   0.338   0.089   0.746 -0.6443  0.1129 -0.0978
 7031TIP3    H142728   0.386   0.148   0.804 -1.0651  0.4191 -0.0561
 7031TIP3    H242729   0.398   0.071   0.673 -0.8862  1.4012 -0.6191
 7032TIP3   OH242730   6.090   2.789   2.372 -0.4490 -0.4081  0.6491
 7032TIP3    H142731   6.133   2.873   2.391 -0.4656 -0.2288 -0.1139
 7032TIP3    H242732   5.999   2.812   2.354 -0.4108 -0.5689  0.2457
 7033TIP3   OH242733   5.744   0.837   0.605 -0.6979  0.2650  0.3239
 7033TIP3    H142734   5.722   0.789   0.685  1.7579 -0.7228  0.4664
 7033TIP3    H242735   5.667   0.890   0.586 -1.4146  0.3423  3.2266
 7034TIP3   OH242736   5.734   2.238   1.749 -0.4300 -0.1675 -0.8182
 7034TIP3    H142737   5.678   2.163   1.769 -0.4438 -0.3940 -1.6868
 7034TIP3    H242738   5.810   2.201   1.706  0.5651  0.1107  0.6625
 7035TIP3   OH242739   5.953   4.065   8.158 -0.1687  0.3132 -0.0368
 7035TIP3    H142740   6.028   4.044   8.103  0.5752  1.5816  0.4766
 7035TIP3    H242741   5.939   3.986   8.211  1.0010  0.1811  0.0924
 7036TIP3   OH242742   6.184   3.175   0.089 -0.3325  0.0897 -0.1757
 7036TIP3    H142743   6.171   3.092   0.136 -0.5217 -0.3638 -1.0118
 7036TIP3    H242744   6.146   3.241   0.146  0.7287 -0.2602  0.9815
 7037TIP3   OH242745   6.327   3.387   2.169 -0.6834  0.0933  0.3636
 7037TIP3    H142746   6.302   3.424   2.253 -0.5936  0.9815  0.0097
 7037TIP3    H242747   6.253   3.406   2.111 -0.5894 -0.1858  0.1483
 7038TIP3   OH242748   6.422   5.328   7.774  0.1056  0.4446  0.3694
 7038TIP3    H142749   6.369   5.342   7.851 -0.2299 -0.8511  0.3907
 7038TIP3    H242750   6.362   5.292   7.709  0.6112  0.5053 -0.1445
 7039TIP3   OH242751   7.221   2.740   2.283  0.2610 -0.2783  0.0234
 7039TIP3    H142752   7.144   2.694   2.317 -0.1980  0.2064 -0.3512
 7039TIP3    H242753   7.195   2.832   2.282  0.8499 -0.1124 -0.1068
 7040TIP3   OH242754   7.108   3.338   2.312 -0.0354  0.3901 -0.0441
 7040TIP3    H142755   7.026   3.388   2.316 -0.0430  0.4035 -0.3670
 7040TIP3    H242756   7.132   3.325   2.403 -0.0899  0.8974  0.0459
 7041TIP3   OH242757   5.648   4.138   0.326  0.6037  0.0657 -0.1843
 7041TIP3    H142758   5.702   4.063   0.350  0.6466  0.6368  1.5441
 7041TIP3    H242759   5.559   4.114   0.353  0.2505 -0.2049 -1.5379
 7042TIP3   OH242760   5.113   2.921   1.161  0.3149 -0.5608  0.1274
 7042TIP3    H142761   5.042   2.887   1.215 -0.1716  1.2645  0.6888
 7042TIP3    H242762   5.178   2.952   1.224  0.4660  0.1018 -0.3420
 7043TIP3   OH242763   4.916   2.542   0.080 -0.0914 -0.9278 -0.0448
 7043TIP3    H142764   4.970   2.479   0.031 -0.4915 -2.4999  1.5019
 7043TIP3    H242765   4.835   2.494   0.100  0.9303 -1.1197  4.0734
 7044TIP3   OH242766   5.337   1.511   1.262  0.0265 -0.4031 -0.3387
 7044TIP3    H142767   5.355   1.503   1.168  0.8947  0.5996 -0.2503
 7044TIP3    H242768   5.417   1.545   1.300 -0.1163 -1.3747  0.8736
 7045TIP3   OH242769   5.952   1.439   1.376  0.3089  0.5267  0.1748
 7045TIP3    H142770   5.885   1.500   1.408  0.8630  0.9614  0.5136
 7045TIP3    H242771   6.034   1.488   1.382  0.5278  0.3354 -1.1668
 7046TIP3   OH242772   4.291   1.002   2.266  0.4761 -0.3318 -0.3907
 7046TIP3    H142773   4.199   0.975   2.261  0.9283 -1.9130 -0.4100
 7046TIP3    H242774   4.293   1.087   2.222 -0.5041 -1.5117 -2.8474
 7047TIP3   OH242775   6.191   3.499   7.821 -0.4680 -0.2466 -0.3107
 7047TIP3    H142776   6.099   3.494   7.848 -0.9718  0.7508 -1.8105
 7047TIP3    H242777   6.201   3.588   7.787  0.9677 -0.4753 -0.4892
 7048TIP3   OH242778   1.201   3.919   2.513 -0.0734 -0.1710  0.4222
 7048TIP3    H142779   1.189   3.824   2.509  0.3309 -0.1965 -0.3149
 7048TIP3    H242780   1.165   3.951   2.431 -0.0335  0.2940  0.5879
 7049TIP3   OH242781   6.809   5.243   2.700  0.0098 -0.1893  0.2378
 7049TIP3    H142782   6.741   5.257   2.766 -1.6126  0.4139 -1.5251
 7049TIP3    H242783   6.778   5.167   2.650  0.5868  0.1290 -0.6110
 7050TIP3   OH242784   1.429   4.585   2.027 -0.1732  0.2088 -0.7304
 7050TIP3    H142785   1.496   4.578   2.095 -1.7175  2.6195  1.0831
 7050TIP3    H242786   1.395   4.496   2.017  0.0148 -0.1517  1.7045
 7051TIP3   OH242787   0.941   5.901   1.711 -0.3757  0.2275 -0.4808
 7051TIP3    H142788   0.993   5.963   1.661  1.2990 -1.5340 -0.9925
 7051TIP3    H242789   0.925   5.945   1.795  3.9585 -0.0357  0.6192
 7052TIP3   OH242790   5.132   5.682   0.572 -0.3240 -0.4498  0.1769
 7052TIP3    H142791   5.145   5.738   0.649  1.3200 -1.5213  0.6958
 7052TIP3    H242792   5.059   5.626   0.596  0.8113 -1.4534  1.3712
 7053TIP3   OH242793   1.576   5.859   2.274 -0.1370  0.7016  0.0786
 7053TIP3    H142794   1.500   5.802   2.261  0.7417 -0.9296  1.9091
 7053TIP3    H242795   1.562   5.932   2.213 -1.5596 -1.1826 -1.9196
 7054TIP3   OH242796   2.934   5.885   1.328 -0.1379  0.5928 -0.2221
 7054TIP3    H142797   2.929   5.964   1.382 -0.0618  0.1466  0.4439
 7054TIP3    H242798   3.007   5.835   1.364 -2.5342 -1.5895  1.8425
 7055TIP3   OH242799   1.555   4.466   2.247  0.2754  0.4122 -0.2715
 7055TIP3    H142800   1.526   4.416   2.323  0.0411  1.3652  0.2696
 7055TIP3    H242801   1.642   4.498   2.271  1.6012 -1.9701 -1.6698
 7056TIP3   OH242802   6.062   3.531   7.308  0.0787  0.0507  0.2631
 7056TIP3    H142803   6.094   3.448   7.271  1.3064  0.7400 -0.2734
 7056TIP3    H242804   6.139   3.588   7.308 -1.0147  1.5546 -0.4334
 7057TIP3   OH242805   0.049   6.258   1.868  0.2430 -0.2779  0.2306
 7057TIP3    H142806   0.083   6.317   1.800  0.4920  1.0144  1.4617
 7057TIP3    H242807   0.127   6.231   1.917 -0.0535 -0.3739  0.6507
 7058TIP3   OH242808   3.023   5.467   0.732 -0.3399 -0.2861 -0.3303
 7058TIP3    H142809   3.074   5.408   0.788  0.4262 -0.7695 -1.5098
 7058TIP3    H242810   3.087   5.529   0.698 -1.1495  1.2420  0.8958
 7059TIP3   OH242811   1.413   5.355   1.265 -0.1809 -0.6356 -0.1634
 7059TIP3    H142812   1.485   5.403   1.306  0.3106 -1.1537 -0.4077
 7059TIP3    H242813   1.441   5.263   1.267  0.2404 -0.5826 -2.4397
 7060TIP3   OH242814   2.685   6.950   8.044 -0.3139 -0.6932  0.0468
 7060TIP3    H142815   2.761   6.956   7.986  0.2095 -1.0819  0.6729
 7060TIP3    H242816   2.722   6.961   8.132 -1.1267  0.1495  0.2930
 7061TIP3   OH242817   2.276   5.228   1.474  0.2126  0.2926  0.2874
 7061TIP3    H142818   2.237   5.234   1.387  0.3701  1.3515  0.2796
 7061TIP3    H242819   2.216   5.173   1.524 -0.0931  0.0220 -0.3778
 7062TIP3   OH242820   3.483   3.283   1.204  0.6626 -0.5269  0.3176
 7062TIP3    H142821   3.560   3.328   1.169  1.3674 -2.2171 -0.3743
 7062TIP3    H242822   3.511   3.248   1.289  0.4395 -0.5200  0.3951
 7063TIP3   OH242823   7.263   3.776   1.974  0.1776  0.5503 -0.2549
 7063TIP3    H142824   7.323   3.801   2.045  0.6844  1.5577 -1.0158
 7063TIP3    H242825   7.176   3.792   2.009  0.3903  0.1415  0.4711
 7064TIP3   OH242826   7.152   4.291   2.438  0.2781  0.6979  0.6247
 7064TIP3    H142827   7.235   4.325   2.472  1.4899  0.0444 -1.6040
 7064TIP3    H242828   7.176   4.217   2.383 -1.6499  1.3072 -1.1249
 7065TIP3   OH242829   6.446   6.251   1.879  0.0614  0.0574  0.0240
 7065TIP3    H142830   6.418   6.277   1.967  0.7566 -2.8895  1.1725
 7065TIP3    H242831   6.509   6.180   1.894  2.9243  1.9088 -2.7241
 7066TIP3   OH242832   4.169   5.756   1.589 -0.3675  0.5220  0.0159
 7066TIP3    H142833   4.077   5.754   1.615 -0.5923  0.5919 -0.7516
 7066TIP3    H242834   4.166   5.764   1.494  0.4208 -1.0213 -0.1520
 7067TIP3   OH242835   2.425   4.442   2.523 -0.1552  0.0651  0.1892
 7067TIP3    H142836   2.365   4.502   2.568  0.5940  0.0994  1.1769
 7067TIP3    H242837   2.380   4.418   2.443 -2.0700 -0.8990  1.5090
 7068TIP3   OH242838   4.070   6.635   1.606 -0.1172 -0.8795  0.4906
 7068TIP3    H142839   4.070   6.556   1.659 -0.0515 -1.7698 -0.7975
 7068TIP3    H242840   4.129   6.615   1.533 -1.2080 -0.1956 -0.6097
 7069TIP3   OH242841   3.675   4.762   1.607  0.0836  0.3926  0.1025
 7069TIP3    H142842   3.741   4.742   1.541 -2.1180 -2.8766 -1.2251
 7069TIP3    H242843   3.629   4.839   1.574  0.5752  0.2185 -0.9968
 7070TIP3   OH242844   2.047   5.824   7.222 -0.6534  0.2066 -0.1710
 7070TIP3    H142845   2.004   5.874   7.291 -2.4347 -1.4307 -0.0269
 7070TIP3    H242846   2.005   5.853   7.141 -0.8472 -0.1855 -0.2136
 7071TIP3   OH242847   3.118   5.103   1.183 -0.3203  0.0121 -0.0563
 7071TIP3    H142848   3.112   5.020   1.135  1.9273 -0.7800  0.9634
 7071TIP3    H242849   3.041   5.105   1.239 -0.4908 -1.2977 -0.2337
 7072TIP3   OH242850   3.519   5.710   2.711 -0.2083  0.5219 -0.1490
 7072TIP3    H142851   3.608   5.706   2.676 -0.3704 -0.0668 -0.4902
 7072TIP3    H242852   3.483   5.791   2.673 -0.0563  0.3935 -0.5758
 7073TIP3   OH242853   3.226   3.869   0.528 -0.8142  0.4741  0.4233
 7073TIP3    H142854   3.243   3.948   0.478  2.1387 -0.4581 -0.1055
 7073TIP3    H242855   3.247   3.892   0.618  1.4502 -0.0778  0.0646
 7074TIP3   OH242856   3.444   5.565   2.948  0.3341  0.2882  0.4496
 7074TIP3    H142857   3.530   5.577   2.989 -1.5993  1.0137  4.6528
 7074TIP3    H242858   3.450   5.612   2.865  3.2652  2.3866  1.7481
 7075TIP3   OH242859   2.536   0.278   0.585  0.2778  0.3891 -0.3248
 7075TIP3    H142860   2.475   0.247   0.518 -1.4578  0.0312  1.3673
 7075TIP3    H242861   2.520   0.372   0.590 -0.2349  0.2721  0.2216
 7076TIP3   OH242862   1.691   5.081   0.675 -0.5871 -0.0939  0.8725
 7076TIP3    H142863   1.695   5.064   0.581 -1.1724 -0.5608  0.9314
 7076TIP3    H242864   1.743   5.010   0.715 -0.7978 -0.2106  0.9386
 7077TIP3   OH242865   1.789   6.434   1.135  0.3729  0.0224  0.1410
 7077TIP3    H142866   1.763   6.492   1.064  0.4715  0.3182  0.3434
 7077TIP3    H242867   1.766   6.482   1.215  1.6921  0.3802  0.3227
 7078TIP3   OH242868   1.076   5.290   2.096  0.7559  0.5853 -0.1122
 7078TIP3    H142869   1.170   5.276   2.111  0.7025 -0.9921 -1.0473
 7078TIP3    H242870   1.072   5.339   2.014  0.7382 -0.5228 -0.7842
 7079TIP3   OH242871   3.044   7.247   8.103 -1.0021 -0.0669  0.0597
 7079TIP3    H142872   3.051   7.174   8.164 -1.0345 -0.6143 -0.5828
 7079TIP3    H242873   3.117   7.304   8.125 -0.2091 -0.9331 -0.2812
 7080TIP3   OH242874   0.498   4.985   1.121 -0.7670 -0.1965 -0.2646
 7080TIP3    H142875   0.585   5.013   1.093 -1.2117  0.1954 -1.2916
 7080TIP3    H242876   0.458   5.064   1.156 -0.9348 -0.2305 -0.3804
 7081TIP3   OH242877   5.274   5.399   1.665 -0.1614 -0.1279 -0.5099
 7081TIP3    H142878   5.354   5.419   1.617 -1.2227  1.3741 -1.6861
 7081TIP3    H242879   5.300   5.406   1.757  1.0492  0.3658 -0.8707
 7082TIP3   OH242880   2.546   5.430   0.901 -0.2294 -0.2054 -0.0418
 7082TIP3    H142881   2.479   5.408   0.966 -0.3825 -3.6050 -1.2490
 7082TIP3    H242882   2.508   5.502   0.851 -1.7345 -0.1394  1.1498
 7083TIP3   OH242883   7.210   4.988   7.164  0.3189 -0.0061 -0.6939
 7083TIP3    H142884   7.117   4.996   7.186  0.7307 -0.2925  1.2699
 7083TIP3    H242885   7.221   4.897   7.136  0.1856 -0.2282 -0.0258
 7084TIP3   OH242886   2.299   5.577   0.328 -0.6182 -0.3775 -0.1761
 7084TIP3    H142887   2.341   5.555   0.245  0.3352 -1.0081  0.4580
 7084TIP3    H242888   2.319   5.503   0.385 -0.3530  0.5397  0.9397
 7085TIP3   OH242889   2.084   6.734   2.144  0.1046 -0.3362 -0.0464
 7085TIP3    H142890   2.084   6.817   2.097  0.7983 -0.6020 -0.5275
 7085TIP3    H242891   2.040   6.673   2.084  0.6689 -0.5920 -0.2049
 7086TIP3   OH242892   6.821   0.410   0.646  0.4199  1.3347 -0.1972
 7086TIP3    H142893   6.812   0.365   0.562 -0.3168 -0.4743  0.8141
 7086TIP3    H242894   6.912   0.438   0.650  1.2101 -1.1701 -0.3302
 7087TIP3   OH242895   2.269   3.196   2.209 -0.0467 -0.3018 -0.2751
 7087TIP3    H142896   2.278   3.101   2.217 -1.8747 -0.7014 -2.3976
 7087TIP3    H242897   2.175   3.210   2.202  0.1884  1.7119  0.3860
 7088TIP3   OH242898   3.973   4.855   2.465  0.1220 -0.5829  0.1574
 7088TIP3    H142899   3.900   4.879   2.410 -0.3801  0.5212  1.2788
 7088TIP3    H242900   3.936   4.851   2.554  1.4053  0.0032  0.7329
 7089TIP3   OH242901   4.336   2.374   2.290  0.0683  0.0263 -0.2781
 7089TIP3    H142902   4.416   2.418   2.261  0.6760 -1.1191 -0.3606
 7089TIP3    H242903   4.356   2.339   2.376 -0.3919 -0.1412 -0.2333
 7090TIP3   OH242904   6.274   4.083   0.640  0.2139  0.2123 -0.1722
 7090TIP3    H142905   6.318   4.032   0.707 -2.2622  0.2011  1.4867
 7090TIP3    H242906   6.283   4.174   0.669 -0.7088  0.2234  0.0807
 7091TIP3   OH242907   5.355   0.665   7.081  0.6261 -0.7906  0.3704
 7091TIP3    H142908   5.300   0.740   7.062 -1.2488 -1.3521  3.2144
 7091TIP3    H242909   5.324   0.596   7.022  0.4911 -0.1386 -0.3211
 7092TIP3   OH242910   3.513   5.730   1.727 -0.1869  0.3368 -0.1280
 7092TIP3    H142911   3.499   5.822   1.750  0.4272  0.6738 -1.0750
 7092TIP3    H242912   3.538   5.732   1.635 -0.6472 -0.8282 -0.2816
 7093TIP3   OH242913   3.779   5.270   2.508  0.3788 -0.7784 -1.2238
 7093TIP3    H142914   3.739   5.193   2.548  2.0043  0.1673  2.4762
 7093TIP3    H242915   3.781   5.335   2.579  5.1389  0.3845 -2.2733
 7094TIP3   OH242916   2.930   4.607   2.335 -0.5100 -0.3256 -0.0178
 7094TIP3    H142917   2.961   4.584   2.422  0.3198  1.7306  0.2681
 7094TIP3    H242918   2.838   4.583   2.334 -0.8828  0.9706  1.9330
 7095TIP3   OH242919   6.350   5.334   1.801  0.0886 -0.5371  0.3674
 7095TIP3    H142920   6.334   5.418   1.758  0.9110 -0.3832  0.3519
 7095TIP3    H242921   6.440   5.311   1.776  0.3127 -0.8061  1.3932
 7096TIP3   OH242922   2.438   6.437   0.487 -0.3372  0.1845 -0.4009
 7096TIP3    H142923   2.446   6.532   0.479 -1.5136  0.3848  0.7049
 7096TIP3    H242924   2.402   6.423   0.574 -3.5043 -1.0678 -1.8451
 7097TIP3   OH242925   5.278   7.172   1.788  0.1185  0.1393 -0.3483
 7097TIP3    H142926   5.365   7.176   1.827 -0.1180 -0.9866  0.3151
 7097TIP3    H242927   5.222   7.222   1.847 -0.0717 -0.8536  0.3352
 7098TIP3   OH242928   4.149   5.734   1.869  0.1905 -0.1038 -0.3554
 7098TIP3    H142929   4.176   5.750   1.779  1.7401 -0.9776 -0.0650
 7098TIP3    H242930   4.153   5.820   1.911 -0.1378  0.2322 -1.0018
 7099TIP3   OH242931   3.793   2.866   2.380 -0.0614 -0.4142 -0.1442
 7099TIP3    H142932   3.789   2.962   2.380  1.6260 -0.3293  0.0790
 7099TIP3    H242933   3.702   2.839   2.395 -0.4845  1.1500  0.2894
 7100TIP3   OH242934   5.418   3.348   1.615  0.0171 -0.0869  0.6446
 7100TIP3    H142935   5.401   3.433   1.573  2.1562  0.2901  0.4840
 7100TIP3    H242936   5.398   3.363   1.707  1.3286  0.9007  0.7850
 7101TIP3   OH242937   3.312   6.779   0.234  0.4789 -0.4417 -0.2330
 7101TIP3    H142938   3.322   6.764   0.328 -0.8731  0.8037  0.1312
 7101TIP3    H242939   3.393   6.747   0.196  0.9286 -1.2205  1.3279
 7102TIP3   OH242940   3.216   4.668   0.606 -0.0289  0.6064 -0.0685
 7102TIP3    H142941   3.248   4.583   0.634  0.4648  1.5851  2.4711
 7102TIP3    H242942   3.292   4.711   0.567  0.1546  0.5367  0.2139
 7103TIP3   OH242943   4.634   2.431   1.955 -0.1250 -0.0026 -0.2526
 7103TIP3    H142944   4.634   2.408   2.048 -1.2849 -0.1282 -0.2762
 7103TIP3    H242945   4.584   2.361   1.913  0.3751  0.0660 -0.9687
 7104TIP3   OH242946   5.299   4.282   2.056 -0.0632 -0.2092 -0.0044
 7104TIP3    H142947   5.268   4.193   2.036  1.7956 -0.9419  0.2692
 7104TIP3    H242948   5.292   4.288   2.151 -0.7262  0.1441 -0.0759
 7105TIP3   OH242949   2.335   3.806   8.339  0.0744 -0.1662 -0.3582
 7105TIP3    H142950   2.279   3.758   8.399 -0.4787  0.8351 -0.0615
 7105TIP3    H242951   2.389   3.861   8.396  0.1877  0.1195 -0.7390
 7106TIP3   OH242952   3.796   4.621   1.402 -0.1495 -0.6315 -0.0659
 7106TIP3    H142953   3.774   4.594   1.313  0.7806 -1.9722  0.0922
 7106TIP3    H242954   3.890   4.607   1.409  0.1472  1.4271  0.4829
 7107TIP3   OH242955   4.329   5.407   2.707 -0.0331 -0.5192 -0.2118
 7107TIP3    H142956   4.242   5.369   2.702 -0.0773 -0.2753 -1.3210
 7107TIP3    H242957   4.342   5.425   2.800 -1.7426  0.8023 -0.2211
 7108TIP3   OH242958   6.271   5.441   1.487 -0.7583  0.2065 -0.4050
 7108TIP3    H142959   6.188   5.396   1.500 -0.0487 -1.8342 -2.4774
 7108TIP3    H242960   6.262   5.482   1.401 -0.0489  0.9314 -0.1352
 7109TIP3   OH242961   6.002   2.759   1.014 -0.0603  0.4727 -0.6085
 7109TIP3    H142962   6.001   2.686   1.076 -0.0858  0.5761 -0.4875
 7109TIP3    H242963   6.088   2.798   1.024  0.1807  0.0853 -1.1113
 7110TIP3   OH242964   6.898   3.720   6.375  0.0805 -0.0290 -0.0177
 7110TIP3    H142965   6.836   3.648   6.363  1.4404 -1.4014  0.9173
 7110TIP3    H242966   6.934   3.737   6.288 -0.3807 -0.3737 -0.2707
 7111TIP3   OH242967   7.291   2.962   1.512  0.3636  0.1295  0.2889
 7111TIP3    H142968   7.382   2.992   1.518  0.1883  0.7102  0.0924
 7111TIP3    H242969   7.297   2.867   1.521  0.7741  0.3447  2.3940
 7112TIP3   OH242970   6.743   5.778   8.379  0.4171  0.1644  0.2517
 7112TIP3    H142971   6.780   5.775   8.468  0.4003  0.3519  0.2646
 7112TIP3    H242972   6.692   5.859   8.377  1.0917  0.5871 -0.1936
 7113TIP3   OH242973   3.217   3.532   1.011  0.6274 -0.9344 -0.0140
 7113TIP3    H142974   3.122   3.545   1.007  0.3726 -2.2459  1.3434
 7113TIP3    H242975   3.237   3.528   1.105  1.9591 -1.0882 -0.2930
 7114TIP3   OH242976   5.258   4.664   1.760 -0.1238 -0.4629  0.0812
 7114TIP3    H142977   5.286   4.573   1.763 -0.2432 -0.5276 -0.8015
 7114TIP3    H242978   5.254   4.690   1.852 -2.1751 -2.0024  0.4761
 7115TIP3   OH242979   6.837   4.672   1.307 -0.1946 -0.5296  0.2469
 7115TIP3    H142980   6.752   4.642   1.341 -0.1485 -0.9002  0.0348
 7115TIP3    H242981   6.844   4.763   1.337 -0.9470 -0.2989 -0.2772
 7116TIP3   OH242982   5.738   4.269   2.478 -0.4698  0.6464  0.1014
 7116TIP3    H142983   5.729   4.194   2.537  0.7959  2.7069  3.0396
 7116TIP3    H242984   5.650   4.282   2.442 -0.7877 -1.9816 -0.1785
 7117TIP3   OH242985   4.053   4.383   0.573  0.1820  0.2666 -0.0907
 7117TIP3    H142986   4.022   4.298   0.604  0.8903 -0.6693 -1.8651
 7117TIP3    H242987   4.145   4.368   0.551  0.4560  1.6393  0.0846
 7118TIP3   OH242988   4.360   3.927   1.880 -0.5128 -0.0211 -0.5741
 7118TIP3    H142989   4.294   3.861   1.902 -0.1338 -0.5127 -0.9014
 7118TIP3    H242990   4.320   4.010   1.905 -0.0793 -0.5594  2.0650
 7119TIP3   OH242991   6.897   5.473   1.621  0.2408 -0.7098  0.1763
 7119TIP3    H142992   6.980   5.487   1.668 -0.2096 -0.1194  0.8038
 7119TIP3    H242993   6.862   5.393   1.659  0.3378 -0.7450  0.1923
 7120TIP3   OH242994   5.915   4.108   2.333 -0.6562 -0.1189  0.0408
 7120TIP3    H142995   5.857   4.174   2.370  0.4468  0.9770 -0.1544
 7120TIP3    H242996   5.863   4.028   2.333 -2.4133  1.0019 -0.8452
 7121TIP3   OH242997   0.019   4.583   1.010  0.0220  0.9080  0.1248
 7121TIP3    H142998  -0.029   4.577   1.092  1.1780  0.2253  0.7701
 7121TIP3    H242999   0.106   4.614   1.035 -0.6911  4.2147 -1.2654
 7122TIP3   OH243000   6.309   4.637   2.423 -0.5474 -0.1986  0.5766
 7122TIP3    H143001   6.327   4.680   2.507 -0.5501 -0.5298  0.7450
 7122TIP3    H243002   6.249   4.697   2.378 -0.7278 -0.1337  0.9046
 7123TIP3   OH243003   4.673   3.487   2.236  0.0351 -0.3306  0.1190
 7123TIP3    H143004   4.709   3.471   2.149 -1.8234 -0.5714 -0.6349
 7123TIP3    H243005   4.662   3.400   2.274 -0.4580 -0.2986  0.0507
 7124TIP3   OH243006   6.286   5.761   2.200  0.5734  0.4400  0.0515
 7124TIP3    H143007   6.319   5.671   2.199  1.9449  0.9151  1.3715
 7124TIP3    H243008   6.351   5.811   2.151  1.4711  1.2600  2.0384
 7125TIP3   OH243009   3.685   6.383   1.707  0.4931  0.3563 -0.4689
 7125TIP3    H143010   3.623   6.400   1.778  2.6726 -0.3369  1.6541
 7125TIP3    H243011   3.716   6.471   1.681 -1.0053  0.6695 -1.2321
 7126TIP3   OH243012   6.149   6.729   0.568  0.0695  0.3083 -0.1433
 7126TIP3    H143013   6.087   6.797   0.541 -0.1338  0.4560  0.6811
 7126TIP3    H243014   6.216   6.776   0.618  1.1530  0.2298 -1.4953
 7127TIP3   OH243015   0.824   6.427   2.088 -0.5673  0.4643 -0.5824
 7127TIP3    H143016   0.919   6.439   2.079 -0.2920 -0.8597  0.3376
 7127TIP3    H243017   0.804   6.463   2.174 -0.5746 -0.9184  0.0109
 7128TIP3   OH243018   6.549   3.175   1.391  0.1031 -0.3774 -0.0458
 7128TIP3    H143019   6.514   3.220   1.314 -0.5608  1.9765  1.5822
 7128TIP3    H243020   6.503   3.091   1.392 -2.9415  1.2262  0.0671
 7129TIP3   OH243021   0.697   6.904   2.343 -0.4069 -0.3405  0.0056
 7129TIP3    H143022   0.791   6.900   2.326 -0.3028 -1.3254  0.8285
 7129TIP3    H243023   0.684   6.991   2.380  0.1061 -0.0395 -0.5010
 7130TIP3   OH243024   0.696   5.911   8.040  0.5256  0.1061  0.1816
 7130TIP3    H143025   0.767   5.910   7.976  1.5371 -0.2284  1.2953
 7130TIP3    H243026   0.705   5.829   8.088 -0.9732 -0.2048 -0.0552
 7131TIP3   OH243027   1.957   6.543   1.592 -0.4476  0.0341 -0.3698
 7131TIP3    H143028   2.023   6.592   1.642 -0.6828 -0.0788  0.0543
 7131TIP3    H243029   1.901   6.611   1.554 -1.6924  0.0785  1.4706
 7132TIP3   OH243030   1.719   6.853   0.212  0.1702 -0.2671  0.3170
 7132TIP3    H143031   1.798   6.803   0.232  0.6486 -0.0196 -0.9377
 7132TIP3    H243032   1.663   6.792   0.165  1.1580  0.6283 -2.0862
 7133TIP3   OH243033   6.791   3.582   0.189 -0.5077  0.4533  0.8453
 7133TIP3    H143034   6.823   3.660   0.235 -1.1230  0.3733  1.4213
 7133TIP3    H243035   6.701   3.572   0.219 -2.6970  3.3080 -4.2444
 7134TIP3   OH243036   0.897   6.391   7.739  0.1260 -0.4102  0.2513
 7134TIP3    H143037   0.853   6.437   7.811  0.1189 -0.1985  0.1129
 7134TIP3    H243038   0.897   6.454   7.667 -0.6828 -0.9554 -0.2302
 7135TIP3   OH243039   2.655   0.555   2.043  0.0298 -0.1979  0.4870
 7135TIP3    H143040   2.610   0.608   2.110 -1.6568  0.5583 -1.1805
 7135TIP3    H243041   2.746   0.554   2.070 -0.4363  1.0456  2.1941
 7136TIP3   OH243042   1.337   7.046   2.161  0.1074  0.1656 -1.0577
 7136TIP3    H143043   1.349   6.960   2.120 -1.3099 -1.2318  1.2902
 7136TIP3    H243044   1.271   7.031   2.229  1.2813  2.6595  0.7400
 7137TIP3   OH243045   0.687   7.187   2.436 -0.0230  0.0298  0.5823
 7137TIP3    H143046   0.623   7.242   2.481 -0.0999 -0.6019  1.2518
 7137TIP3    H243047   0.771   7.226   2.459 -0.1735  1.0846 -0.6023
 7138TIP3   OH243048   1.110   5.539   7.935  0.3870 -0.1883 -0.2498
 7138TIP3    H143049   1.137   5.576   7.851 -0.2840 -1.4473 -1.0370
 7138TIP3    H243050   1.182   5.482   7.960 -0.6953 -2.1281 -1.4539
 7139TIP3   OH243051   6.219   0.305   1.243 -0.6945  0.2801  0.0555
 7139TIP3    H143052   6.213   0.254   1.162 -2.0627  0.8441 -0.2138
 7139TIP3    H243053   6.178   0.249   1.310 -0.0639  0.0441  0.2455
 7140TIP3   OH243054   1.248   5.915   1.073 -0.3878  0.0880 -0.1343
 7140TIP3    H143055   1.268   5.926   1.166 -2.2953 -1.6737  0.5109
 7140TIP3    H243056   1.271   5.823   1.054  0.6804  0.6262 -1.6060
 7141TIP3   OH243057   2.367   5.852   1.934 -0.4875 -0.0797  0.1215
 7141TIP3    H143058   2.322   5.779   1.977 -0.9739  1.0304  1.5663
 7141TIP3    H243059   2.350   5.927   1.991 -0.3848  1.2646 -1.5687
 7142TIP3   OH243060   1.439   6.936   7.330 -0.1674 -0.0407 -0.4042
 7142TIP3    H143061   1.528   6.942   7.365 -0.7951  2.0290  0.9322
 7142TIP3    H243062   1.448   6.961   7.238  0.4747  1.4136  0.0314
 7143TIP3   OH243063   6.656   6.307   2.389  0.1035  0.0553 -0.2998
 7143TIP3    H143064   6.574   6.313   2.437  0.5728 -0.7319  0.6133
 7143TIP3    H243065   6.697   6.393   2.402 -0.1259  0.1128  0.0548
 7144TIP3   OH243066   0.584   6.498   0.506 -0.2128 -0.4713 -0.6051
 7144TIP3    H143067   0.574   6.592   0.490  0.6266 -0.8218 -3.3594
 7144TIP3    H243068   0.678   6.482   0.501 -0.2829 -1.3447  0.6485
 7145TIP3   OH243069   4.328   0.788   0.800  0.4204  0.1560 -0.7531
 7145TIP3    H143070   4.321   0.877   0.764  0.2416  0.1393 -0.7573
 7145TIP3    H243071   4.363   0.736   0.727 -0.2379  0.0574 -1.0026
 7146TIP3   OH243072   3.153   6.721   2.003  0.6173 -0.2669 -0.6827
 7146TIP3    H143073   3.098   6.792   2.037 -0.2415 -1.0007 -0.5133
 7146TIP3    H243074   3.205   6.761   1.934 -1.1874  0.1319 -1.8523
 7147TIP3   OH243075   3.179   0.569   0.268  0.4991 -0.2564  0.2556
 7147TIP3    H143076   3.129   0.647   0.245  1.8387  0.6650  0.3781
 7147TIP3    H243077   3.119   0.515   0.319 -1.0006 -0.1207 -1.3250
 7148TIP3   OH243078   4.339   0.102   2.438 -0.2422 -0.7367  0.6892
 7148TIP3    H143079   4.425   0.060   2.434  0.5250  0.7160  1.2178
 7148TIP3    H243080   4.358   0.192   2.467 -1.8951 -0.2637  0.3631
 7149TIP3   OH243081   0.126   5.955   0.657 -0.3421 -0.0279 -0.5499
 7149TIP3    H143082   0.075   5.963   0.576 -1.5284 -0.0966  0.1740
 7149TIP3    H243083   0.139   6.045   0.686 -0.4171 -0.0263 -0.5205
 7150TIP3   OH243084   2.578   6.549   1.031  0.3104  0.7413  0.2805
 7150TIP3    H143085   2.623   6.629   1.059  0.2562  0.2725  1.7092
 7150TIP3    H243086   2.555   6.504   1.112 -1.1583  0.0865 -0.4837
 7151TIP3   OH243087   4.421   0.638   0.576 -0.4428  0.3748  0.1970
 7151TIP3    H143088   4.355   0.677   0.519  0.2315  1.7463  0.3217
 7151TIP3    H243089   4.414   0.544   0.561 -0.7255  0.6754 -1.6766
 7152TIP3   OH243090   3.874   5.687   2.024  0.3390 -0.1955  0.4369
 7152TIP3    H143091   3.828   5.766   1.996 -1.3201 -1.0451  0.6409
 7152TIP3    H243092   3.931   5.664   1.951 -1.2125 -0.3306 -0.7502
 7153TIP3   OH243093   2.785   5.521   1.703 -0.1150  0.0085  0.0615
 7153TIP3    H143094   2.712   5.528   1.640  0.4647  0.0661 -0.6104
 7153TIP3    H243095   2.744   5.536   1.788 -0.9380 -0.1896 -0.2853
 7154TIP3   OH243096   0.929   6.584   1.496  0.1561  0.1803 -0.0487
 7154TIP3    H143097   0.883   6.667   1.485  2.1462  1.1804 -1.1650
 7154TIP3    H243098   0.871   6.532   1.552 -2.5861  1.1242 -1.8993
 7155TIP3   OH243099   1.685   6.547   0.498 -0.5043  0.2358 -0.2363
 7155TIP3    H143100   1.706   6.637   0.525 -0.9573  0.2960 -0.0815
 7155TIP3    H243101   1.757   6.522   0.440  0.2707  0.2587  0.6904
 7156TIP3   OH243102   1.568   5.111   0.291 -0.3788  0.0247  0.4305
 7156TIP3    H143103   1.498   5.046   0.300 -1.1761  0.5717 -1.5381
 7156TIP3    H243104   1.522   5.195   0.286  0.3447  0.3248 -1.6962
 7157TIP3   OH243105   3.690   5.566   3.056  0.0417  0.1707  0.7712
 7157TIP3    H143106   3.756   5.581   3.122  0.1612 -2.5066  1.3266
 7157TIP3    H243107   3.738   5.535   2.979 -0.4332 -0.8354  0.8576
 7158TIP3   OH243108   1.131   5.338   0.034  0.0525  0.5588 -0.1510
 7158TIP3    H143109   1.115   5.316  -0.058 -0.1195 -0.0024  0.0103
 7158TIP3    H243110   1.204   5.399   0.032  0.2808  0.2705 -0.6376
 7159TIP3   OH243111   5.122   6.026   1.611  0.8580 -0.1083  0.0625
 7159TIP3    H143112   5.089   6.088   1.675  2.2556 -0.8861  1.5759
 7159TIP3    H243113   5.218   6.030   1.620  1.0403 -1.0719 -1.1700
 7160TIP3   OH243114   5.815   6.979   2.201  0.0281 -0.0920  0.1126
 7160TIP3    H143115   5.731   6.962   2.244 -0.9160 -0.2725 -1.7426
 7160TIP3    H243116   5.864   7.033   2.263 -1.0183 -0.9349  1.6906
 7161TIP3   OH243117   4.467   6.978   0.256  0.5828  0.0077  0.1075
 7161TIP3    H143118   4.473   6.912   0.325  0.2456 -0.7819 -0.6126
 7161TIP3    H243119   4.556   7.013   0.249  1.1993 -1.6368 -0.7178
 7162TIP3   OH243120   5.612   7.203   1.075  0.2187 -0.3042 -0.3367
 7162TIP3    H143121   5.645   7.159   1.154  1.1680  0.0216 -0.5480
 7162TIP3    H243122   5.687   7.206   1.016 -0.1110  0.7310 -0.7040
 7163TIP3   OH243123   3.808   4.830   2.690 -0.2147  0.1151  0.2839
 7163TIP3    H143124   3.730   4.880   2.713  0.3476  1.4283 -0.6000
 7163TIP3    H243125   3.775   4.757   2.638 -0.8366  0.9080 -0.4620
 7164TIP3   OH243126   4.145   4.386   1.207  0.1155 -0.6151 -0.3284
 7164TIP3    H143127   4.079   4.333   1.162  0.1101 -1.6899  0.8932
 7164TIP3    H243128   4.132   4.367   1.300 -0.7629  2.6279  0.2438
 7165TIP3   OH243129   5.157   0.324   8.437 -0.0625  0.4063  0.2326
 7165TIP3    H143130   5.122   0.264   8.371 -0.3837  1.4159 -0.5386
 7165TIP3    H243131   5.158   0.273   8.518  0.3321 -0.8560 -0.5438
 7166TIP3   OH243132   5.102   0.843   2.242 -0.0817  0.3265 -0.1840
 7166TIP3    H143133   5.070   0.754   2.225  0.1483  0.2964 -0.4732
 7166TIP3    H243134   5.095   0.853   2.337 -0.1972  0.0339 -0.1585
 7167TIP3   OH243135   3.788   0.167   0.577  0.6242  0.5268 -0.1715
 7167TIP3    H143136   3.731   0.191   0.649 -0.9375 -1.1279 -0.8267
 7167TIP3    H243137   3.729   0.135   0.508  2.2655 -0.6235 -1.0980
 7168TIP3   OH243138   3.612   4.048   0.097 -0.0770  0.5483 -0.2247
 7168TIP3    H143139   3.606   4.040   0.002  0.0121 -0.3263 -0.1590
 7168TIP3    H243140   3.537   4.000   0.130  0.4984 -0.0811  0.1821
 7169TIP3   OH243141   3.964   0.240   2.533  0.0277  0.5839  0.2820
 7169TIP3    H143142   3.956   0.184   2.610  1.1789  2.4826  1.8300
 7169TIP3    H243143   4.050   0.282   2.542  0.3066  0.6233 -2.1942
 7170TIP3   OH243144   2.919   1.399   0.872  0.5068 -0.3116  0.3744
 7170TIP3    H143145   2.864   1.321   0.859  0.2384 -0.0527 -0.0769
 7170TIP3    H243146   2.902   1.426   0.962 -1.3875  0.7280 -0.2580
 7171TIP3   OH243147   5.853   7.209   8.419 -0.4197 -0.2637  0.0769
 7171TIP3    H143148   5.765   7.245   8.417 -0.0774  0.5642 -0.2660
 7171TIP3    H243149   5.887   7.233   8.506  1.2714  3.8338 -1.6062
 7172TIP3   OH243150   3.548   0.676   7.543 -0.4963 -0.5103  0.7200
 7172TIP3    H143151   3.478   0.730   7.580 -0.0102 -0.7760  2.0230
 7172TIP3    H243152   3.596   0.736   7.485 -1.8279 -0.3480 -0.2478
 7173TIP3   OH243153   4.803   6.659   2.303  0.2344 -0.1017 -0.5760
 7173TIP3    H143154   4.885   6.707   2.315  0.4455 -0.6230  0.0985
 7173TIP3    H243155   4.780   6.629   2.391 -0.6616  0.0177 -0.7679
 7174TIP3   OH243156   6.519   4.408   2.249 -0.5015 -0.3682  0.0481
 7174TIP3    H143157   6.581   4.335   2.248 -0.3178 -0.2172 -1.0678
 7174TIP3    H243158   6.497   4.420   2.341 -0.7568 -2.0145  0.2255
 7175TIP3   OH243159   4.205   6.189   0.905 -0.1584  0.1016  0.0465
 7175TIP3    H143160   4.114   6.167   0.883 -0.4174  0.8408  0.3538
 7175TIP3    H243161   4.229   6.256   0.840  0.6294 -1.0810 -0.9047
 7176TIP3   OH243162   4.459   7.037   2.182  0.2659 -0.0521 -0.1160
 7176TIP3    H143163   4.470   7.119   2.132  0.7652  0.5519  0.9604
 7176TIP3    H243164   4.365   7.029   2.195  0.2625  0.7996  0.4703
 7177TIP3   OH243165   5.731   6.215   0.898  0.2729  0.3136  0.0321
 7177TIP3    H143166   5.741   6.295   0.847  0.0411  1.9637  2.5375
 7177TIP3    H243167   5.817   6.173   0.893  0.8477  1.4746 -0.0383
 7178TIP3   OH243168   0.096   4.665   0.557 -0.1819  0.3201  0.3116
 7178TIP3    H143169   0.185   4.670   0.522  0.0155  0.2121  0.8032
 7178TIP3    H243170   0.047   4.731   0.506 -0.2117 -0.7523 -1.0947
 7179TIP3   OH243171   5.577   6.656   2.042  0.0514 -0.3163  0.3050
 7179TIP3    H143172   5.666   6.639   2.073  1.0833 -1.3266 -3.0052
 7179TIP3    H243173   5.588   6.688   1.953 -3.0026 -3.2390 -1.2541
 7180TIP3   OH243174   6.737   0.332   2.414 -0.3680 -0.6311  0.4711
 7180TIP3    H143175   6.658   0.280   2.427 -1.8931  1.8062  1.1568
 7180TIP3    H243176   6.710   0.405   2.358  1.5431 -0.0914  0.1960
 7181TIP3   OH243177   6.279   1.143   1.343 -0.6463 -0.2106 -0.4948
 7181TIP3    H143178   6.300   1.053   1.367 -1.5101 -1.0771 -2.8744
 7181TIP3    H243179   6.352   1.170   1.287  0.7659  1.3937  2.0255
 7182TIP3   OH243180   5.327   6.723   8.481  0.1413  0.3812  0.3515
 7182TIP3    H143181   5.397   6.786   8.502 -0.4358  0.3694  2.3350
 7182TIP3    H243182   5.251   6.755   8.529 -0.3038 -1.5372  0.9305
 7183TIP3   OH243183   0.087   6.192   0.893  0.0530 -0.7998  0.1060
 7183TIP3    H143184   0.032   6.117   0.870 -0.4394 -1.1662  2.3327
 7183TIP3    H243185   0.117   6.173   0.982  0.0774  1.5502  0.6334
 7184TIP3   OH243186   0.252   0.301   7.089 -0.5824 -0.1345 -0.3306
 7184TIP3    H143187   0.185   0.289   7.022 -0.8562  0.4790 -0.1692
 7184TIP3    H243188   0.257   0.216   7.134 -1.6856  0.0024  0.0580
 7185TIP3   OH243189   0.635   6.149   0.914 -0.4626  0.2298 -0.1773
 7185TIP3    H143190   0.686   6.072   0.891 -1.5732 -0.7817  0.7034
 7185TIP3    H243191   0.585   6.123   0.991 -1.1960  1.6753 -0.1437
 7186TIP3   OH243192   7.269   7.021   1.657 -0.4565  0.5076 -0.0718
 7186TIP3    H143193   7.294   7.103   1.701  0.8945  0.0257  0.1011
 7186TIP3    H243194   7.324   6.955   1.698 -0.0549 -0.1523 -1.6408
 7187TIP3   OH243195   6.367   7.131   0.920  0.0056  0.2651 -0.8763
 7187TIP3    H143196   6.279   7.161   0.897  0.0480  0.0735 -1.2813
 7187TIP3    H243197   6.413   7.210   0.948 -0.5435  0.2476  0.1245
 7188TIP3   OH243198   5.418   6.870   0.958  0.1402  0.4236 -0.0354
 7188TIP3    H143199   5.382   6.799   1.011  0.5088  0.2019 -0.0768
 7188TIP3    H243200   5.390   6.950   1.002 -0.1213  0.2491  0.1165
 7189TIP3   OH243201   1.431   0.933   1.760  0.1222 -0.6683 -0.0316
 7189TIP3    H143202   1.457   0.865   1.698 -0.2088  0.3001 -1.2689
 7189TIP3    H243203   1.410   0.886   1.841 -1.5901 -2.2070 -1.3131
 7190TIP3   OH243204   5.393   6.872   7.200  0.6133  0.0245 -0.3785
 7190TIP3    H143205   5.421   6.854   7.290 -0.7142 -0.5514 -0.0614
 7190TIP3    H243206   5.320   6.812   7.185 -0.3182  1.3236 -1.2336
   7.34166   7.34166   8.50000
