Title
43206
    1CHL1    C3    1   4.267   3.975   5.639 -0.1567  0.6521  0.2936
    1CHL1    H3    2   4.166   4.003   5.676 -0.3785 -0.5836  0.6475
    1CHL1    O3    3   4.347   3.990   5.752 -0.4218 -1.1853 -0.2491
    1CHL1   H3'    4   4.434   4.003   5.715 -0.7263  0.5082 -0.3654
    1CHL1    C4    5   4.293   3.828   5.595  0.1276 -0.0224 -0.1986
    1CHL1   H4A    6   4.399   3.798   5.587  0.0546  0.1636 -2.2439
    1CHL1   H4B    7   4.251   3.762   5.674  1.1922  0.9403  1.2031
    1CHL1    C5    8   4.224   3.793   5.461 -0.2742 -0.4544 -0.2877
    1CHL1    C6    9   4.133   3.695   5.447  0.6710  0.6338 -0.2324
    1CHL1    H6   10   4.120   3.623   5.528  0.7843 -0.9114 -1.5561
    1CHL1    C7   11   4.055   3.653   5.324 -0.4696 -0.5051  0.5947
    1CHL1   H7A   12   4.063   3.544   5.303  1.3148 -0.0770 -1.0644
    1CHL1   H7B   13   3.948   3.681   5.333  0.0740  2.1737 -0.8764
    1CHL1    C8   14   4.107   3.726   5.194 -0.2817 -0.6273 -0.2532
    1CHL1    H8   15   4.203   3.674   5.171 -1.0195 -1.7514 -0.8178
    1CHL1   C14   16   3.999   3.724   5.087  0.4262 -0.6176  1.0435
    1CHL1   H14   17   3.906   3.777   5.118  0.7820  1.9426 -2.0083
    1CHL1   C15   18   3.941   3.585   5.037  0.2567  0.2134 -0.1629
    1CHL1  H15A   19   4.018   3.506   5.021  1.1581  0.6929  1.6720
    1CHL1  H15B   20   3.867   3.538   5.104  0.7927 -1.6681 -0.8409
    1CHL1   C16   21   3.868   3.615   4.903  0.5808 -0.0782  0.3706
    1CHL1  H16A   22   3.910   3.544   4.828  1.5099 -0.1350  0.9284
    1CHL1  H16B   23   3.759   3.600   4.917 -0.0972  2.3167 -2.0213
    1CHL1   C17   24   3.914   3.755   4.862 -0.2312 -0.2988 -0.7039
    1CHL1   H17   25   3.832   3.824   4.890  2.5251  4.0147 -2.7274
    1CHL1   C13   26   4.036   3.786   4.951 -0.5431  0.2273 -0.2860
    1CHL1   C18   27   4.153   3.703   4.883  0.3640 -0.1316 -0.7915
    1CHL1  H18A   28   4.180   3.751   4.786 -1.7526 -1.2728 -2.0016
    1CHL1  H18B   29   4.236   3.711   4.955 -0.1680  0.4351 -0.2377
    1CHL1  H18C   30   4.125   3.598   4.860 -1.5818  0.1276  0.3249
    1CHL1   C12   31   4.075   3.934   4.986  0.2784  0.3133  0.2131
    1CHL1  H12A   32   4.126   3.976   4.897 -0.3360 -1.8515 -1.2060
    1CHL1  H12B   33   3.976   3.979   5.011  0.1429 -0.9930  2.1194
    1CHL1   C11   34   4.182   3.946   5.096  0.1194  0.1242  0.0620
    1CHL1  H11A   35   4.273   3.911   5.042  0.1736 -0.9796  0.8487
    1CHL1  H11B   36   4.197   4.053   5.122 -1.1279  0.4640 -0.5720
    1CHL1    C9   37   4.141   3.872   5.223  0.6368  0.9114 -1.1630
    1CHL1    H9   38   4.053   3.919   5.273  2.1249  3.3304 -0.7215
    1CHL1   C10   39   4.241   3.896   5.342  0.6878  0.2709  0.0617
    1CHL1   C19   40   4.378   3.864   5.279 -0.0675  0.0482  0.0409
    1CHL1  H19A   41   4.410   3.939   5.204 -0.4300 -0.9268 -1.1085
    1CHL1  H19B   42   4.449   3.888   5.361 -0.3252  0.6384  0.0978
    1CHL1  H19C   43   4.405   3.766   5.234 -0.1029 -0.5395  1.2607
    1CHL1    C1   44   4.229   4.042   5.404 -1.1119  0.0244  0.3708
    1CHL1   H1A   45   4.256   4.116   5.325  1.4759 -1.3179 -0.0669
    1CHL1   H1B   46   4.125   4.053   5.442 -0.9071 -2.5496  1.7898
    1CHL1    C2   47   4.311   4.072   5.534 -0.5426  0.0220 -0.3772
    1CHL1   H2A   48   4.291   4.177   5.564  1.1776  0.3010 -0.1635
    1CHL1   H2B   49   4.420   4.071   5.515 -0.8859  1.2010 -2.5452
    1CHL1   C20   50   3.925   3.769   4.710 -0.4382  0.2520  0.1595
    1CHL1   H20   51   4.001   3.698   4.671 -1.1308 -0.4607  0.1073
    1CHL1   C21   52   3.967   3.909   4.672 -0.1328  0.2713 -0.1027
    1CHL1  H21A   53   3.891   3.977   4.714  0.0965  0.6575 -0.3091
    1CHL1  H21B   54   3.967   3.930   4.563 -4.5917 -0.3868 -0.3139
    1CHL1  H21C   55   4.074   3.926   4.699  0.4064 -0.1779 -1.8304
    1CHL1   C22   56   3.796   3.726   4.649 -0.1996  0.8203  0.1999
    1CHL1  H22A   57   3.771   3.620   4.675 -0.0014  0.5367 -0.7526
    1CHL1  H22B   58   3.716   3.789   4.695 -0.8803  0.1615 -0.0605
    1CHL1   C23   59   3.778   3.730   4.493 -0.2795 -0.1256 -0.7402
    1CHL1  H23A   60   3.776   3.839   4.472  3.8032  0.2992  0.7011
    1CHL1  H23B   61   3.868   3.689   4.441  1.3717  2.0306  0.3427
    1CHL1   C24   62   3.675   3.644   4.417  0.8932 -0.2822 -0.6228
    1CHL1  H24A   63   3.718   3.544   4.439  0.8329  0.4471  3.3300
    1CHL1  H24B   64   3.573   3.640   4.461 -0.3274 -1.6014 -3.4606
    1CHL1   C25   65   3.670   3.661   4.262 -0.0239 -0.0446  0.4174
    1CHL1   H25   66   3.774   3.676   4.224  0.5024 -1.5619  1.2206
    1CHL1   C26   67   3.604   3.535   4.198 -0.8878 -0.5137 -0.2258
    1CHL1  H26A   68   3.609   3.533   4.087  1.3869  0.5813 -0.1581
    1CHL1  H26B   69   3.664   3.449   4.233  0.0232 -0.4326 -1.5723
    1CHL1  H26C   70   3.497   3.515   4.222 -0.9941 -2.3973 -2.1588
    1CHL1   C27   71   3.592   3.792   4.226  0.5744  0.8384  0.3254
    1CHL1  H27A   72   3.482   3.780   4.236  0.2636  2.2188 -1.2527
    1CHL1  H27B   73   3.625   3.881   4.283  0.5875  0.5340  0.7931
    1CHL1  H27C   74   3.610   3.808   4.117  2.2880 -1.0956  0.3044
    2CHL1    C3   75   3.848   3.695   5.697  0.0957  0.2363  0.5638
    2CHL1    H3   76   3.948   3.692   5.648  1.5452  1.5738  3.3103
    2CHL1    O3   77   3.880   3.716   5.831 -0.1326 -0.1442  0.0317
    2CHL1   H3'   78   3.795   3.711   5.876 -1.2086  0.6548 -1.8144
    2CHL1    C4   79   3.757   3.810   5.639 -0.5166 -0.4574 -0.3713
    2CHL1   H4A   80   3.677   3.820   5.715  0.7774  0.4072  0.8904
    2CHL1   H4B   81   3.823   3.899   5.647  0.5757 -1.1438 -1.5038
    2CHL1    C5   82   3.703   3.788   5.501  0.3560  0.1817 -0.4008
    2CHL1    C6   83   3.726   3.884   5.408  0.0977  0.0480  0.3385
    2CHL1    H6   84   3.775   3.978   5.439  1.4529  0.1857 -2.1181
    2CHL1    C7   85   3.677   3.887   5.264  0.5327  0.0471  0.0598
    2CHL1   H7A   86   3.613   3.976   5.244  1.9027  0.9263 -0.4471
    2CHL1   H7B   87   3.762   3.879   5.194 -0.5432  0.7459 -1.3500
    2CHL1    C8   88   3.571   3.771   5.249  0.4314 -0.5464  0.8665
    2CHL1    H8   89   3.488   3.825   5.301 -0.0454  1.0363 -1.4666
    2CHL1   C14   90   3.551   3.742   5.098 -0.4013 -0.2100 -0.6100
    2CHL1   H14   91   3.648   3.694   5.070 -0.8013 -1.1538 -0.4090
    2CHL1   C15   92   3.537   3.854   4.991  0.3193 -0.2103 -0.1395
    2CHL1  H15A   93   3.469   3.936   5.022 -1.1172 -0.7027 -1.9278
    2CHL1  H15B   94   3.639   3.894   4.971  0.2854 -0.8861 -1.7334
    2CHL1   C16   95   3.475   3.779   4.870 -0.1464 -0.1816 -0.2272
    2CHL1  H16A   96   3.375   3.815   4.839 -1.2042 -0.8078  2.3237
    2CHL1  H16B   97   3.535   3.788   4.777  1.5642 -2.6597  0.5738
    2CHL1   C17   98   3.451   3.632   4.907  0.1213 -0.3085  0.7109
    2CHL1   H17   99   3.539   3.569   4.885  0.7440  0.0856  2.0633
    2CHL1   C13  100   3.448   3.633   5.064  0.1750 -0.3247  0.0143
    2CHL1   C18  101   3.322   3.682   5.133  0.2357  0.2330 -0.1868
    2CHL1  H18A  102   3.232   3.619   5.115  0.2859  0.1381 -0.1065
    2CHL1  H18B  103   3.332   3.690   5.243  1.7885 -0.1053 -0.2896
    2CHL1  H18C  104   3.301   3.780   5.086  1.1646 -0.1955 -1.5521
    2CHL1   C12  105   3.501   3.510   5.127 -0.1199  0.5253  0.0333
    2CHL1  H12A  106   3.448   3.413   5.118 -0.5711  0.8743 -1.1269
    2CHL1  H12B  107   3.600   3.490   5.080  0.8876  2.8777  1.0860
    2CHL1   C11  108   3.537   3.518   5.282 -0.1485 -0.4206  0.6083
    2CHL1  H11A  109   3.445   3.519   5.344 -0.0133  0.8415  0.8068
    2CHL1  H11B  110   3.604   3.434   5.312 -0.9518 -1.7027 -1.1498
    2CHL1    C9  111   3.614   3.647   5.323 -0.5091  0.7800 -0.3001
    2CHL1    H9  112   3.714   3.642   5.277 -0.7432 -0.9657 -0.6796
    2CHL1   C10  113   3.631   3.663   5.474 -0.2981  0.4943  0.2215
    2CHL1   C19  114   3.496   3.654   5.549  0.6459 -0.4224 -0.6143
    2CHL1  H19A  115   3.509   3.670   5.658  2.5876 -0.2105 -0.8619
    2CHL1  H19B  116   3.429   3.722   5.492  1.6849  0.5972 -0.6136
    2CHL1  H19C  117   3.455   3.551   5.535  0.3682 -0.5949  1.4242
    2CHL1    C1  118   3.729   3.546   5.534 -0.0649  0.6161 -0.9119
    2CHL1   H1A  119   3.666   3.455   5.527 -1.3667  1.5354 -1.3388
    2CHL1   H1B  120   3.816   3.523   5.470  0.5407  1.1079 -0.2684
    2CHL1    C2  121   3.763   3.568   5.687  0.3805  0.0949  0.0711
    2CHL1   H2A  122   3.812   3.479   5.733  0.8846  1.4687  2.2468
    2CHL1   H2B  123   3.670   3.571   5.748 -0.0760  0.6487 -0.6542
    2CHL1   C20  124   3.329   3.572   4.833  0.3656  0.1001  0.9907
    2CHL1   H20  125   3.238   3.635   4.851  0.4194  0.2180  0.8490
    2CHL1   C21  126   3.298   3.435   4.884 -0.2853  0.3574 -0.2787
    2CHL1  H21A  127   3.266   3.430   4.991  1.3081 -3.9149  0.1408
    2CHL1  H21B  128   3.385   3.366   4.886  0.0312  0.7296 -1.3428
    2CHL1  H21C  129   3.218   3.390   4.822  0.9124 -1.9169 -0.2407
    2CHL1   C22  130   3.363   3.569   4.683  0.4612  0.2681 -0.0427
    2CHL1  H22A  131   3.362   3.669   4.635  1.2111  0.1423 -0.3170
    2CHL1  H22B  132   3.461   3.518   4.674 -2.4728 -5.5168 -1.3927
    2CHL1   C23  133   3.269   3.484   4.599 -0.3870 -0.3022 -0.1627
    2CHL1  H23A  134   3.293   3.377   4.620  3.5828  0.4812 -0.4142
    2CHL1  H23B  135   3.171   3.514   4.642 -0.2784 -2.7290  1.8805
    2CHL1   C24  136   3.278   3.516   4.445  0.0953 -0.0405  0.1832
    2CHL1  H24A  137   3.264   3.625   4.425 -0.2677  0.2990  2.2121
    2CHL1  H24B  138   3.376   3.473   4.417  0.6886  2.4678 -1.8446
    2CHL1   C25  139   3.184   3.435   4.356  0.0675  0.4384  0.4303
    2CHL1   H25  140   3.162   3.333   4.393 -2.2443  0.3738 -0.9849
    2CHL1   C26  141   3.043   3.504   4.349  0.2289 -0.3838  0.6298
    2CHL1  H26A  142   3.016   3.550   4.446  0.6884  3.9941 -1.2048
    2CHL1  H26B  143   3.039   3.591   4.280 -3.5402 -1.5043 -0.6678
    2CHL1  H26C  144   2.959   3.445   4.307 -0.2820  0.9700 -0.2843
    2CHL1   C27  145   3.240   3.422   4.215 -0.3561 -0.2544  0.4966
    2CHL1  H27A  146   3.175   3.361   4.149  3.2222 -1.3385 -2.2070
    2CHL1  H27B  147   3.257   3.526   4.180  0.3343 -0.0872  1.3094
    2CHL1  H27C  148   3.338   3.370   4.212 -0.0583  0.3881 -0.9197
    3CHL1    C3  149   3.253   3.914   5.862  0.1465 -0.4362  0.5812
    3CHL1    H3  150   3.322   3.837   5.821 -2.3197 -0.8030 -3.1280
    3CHL1    O3  151   3.234   3.898   6.002  0.6673  0.4890 -0.1048
    3CHL1   H3'  152   3.254   3.986   6.034  1.0930 -0.4651  2.3913
    3CHL1    C4  153   3.299   4.055   5.833  0.1474  0.9890  0.7552
    3CHL1   H4A  154   3.231   4.135   5.869 -2.1544 -0.8047  0.5029
    3CHL1   H4B  155   3.398   4.078   5.877  1.5177  1.5714 -2.4702
    3CHL1    C5  156   3.303   4.078   5.682  0.1482 -0.1369  0.3092
    3CHL1    C6  157   3.414   4.124   5.616 -0.6164 -0.2548 -0.9757
    3CHL1    H6  158   3.504   4.143   5.675 -1.8301  0.3378  0.7219
    3CHL1    C7  159   3.426   4.144   5.467 -0.1554  0.4764  0.9409
    3CHL1   H7A  160   3.478   4.235   5.431  1.8045 -0.3808  1.5515
    3CHL1   H7B  161   3.480   4.052   5.436 -0.5879  0.9996 -1.4605
    3CHL1    C8  162   3.289   4.147   5.395  0.1934 -0.5179  0.1279
    3CHL1    H8  163   3.235   4.241   5.420  0.6977 -0.8782  2.7017
    3CHL1   C14  164   3.304   4.136   5.245 -0.1627  0.1970  0.1567
    3CHL1   H14  165   3.343   4.035   5.221 -1.5781 -0.1401 -0.7497
    3CHL1   C15  166   3.407   4.226   5.170 -0.6755  0.1520 -0.0550
    3CHL1  H15A  167   3.421   4.324   5.220 -0.3956  0.2049 -0.2407
    3CHL1  H15B  168   3.506   4.176   5.174 -0.8594 -0.4241 -2.0180
    3CHL1   C16  169   3.352   4.244   5.028  0.4365  0.7071  0.1433
    3CHL1  H16A  170   3.321   4.350   5.016 -0.6985  0.2954 -0.6754
    3CHL1  H16B  171   3.421   4.215   4.947 -1.6288 -1.2527 -0.9719
    3CHL1   C17  172   3.225   4.154   5.024  0.8046 -0.6345 -0.2802
    3CHL1   H17  173   3.263   4.051   5.009 -2.5378 -1.9095 -0.3018
    3CHL1   C13  174   3.170   4.142   5.170  0.0035 -0.1284 -0.4381
    3CHL1   C18  175   3.097   4.279   5.205 -0.2343  0.9952  0.1098
    3CHL1  H18A  176   3.168   4.365   5.204  0.1227  0.7249  1.9667
    3CHL1  H18B  177   3.017   4.305   5.133  0.5985  0.4512 -1.0279
    3CHL1  H18C  178   3.047   4.273   5.303  0.9117 -0.3776  0.6222
    3CHL1   C12  179   3.078   4.034   5.215  0.1274 -0.5871  0.2368
    3CHL1  H12A  180   2.978   4.040   5.166 -0.6852  1.3061  2.0860
    3CHL1  H12B  181   3.113   3.934   5.179 -1.6777 -0.9319 -0.6653
    3CHL1   C11  182   3.060   4.029   5.365 -0.2182 -0.3807  0.3369
    3CHL1  H11A  183   2.992   4.114   5.389 -2.7558 -2.5588  1.1446
    3CHL1  H11B  184   2.995   3.942   5.389 -2.0876  0.6177 -0.9604
    3CHL1    C9  185   3.193   4.040   5.445  0.2195  1.0333  0.0824
    3CHL1    H9  186   3.246   3.945   5.421 -0.3337  0.7913 -0.1847
    3CHL1   C10  187   3.171   4.029   5.600 -0.3225 -0.2898 -0.5633
    3CHL1   C19  188   3.045   4.116   5.627  0.0570 -0.1460 -0.2098
    3CHL1  H19A  189   2.959   4.060   5.585 -0.3534  0.5328 -0.2849
    3CHL1  H19B  190   3.037   4.137   5.736 -0.4195  0.8017 -0.4189
    3CHL1  H19C  191   3.045   4.220   5.587  0.4440 -0.7607 -1.8348
    3CHL1    C1  192   3.138   3.881   5.638 -0.2309 -0.8069 -0.9097
    3CHL1   H1A  193   3.047   3.843   5.587 -0.4378  0.2578 -1.3364
    3CHL1   H1B  194   3.225   3.814   5.620  0.8336 -0.0914  1.3932
    3CHL1    C2  195   3.117   3.875   5.793  0.0819 -0.5340  0.4701
    3CHL1   H2A  196   3.089   3.769   5.812 -0.3584 -0.2325  1.4844
    3CHL1   H2B  197   3.028   3.928   5.831 -1.0701 -0.6996 -1.8952
    3CHL1   C20  198   3.129   4.181   4.909  0.8959  0.0730  0.6920
    3CHL1   H20  199   3.030   4.214   4.946 -1.5751 -4.4826 -1.4337
    3CHL1   C21  200   3.080   4.045   4.849 -0.3855 -1.1762  0.1848
    3CHL1  H21A  201   2.987   4.049   4.788 -0.5972 -1.6377  0.4766
    3CHL1  H21B  202   3.035   3.989   4.933 -1.6092  0.1512  0.4247
    3CHL1  H21C  203   3.163   3.997   4.793  0.9299  0.3262  0.7956
    3CHL1   C22  204   3.163   4.290   4.803 -0.6153 -0.3566 -1.0308
    3CHL1  H22A  205   3.143   4.388   4.852  0.9234 -0.3007 -0.4776
    3CHL1  H22B  206   3.272   4.294   4.781  0.0592 -0.1984  2.1336
    3CHL1   C23  207   3.081   4.290   4.672  0.3342  0.0873 -0.6410
    3CHL1  H23A  208   3.120   4.211   4.604  2.5453  0.6986 -0.1328
    3CHL1  H23B  209   2.974   4.268   4.691  0.2441  1.1944  0.2166
    3CHL1   C24  210   3.079   4.418   4.583  0.3961 -0.1825 -0.2975
    3CHL1  H24A  211   3.006   4.481   4.638 -0.2716 -0.9225 -0.3194
    3CHL1  H24B  212   3.179   4.462   4.565  1.2808 -2.7167 -1.8885
    3CHL1   C25  213   3.008   4.397   4.445 -0.4525 -0.0683 -0.8044
    3CHL1   H25  214   3.061   4.317   4.390  2.2258 -0.0428  1.6179
    3CHL1   C26  215   2.865   4.353   4.450  0.2147  0.5395  0.4088
    3CHL1  H26A  216   2.845   4.252   4.494 -0.9356  0.8549  0.6062
    3CHL1  H26B  217   2.808   4.430   4.505 -0.1137  1.4122 -1.1372
    3CHL1  H26C  218   2.822   4.349   4.348 -0.0781  1.3301  0.4980
    3CHL1   C27  219   3.022   4.526   4.348 -0.0741  0.3102 -0.0322
    3CHL1  H27A  220   2.972   4.504   4.251  2.8160  1.8695 -1.9944
    3CHL1  H27B  221   2.972   4.610   4.400 -4.2948 -1.6625 -0.7427
    3CHL1  H27C  222   3.130   4.552   4.344 -0.2331  0.9852 -0.0539
    4CHL1    C3  223   3.869   4.484   5.836 -0.6835 -0.1359 -0.1343
    4CHL1    H3  224   3.897   4.589   5.814  1.5961 -0.7348 -0.1613
    4CHL1    O3  225   3.846   4.483   5.971 -0.0082  0.3759  0.7943
    4CHL1   H3'  226   3.937   4.475   6.000  0.4767 -0.0350 -0.7945
    4CHL1    C4  227   3.734   4.449   5.774  0.2179  0.8011 -0.3241
    4CHL1   H4A  228   3.694   4.349   5.803 -1.4068  1.0947 -1.4441
    4CHL1   H4B  229   3.654   4.517   5.812 -1.4442 -1.6677  0.7738
    4CHL1    C5  230   3.756   4.452   5.626 -0.1553 -0.5739  0.6322
    4CHL1    C6  231   3.671   4.529   5.551 -0.9214  0.3744 -1.2747
    4CHL1    H6  232   3.597   4.584   5.612  1.1361  0.9542  0.7827
    4CHL1    C7  233   3.684   4.545   5.402 -0.6897  0.0246  0.8806
    4CHL1   H7A  234   3.581   4.543   5.359 -0.2380  1.5288 -0.2867
    4CHL1   H7B  235   3.706   4.649   5.371  1.1091 -1.2417 -2.3496
    4CHL1    C8  236   3.770   4.438   5.332  0.2369  0.4532  0.1620
    4CHL1    H8  237   3.716   4.341   5.334  0.9153  0.0432 -1.0269
    4CHL1   C14  238   3.804   4.477   5.182  0.2192  0.3352 -0.5119
    4CHL1   H14  239   3.877   4.560   5.199  1.0800 -0.2528 -1.3196
    4CHL1   C15  240   3.687   4.532   5.097  0.1686 -0.5307 -0.3255
    4CHL1  H15A  241   3.603   4.460   5.110 -0.6937  0.3668 -0.8172
    4CHL1  H15B  242   3.650   4.630   5.134 -1.3157 -1.2299  0.0921
    4CHL1   C16  243   3.743   4.530   4.955  0.2085 -0.3544 -0.6522
    4CHL1  H16A  244   3.662   4.476   4.901 -1.6966 -1.2906  2.9236
    4CHL1  H16B  245   3.771   4.630   4.917 -0.0776 -0.3390 -0.8230
    4CHL1   C17  246   3.880   4.449   4.964  0.2759  0.5663 -0.1185
    4CHL1   H17  247   3.969   4.515   4.972  0.0241  1.3580 -3.1454
    4CHL1   C13  248   3.879   4.373   5.100  0.3243  0.3896  0.6748
    4CHL1   C18  249   3.794   4.249   5.069  0.0424 -0.5136 -0.1455
    4CHL1  H18A  250   3.702   4.269   5.009  0.0784 -0.0988 -0.0634
    4CHL1  H18B  251   3.859   4.174   5.019  1.4294 -0.2684  1.2638
    4CHL1  H18C  252   3.756   4.214   5.167  0.9103 -1.0125  0.0198
    4CHL1   C12  253   4.002   4.344   5.182  0.1542 -0.0881  0.4384
    4CHL1  H12A  254   4.076   4.275   5.135  0.1368  0.2334 -0.0542
    4CHL1  H12B  255   4.054   4.442   5.189 -1.2719  0.6596  0.6505
    4CHL1   C11  256   3.976   4.301   5.331 -0.2118  0.4643 -0.0642
    4CHL1  H11A  257   3.924   4.203   5.337  0.0498  0.1148 -2.7738
    4CHL1  H11B  258   4.075   4.283   5.379  2.0454 -0.3923 -4.7932
    4CHL1    C9  259   3.889   4.405   5.407 -0.5781  0.0848  0.1956
    4CHL1    H9  260   3.959   4.490   5.418  0.0142 -0.0937 -2.0412
    4CHL1   C10  261   3.861   4.364   5.560  0.2017  0.3792 -0.6357
    4CHL1   C19  262   3.824   4.208   5.567 -0.1806  0.0916  0.5561
    4CHL1  H19A  263   3.785   4.188   5.669 -1.2361  2.0300  0.5465
    4CHL1  H19B  264   3.743   4.176   5.498  0.8190  0.3343 -0.7475
    4CHL1  H19C  265   3.912   4.142   5.548 -0.2634  0.3511 -0.8056
    4CHL1    C1  266   3.994   4.383   5.639 -0.0382 -0.7773 -0.1811
    4CHL1   H1A  267   4.063   4.300   5.612 -1.0992 -1.0303 -2.2461
    4CHL1   H1B  268   4.036   4.484   5.619 -1.8536  0.1377  0.5134
    4CHL1    C2  269   3.970   4.378   5.796 -0.5895 -0.0352 -0.0938
    4CHL1   H2A  270   4.065   4.389   5.853 -1.2150  0.0317  0.9473
    4CHL1   H2B  271   3.925   4.282   5.827  0.4003  0.1716  2.0823
    4CHL1   C20  272   3.913   4.375   4.830  0.8505 -0.3885 -0.1352
    4CHL1   H20  273   3.824   4.309   4.816  0.2110  0.0699  1.6514
    4CHL1   C21  274   4.043   4.301   4.842  0.3788 -0.3942 -0.1339
    4CHL1  H21A  275   4.132   4.366   4.858  0.6653 -0.7708 -0.2013
    4CHL1  H21B  276   4.069   4.239   4.754 -0.1004 -1.6341  0.6009
    4CHL1  H21C  277   4.052   4.239   4.933  0.2471  0.8165  0.7148
    4CHL1   C22  278   3.924   4.466   4.705  0.0653  0.0883 -0.3243
    4CHL1  H22A  279   3.841   4.539   4.698  0.2168  0.2904 -0.0456
    4CHL1  H22B  280   3.999   4.543   4.732  1.3800 -1.1437 -0.3892
    4CHL1   C23  281   3.951   4.404   4.571 -0.6503 -0.8201 -0.0024
    4CHL1  H23A  282   4.056   4.370   4.565 -0.0559  1.0649 -0.9987
    4CHL1  H23B  283   3.885   4.316   4.563 -0.0045 -1.4667  1.5579
    4CHL1   C24  284   3.928   4.504   4.453  0.2598 -0.6025  0.3368
    4CHL1  H24A  285   3.830   4.553   4.471  0.8295  0.8802 -0.4777
    4CHL1  H24B  286   4.011   4.577   4.438  0.4840 -1.0134 -0.4669
    4CHL1   C25  287   3.929   4.443   4.309 -0.2238 -0.2403  0.5033
    4CHL1   H25  288   4.030   4.400   4.293  0.5694  0.8681  2.4878
    4CHL1   C26  289   3.826   4.326   4.290 -0.4115  0.0536  0.4109
    4CHL1  H26A  290   3.894   4.238   4.290 -0.1773  0.2175 -1.9583
    4CHL1  H26B  291   3.766   4.317   4.383  0.8971  1.4874  1.4353
    4CHL1  H26C  292   3.759   4.336   4.203  0.9001 -2.3096 -0.9300
    4CHL1   C27  293   3.930   4.552   4.207 -0.2951  0.1736  0.1423
    4CHL1  H27A  294   3.846   4.624   4.212  0.4288  1.1554 -1.5632
    4CHL1  H27B  295   4.022   4.613   4.211 -0.5092  0.5258 -0.3106
    4CHL1  H27C  296   3.925   4.514   4.103  0.9708  0.3898  0.0015
    5CHL1    C3  297   4.530   4.440   5.728  0.3143  0.7191  0.0211
    5CHL1    H3  298   4.436   4.382   5.735  0.9268 -0.5561 -1.9134
    5CHL1    O3  299   4.613   4.388   5.830 -0.4275  0.3330 -0.4986
    5CHL1   H3'  300   4.693   4.442   5.832  0.3309 -0.6105 -2.7536
    5CHL1    C4  301   4.602   4.405   5.596 -0.2277 -0.2520  0.1432
    5CHL1   H4A  302   4.699   4.459   5.592 -2.1482  3.4901  1.3786
    5CHL1   H4B  303   4.614   4.295   5.600  1.3522 -0.0682  0.7961
    5CHL1    C5  304   4.533   4.451   5.471 -0.0630  0.0505  0.1011
    5CHL1    C6  305   4.494   4.367   5.373 -0.1314  0.6828 -0.0187
    5CHL1    H6  306   4.518   4.260   5.382  0.2381  0.6171 -1.6439
    5CHL1    C7  307   4.427   4.409   5.243 -0.9685  0.9056 -0.6755
    5CHL1   H7A  308   4.475   4.361   5.155 -1.7234  1.7267 -1.5498
    5CHL1   H7B  309   4.324   4.372   5.258 -0.9516  0.9918 -0.3245
    5CHL1    C8  310   4.433   4.564   5.218 -0.4834  0.1120 -0.6012
    5CHL1    H8  311   4.537   4.586   5.187 -1.1671  0.7806 -2.4633
    5CHL1   C14  312   4.328   4.603   5.109 -0.1507 -0.1328  0.0874
    5CHL1   H14  313   4.228   4.568   5.141  0.3351 -2.1045 -0.4759
    5CHL1   C15  314   4.344   4.534   4.976 -0.0134 -0.7181  0.3745
    5CHL1  H15A  315   4.450   4.530   4.944  0.4225 -1.3369  1.8649
    5CHL1  H15B  316   4.299   4.432   4.978  1.1827 -1.2416  0.8713
    5CHL1   C16  317   4.260   4.630   4.886  0.3285 -0.5303  0.1393
    5CHL1  H16A  318   4.314   4.659   4.793  1.3351 -0.0525  0.8694
    5CHL1  H16B  319   4.165   4.580   4.860  0.0758 -0.2936  0.6133
    5CHL1   C17  320   4.222   4.751   4.971 -0.0438  0.0240 -0.3974
    5CHL1   H17  321   4.118   4.728   5.003  0.4095 -1.1760  0.2229
    5CHL1   C13  322   4.318   4.751   5.087  0.2622 -0.1914 -0.9285
    5CHL1   C18  323   4.450   4.795   5.028  0.1375  0.2066 -0.1652
    5CHL1  H18A  324   4.475   4.747   4.931 -0.0091 -1.3864  0.5564
    5CHL1  H18B  325   4.456   4.903   5.004  4.0065  0.5983  2.0606
    5CHL1  H18C  326   4.534   4.779   5.100  0.8328  0.4239 -0.9242
    5CHL1   C12  327   4.283   4.829   5.217 -0.3441 -0.8113 -0.1999
    5CHL1  H12A  328   4.281   4.940   5.207  0.9383 -0.7660  0.0015
    5CHL1  H12B  329   4.179   4.797   5.238  0.1257 -1.4255  1.2704
    5CHL1   C11  330   4.376   4.794   5.335 -0.3164  0.0656  0.0939
    5CHL1  H11A  331   4.473   4.840   5.308 -0.1761 -0.0700  0.3704
    5CHL1  H11B  332   4.343   4.845   5.428 -2.4267  0.4218 -0.8255
    5CHL1    C9  333   4.402   4.641   5.351  0.2786  0.2104 -0.5059
    5CHL1    H9  334   4.307   4.595   5.384 -1.1963  2.4957 -1.4330
    5CHL1   C10  335   4.503   4.603   5.464  0.1394 -0.2009 -0.6159
    5CHL1   C19  336   4.634   4.680   5.431 -0.1026 -0.0734 -0.1727
    5CHL1  H19A  337   4.610   4.788   5.436 -2.3563 -0.4842 -1.3158
    5CHL1  H19B  338   4.711   4.662   5.509  0.5801 -3.4447 -1.5467
    5CHL1  H19C  339   4.687   4.648   5.339  1.9962  4.3445 -0.6670
    5CHL1    C1  340   4.453   4.652   5.601 -0.5148 -0.2968 -0.1774
    5CHL1   H1A  341   4.435   4.761   5.600 -2.6320 -0.6310 -0.4128
    5CHL1   H1B  342   4.351   4.609   5.613 -0.2915 -0.6496  0.5116
    5CHL1    C2  343   4.522   4.594   5.734 -0.5633 -0.5594 -0.5484
    5CHL1   H2A  344   4.462   4.626   5.822 -0.3105  1.8657 -1.2173
    5CHL1   H2B  345   4.626   4.633   5.740 -0.8978  0.0805  1.2021
    5CHL1   C20  346   4.205   4.875   4.888 -0.4346 -0.5438 -0.0044
    5CHL1   H20  347   4.293   4.887   4.821  1.2860 -1.2930  2.0583
    5CHL1   C21  348   4.207   5.006   4.966 -0.1802 -0.1690 -0.1740
    5CHL1  H21A  349   4.127   5.009   5.043  0.3578  1.0623  0.3540
    5CHL1  H21B  350   4.183   5.096   4.905  1.0208  1.0527  1.1280
    5CHL1  H21C  351   4.301   5.025   5.022  0.2375 -1.9384 -0.2398
    5CHL1   C22  352   4.089   4.871   4.786  0.2238  0.0424 -0.0509
    5CHL1  H22A  353   4.098   4.780   4.723  1.3415  0.5480 -0.6320
    5CHL1  H22B  354   3.988   4.878   4.832 -0.5374  2.7888 -2.0174
    5CHL1   C23  355   4.107   4.981   4.676 -0.1600 -0.6679 -0.2125
    5CHL1  H23A  356   4.049   5.072   4.704 -0.9596 -1.0144 -0.7202
    5CHL1  H23B  357   4.215   5.005   4.669 -0.4064  0.0020 -1.7536
    5CHL1   C24  358   4.061   4.931   4.541 -0.5186 -0.4584  0.0304
    5CHL1  H24A  359   4.140   4.866   4.497  0.4580  1.4234 -1.0300
    5CHL1  H24B  360   3.964   4.877   4.539 -0.3853 -0.6798 -1.2096
    5CHL1   C25  361   4.060   5.044   4.432  0.0761  0.1511 -0.0269
    5CHL1   H25  362   4.132   5.121   4.466 -0.6357  1.3458 -1.2018
    5CHL1   C26  363   4.097   4.993   4.292  0.1571  0.3416  0.4748
    5CHL1  H26A  364   4.085   5.080   4.224  1.0411 -0.3077 -0.5156
    5CHL1  H26B  365   4.202   4.959   4.281 -0.1761 -1.2776  2.0157
    5CHL1  H26C  366   4.029   4.915   4.251 -0.1247  0.1458  1.3047
    5CHL1   C27  367   3.918   5.105   4.424  0.2870 -0.7119 -0.1587
    5CHL1  H27A  368   3.837   5.035   4.395  0.6828 -0.6583 -1.4446
    5CHL1  H27B  369   3.891   5.139   4.526 -0.4922 -2.1442  0.1190
    5CHL1  H27C  370   3.904   5.184   4.347  0.7707  0.2087  0.6998
    6CHL1    C3  371   3.174   2.705   5.553 -0.2063  0.0013 -0.0144
    6CHL1    H3  372   3.281   2.730   5.568 -0.7158  2.1051  0.2846
    6CHL1    O3  373   3.105   2.702   5.677  0.0309  0.2582 -0.0536
    6CHL1   H3'  374   3.099   2.794   5.706  0.6227  0.2503  0.0864
    6CHL1    C4  375   3.100   2.806   5.466  0.1009  0.6540 -0.2745
    6CHL1   H4A  376   2.992   2.780   5.466  0.3720 -0.5375 -1.0313
    6CHL1   H4B  377   3.099   2.908   5.511  0.2149  1.6220 -2.3748
    6CHL1    C5  378   3.148   2.807   5.324 -0.5160 -0.5904 -0.7740
    6CHL1    C6  379   3.178   2.924   5.268  0.6793 -0.2479  0.1967
    6CHL1    H6  380   3.176   3.019   5.322 -1.0989 -0.3601  0.3766
    6CHL1    C7  381   3.206   2.936   5.124 -0.4883 -0.1284  0.2876
    6CHL1   H7A  382   3.162   3.025   5.074  0.2649 -0.2471 -0.5804
    6CHL1   H7B  383   3.314   2.949   5.105  0.2710 -0.0022  4.2268
    6CHL1    C8  384   3.163   2.810   5.039 -0.4523  0.1837  1.0367
    6CHL1    H8  385   3.053   2.795   5.035 -0.6033  1.5626 -2.1800
    6CHL1   C14  386   3.208   2.817   4.890  0.2724  1.7028 -0.2611
    6CHL1   H14  387   3.318   2.808   4.892  0.1100 -0.3779  1.4943
    6CHL1   C15  388   3.172   2.936   4.800 -0.6869  0.2113  0.1254
    6CHL1  H15A  389   3.065   2.965   4.809 -0.4026  0.6826  2.2598
    6CHL1  H15B  390   3.235   3.019   4.838  3.7761 -1.8156 -2.4728
    6CHL1   C16  391   3.214   2.889   4.656 -0.0463  0.4113 -0.0089
    6CHL1  H16A  392   3.133   2.929   4.590 -0.8645 -1.8248 -0.3878
    6CHL1  H16B  393   3.310   2.937   4.626  1.6188 -2.7586  0.0735
    6CHL1   C17  394   3.223   2.731   4.666 -0.1816 -0.2968  0.4776
    6CHL1   H17  395   3.331   2.706   4.668 -0.0403  0.2643 -0.1404
    6CHL1   C13  396   3.174   2.694   4.805  0.4024 -0.4719  0.3426
    6CHL1   C18  397   3.021   2.679   4.788 -0.3797  0.4801 -0.2848
    6CHL1  H18A  398   2.964   2.674   4.884 -1.5065  0.3495 -0.9425
    6CHL1  H18B  399   2.976   2.765   4.734 -2.0403 -0.9191 -1.1962
    6CHL1  H18C  400   2.988   2.588   4.732 -0.8862 -0.7594  1.9424
    6CHL1   C12  401   3.243   2.576   4.882  0.2575 -0.3758 -0.0624
    6CHL1  H12A  402   3.219   2.485   4.823 -2.1739  1.7037 -2.4562
    6CHL1  H12B  403   3.353   2.592   4.881  0.0124  1.4523 -1.1032
    6CHL1   C11  404   3.178   2.563   5.020  0.1042  0.2406  0.2119
    6CHL1  H11A  405   3.072   2.531   5.007  1.0869 -3.5107  0.7243
    6CHL1  H11B  406   3.234   2.475   5.058  0.2675  0.2150 -0.0871
    6CHL1    C9  407   3.208   2.677   5.111  0.1730  0.5228  0.1423
    6CHL1    H9  408   3.318   2.687   5.125 -0.0460  2.4903  0.5953
    6CHL1   C10  409   3.147   2.671   5.259 -0.6030 -0.3760 -0.5654
    6CHL1   C19  410   3.000   2.620   5.244  0.2456  0.3965  0.2164
    6CHL1  H19A  411   2.948   2.626   5.342  1.3536 -2.4994  1.0331
    6CHL1  H19B  412   2.938   2.678   5.173  0.5387  0.4388 -0.0057
    6CHL1  H19C  413   2.996   2.513   5.212  3.2198  0.7236 -1.3893
    6CHL1    C1  414   3.227   2.560   5.335 -0.1344  0.6284 -0.0166
    6CHL1   H1A  415   3.220   2.458   5.292 -1.7992  0.0865  1.5067
    6CHL1   H1B  416   3.337   2.577   5.334  0.1763 -1.1632  0.7595
    6CHL1    C2  417   3.180   2.557   5.489  0.4807  0.2169 -0.2672
    6CHL1   H2A  418   3.246   2.493   5.551  0.4797 -0.0413 -0.5326
    6CHL1   H2B  419   3.081   2.506   5.495  0.0535  0.7316 -2.6217
    6CHL1   C20  420   3.163   2.656   4.543 -0.2180 -0.2165  0.5991
    6CHL1   H20  421   3.052   2.671   4.540 -0.3959 -1.7843 -1.8481
    6CHL1   C21  422   3.191   2.504   4.561 -0.4294 -0.1529  0.7403
    6CHL1  H21A  423   3.173   2.461   4.460  1.5180  2.0816 -0.5992
    6CHL1  H21B  424   3.116   2.454   4.626 -0.0904 -1.1777  0.3555
    6CHL1  H21C  425   3.293   2.491   4.601  0.2415 -0.6876 -1.0643
    6CHL1   C22  426   3.205   2.705   4.406  0.4150  0.2632  0.6713
    6CHL1  H22A  427   3.221   2.815   4.404  3.1901 -0.1150 -0.4141
    6CHL1  H22B  428   3.305   2.663   4.381 -0.7291 -1.5597 -1.0177
    6CHL1   C23  429   3.098   2.676   4.301  0.2171 -0.8489  0.1291
    6CHL1  H23A  430   3.067   2.570   4.308  0.3268 -0.8089  1.3237
    6CHL1  H23B  431   3.010   2.740   4.324 -0.2186 -1.2056 -0.5011
    6CHL1   C24  432   3.152   2.706   4.159  0.0802 -0.0009  0.0198
    6CHL1  H24A  433   3.073   2.716   4.081  0.9547 -0.3777 -0.9358
    6CHL1  H24B  434   3.214   2.798   4.153 -0.2841  0.1953 -0.8606
    6CHL1   C25  435   3.249   2.592   4.109  0.0060 -0.5851  0.3231
    6CHL1   H25  436   3.320   2.564   4.190  1.3637 -0.5298 -0.8200
    6CHL1   C26  437   3.178   2.472   4.055  0.1752 -0.0929 -0.2067
    6CHL1  H26A  438   3.136   2.508   3.958  0.4087  2.5770  0.6402
    6CHL1  H26B  439   3.245   2.389   4.024  0.2007  0.0682 -0.5949
    6CHL1  H26C  440   3.090   2.446   4.118  0.4059  0.0797  0.1832
    6CHL1   C27  441   3.342   2.642   4.004 -0.2507 -0.4281 -0.0705
    6CHL1  H27A  442   3.388   2.734   4.047 -0.2049  1.2117 -3.4339
    6CHL1  H27B  443   3.419   2.564   3.987 -0.3104 -0.7356  1.0301
    6CHL1  H27C  444   3.293   2.667   3.908 -0.2103 -1.7216 -0.4262
    7CHL1    C3  445   4.507   2.791   5.651  0.6404  1.0196 -0.1390
    7CHL1    H3  446   4.543   2.881   5.597  0.4565  0.2559 -1.5719
    7CHL1    O3  447   4.530   2.804   5.788 -0.1748 -0.4430  0.5689
    7CHL1   H3'  448   4.470   2.876   5.808  0.8293  0.7777 -0.7380
    7CHL1    C4  449   4.354   2.779   5.631  0.4260 -1.1305  0.4662
    7CHL1   H4A  450   4.325   2.697   5.699  1.0079 -2.5680 -0.9923
    7CHL1   H4B  451   4.301   2.864   5.680  1.1233 -1.0530  1.0888
    7CHL1    C5  452   4.318   2.760   5.485  0.6154  0.2320 -0.0974
    7CHL1    C6  453   4.233   2.842   5.425  0.0364  0.3477 -0.2994
    7CHL1    H6  454   4.196   2.927   5.483 -0.1913 -0.0628  0.1609
    7CHL1    C7  455   4.187   2.831   5.278  0.4296 -0.3835  0.0845
    7CHL1   H7A  456   4.078   2.848   5.268  0.1727 -1.3480  1.1275
    7CHL1   H7B  457   4.244   2.905   5.219 -1.0746  0.3992 -0.4188
    7CHL1    C8  458   4.218   2.700   5.208 -0.0210  0.0479 -0.1472
    7CHL1    H8  459   4.137   2.633   5.243 -0.4091  0.3814 -0.4105
    7CHL1   C14  460   4.214   2.710   5.057 -0.6599 -0.0479  0.4877
    7CHL1   H14  461   4.303   2.772   5.034 -0.1013 -1.0662 -0.1138
    7CHL1   C15  462   4.100   2.788   4.987  0.3829  0.2283  0.0414
    7CHL1  H15A  463   4.004   2.745   5.025 -1.0695  2.2643 -1.1946
    7CHL1  H15B  464   4.115   2.896   5.005  1.1674  0.0479  0.4606
    7CHL1   C16  465   4.115   2.763   4.841  0.3554  0.0151 -0.2104
    7CHL1  H16A  466   4.015   2.737   4.799 -0.5679  1.4742  1.0305
    7CHL1  H16B  467   4.149   2.845   4.775  1.2181 -1.4079 -1.5822
    7CHL1   C17  468   4.217   2.642   4.825 -0.4245  0.2492 -0.7049
    7CHL1   H17  469   4.317   2.685   4.805 -0.1835  1.3536  2.6061
    7CHL1   C13  470   4.229   2.580   4.974 -0.1589 -0.0276  0.5919
    7CHL1   C18  471   4.108   2.484   5.000 -0.0987 -0.4616 -0.2503
    7CHL1  H18A  472   4.118   2.399   4.930  1.7130  0.6838 -1.4178
    7CHL1  H18B  473   4.113   2.444   5.104 -2.0744  1.9328  0.8355
    7CHL1  H18C  474   4.014   2.540   4.979  0.0250  0.2260  0.9424
    7CHL1   C12  475   4.365   2.526   5.012  0.0405  0.5106 -0.8108
    7CHL1  H12A  476   4.382   2.423   4.973  2.4523  0.1717  1.0375
    7CHL1  H12B  477   4.437   2.594   4.961  1.4020  0.5170  1.0919
    7CHL1   C11  478   4.397   2.517   5.168 -0.2582 -1.1139  0.2691
    7CHL1  H11A  479   4.320   2.444   5.203 -0.9518 -0.7030 -0.3808
    7CHL1  H11B  480   4.495   2.468   5.185  0.8356  0.6595 -0.9189
    7CHL1    C9  481   4.358   2.647   5.249  0.3341 -0.1640 -0.4155
    7CHL1    H9  482   4.434   2.722   5.219  2.2872 -1.4065  1.3069
    7CHL1   C10  483   4.380   2.642   5.409 -0.3691 -0.1089  0.1000
    7CHL1   C19  484   4.315   2.521   5.477 -0.1084 -0.4344  0.0536
    7CHL1  H19A  485   4.205   2.521   5.466 -0.1589  1.1811  0.5401
    7CHL1  H19B  486   4.354   2.432   5.422 -1.0048 -0.6064 -0.3001
    7CHL1  H19C  487   4.344   2.511   5.584  0.4965 -1.2308 -0.1807
    7CHL1    C1  488   4.534   2.647   5.452  0.5024 -0.4375 -0.0570
    7CHL1   H1A  489   4.581   2.564   5.395  0.7371  0.8980 -1.8406
    7CHL1   H1B  490   4.572   2.738   5.399 -2.4458  0.1190 -1.3128
    7CHL1    C2  491   4.567   2.662   5.599 -0.0879 -0.6615  0.0165
    7CHL1   H2A  492   4.678   2.671   5.603 -0.1051  1.3313 -2.5771
    7CHL1   H2B  493   4.546   2.565   5.650  3.4062 -0.9610  1.0591
    7CHL1   C20  494   4.168   2.554   4.703 -0.1739  0.0612  0.1677
    7CHL1   H20  495   4.079   2.496   4.736 -0.9186 -0.2204 -2.3037
    7CHL1   C21  496   4.289   2.457   4.678  0.6945 -0.3930  0.7508
    7CHL1  H21A  497   4.384   2.514   4.675  0.5601 -0.0410  2.3909
    7CHL1  H21B  498   4.283   2.381   4.598 -0.5371  0.1055  0.3636
    7CHL1  H21C  499   4.290   2.391   4.768 -0.7019 -0.4708  0.7204
    7CHL1   C22  500   4.151   2.641   4.576  0.2924  0.6318 -0.4295
    7CHL1  H22A  501   4.057   2.701   4.578  0.6261  1.1555  2.0386
    7CHL1  H22B  502   4.238   2.705   4.551 -0.3756  1.7697  0.1331
    7CHL1   C23  503   4.143   2.543   4.455 -0.3346  0.0097 -0.7614
    7CHL1  H23A  504   4.246   2.513   4.427  0.4762  2.7242 -0.8490
    7CHL1  H23B  505   4.077   2.461   4.490 -1.2845  1.1279  0.1621
    7CHL1   C24  506   4.079   2.592   4.330  0.1589  0.4684  0.1999
    7CHL1  H24A  507   3.974   2.605   4.363  0.3750 -1.2913  1.6814
    7CHL1  H24B  508   4.125   2.690   4.304 -2.6310  1.4238 -1.2668
    7CHL1   C25  509   4.097   2.499   4.207 -0.0889  0.4166 -0.5570
    7CHL1   H25  510   4.208   2.500   4.198 -0.2716 -0.0691 -3.1429
    7CHL1   C26  511   4.041   2.353   4.232 -0.5689 -0.9482 -0.1308
    7CHL1  H26A  512   3.939   2.363   4.274  0.9041 -0.7249  3.5765
    7CHL1  H26B  513   4.035   2.304   4.132  0.5454  0.5972 -0.9869
    7CHL1  H26C  514   4.101   2.296   4.306  1.0119 -2.9291 -2.8281
    7CHL1   C27  515   4.063   2.561   4.068 -0.3573  0.2303  0.1721
    7CHL1  H27A  516   4.118   2.500   3.994  0.2281  0.8061  0.1244
    7CHL1  H27B  517   3.955   2.551   4.043 -0.7349  0.4741  1.6037
    7CHL1  H27C  518   4.096   2.667   4.061 -1.1486  0.5696  1.3122
    8CHL1    C3  519   2.726   3.058   5.675 -0.6709  0.4239 -0.5749
    8CHL1    H3  520   2.625   3.030   5.711 -0.1516 -2.5630 -1.3345
    8CHL1    O3  521   2.801   3.101   5.792 -0.0365 -0.3215  0.1559
    8CHL1   H3'  522   2.738   3.138   5.853 -1.2092 -0.5184 -0.9221
    8CHL1    C4  523   2.797   2.944   5.609 -0.1415 -0.5454  0.5289
    8CHL1   H4A  524   2.897   2.986   5.584 -0.0010 -0.0739  1.8616
    8CHL1   H4B  525   2.809   2.860   5.681  1.2632 -0.3909  0.4978
    8CHL1    C5  526   2.722   2.901   5.484  0.1243  0.1752 -0.2037
    8CHL1    C6  527   2.679   2.776   5.470 -0.3157  0.2016 -0.0782
    8CHL1    H6  528   2.693   2.704   5.552 -1.2685 -0.9996 -0.9395
    8CHL1    C7  529   2.610   2.727   5.343 -0.0424  0.4937  0.2072
    8CHL1   H7A  530   2.641   2.622   5.323  0.1023  0.5164  0.3104
    8CHL1   H7B  531   2.500   2.732   5.354 -0.3550 -2.5973 -0.9809
    8CHL1    C8  532   2.645   2.822   5.225  0.8843 -0.0271 -0.3871
    8CHL1    H8  533   2.754   2.806   5.206  1.9698  1.3265  3.9279
    8CHL1   C14  534   2.565   2.782   5.104  0.0596  0.0927  0.5201
    8CHL1   H14  535   2.460   2.802   5.134  0.1808  0.4187  0.7243
    8CHL1   C15  536   2.565   2.638   5.049  0.3058 -0.1390 -0.0368
    8CHL1  H15A  537   2.670   2.607   5.071  1.0112  1.1304 -1.5704
    8CHL1  H15B  538   2.500   2.586   5.123  1.2909 -2.6420 -0.8777
    8CHL1   C16  539   2.527   2.640   4.902  0.9698 -1.4928 -0.5173
    8CHL1  H16A  540   2.603   2.599   4.832 -0.0930 -2.1976 -1.2667
    8CHL1  H16B  541   2.431   2.587   4.881  0.8514 -2.2303  1.7525
    8CHL1   C17  542   2.496   2.795   4.877  0.2867 -0.2020  0.0908
    8CHL1   H17  543   2.393   2.805   4.916  0.1085  0.4355 -0.5363
    8CHL1   C13  544   2.588   2.870   4.978 -0.1890 -0.0769 -0.8805
    8CHL1   C18  545   2.733   2.866   4.924 -0.0893  1.1731  0.0571
    8CHL1  H18A  546   2.807   2.870   5.006  1.6051 -1.5169 -1.2515
    8CHL1  H18B  547   2.755   2.777   4.861  2.5618  0.6728  1.6197
    8CHL1  H18C  548   2.742   2.950   4.851  0.8359 -0.1737 -1.4061
    8CHL1   C12  549   2.537   3.015   5.010 -1.5703  0.0770  0.1749
    8CHL1  H12A  550   2.557   3.096   4.937  0.6692 -1.1171 -0.5718
    8CHL1  H12B  551   2.427   3.011   5.027 -1.8418  2.0783 -0.9861
    8CHL1   C11  552   2.616   3.059   5.134  0.2403 -0.4064 -0.3495
    8CHL1  H11A  553   2.720   3.060   5.096  1.3055 -1.9777  2.3644
    8CHL1  H11B  554   2.588   3.162   5.163  0.6362 -0.6425  0.8971
    8CHL1    C9  555   2.608   2.965   5.262  0.0648  0.0327 -0.7906
    8CHL1    H9  556   2.504   2.970   5.300  0.5344  1.4230  0.3523
    8CHL1   C10  557   2.704   3.012   5.382  0.0933  0.1337  0.0510
    8CHL1   C19  558   2.838   3.064   5.318  0.1300  0.1943  0.3936
    8CHL1  H19A  559   2.903   3.082   5.406  0.8113 -1.9176  0.3599
    8CHL1  H19B  560   2.887   2.989   5.251  0.7030 -1.6629  2.8182
    8CHL1  H19C  561   2.821   3.150   5.249 -1.4040 -0.9843 -0.7395
    8CHL1    C1  562   2.644   3.146   5.448  0.2321 -0.3880 -0.3986
    8CHL1   H1A  563   2.653   3.236   5.383  1.4089 -0.2415 -0.0409
    8CHL1   H1B  564   2.543   3.124   5.488  0.5681  1.0646  1.2820
    8CHL1    C2  565   2.713   3.179   5.582  0.3216 -0.0726  0.1846
    8CHL1   H2A  566   2.659   3.263   5.632  2.3274  0.6607  1.2153
    8CHL1   H2B  567   2.815   3.219   5.562 -0.7276  2.0563 -1.0539
    8CHL1   C20  568   2.494   2.848   4.731 -0.3054 -0.4249 -0.0947
    8CHL1   H20  569   2.597   2.878   4.703 -0.4730 -0.9773 -1.3161
    8CHL1   C21  570   2.391   2.961   4.721  0.5800 -0.1284 -0.2871
    8CHL1  H21A  571   2.287   2.923   4.718  0.6929 -0.4044 -0.8601
    8CHL1  H21B  572   2.404   3.018   4.626  2.4547 -1.2163 -0.7151
    8CHL1  H21C  573   2.402   3.041   4.797  0.0570 -0.1822 -0.1542
    8CHL1   C22  574   2.452   2.736   4.633 -0.3787 -0.5638  0.1205
    8CHL1  H22A  575   2.526   2.653   4.640  0.4966  0.1020 -1.0336
    8CHL1  H22B  576   2.350   2.700   4.656 -0.6342  1.3125  2.1269
    8CHL1   C23  577   2.445   2.784   4.488  0.6907 -1.1329  0.0245
    8CHL1  H23A  578   2.377   2.870   4.472  0.3728 -0.8939  2.4966
    8CHL1  H23B  579   2.543   2.832   4.468  0.9184 -1.5950  0.0252
    8CHL1   C24  580   2.433   2.668   4.390 -0.2312  0.1655  0.1319
    8CHL1  H24A  581   2.527   2.609   4.394 -0.7325 -0.5611  1.3504
    8CHL1  H24B  582   2.347   2.609   4.427  1.4538 -2.0842  0.5542
    8CHL1   C25  583   2.408   2.713   4.248 -0.4440 -0.5123  0.4142
    8CHL1   H25  584   2.445   2.816   4.229 -0.9721 -0.7987 -2.3694
    8CHL1   C26  585   2.486   2.622   4.150  0.1646 -0.2363 -0.0779
    8CHL1  H26A  586   2.504   2.668   4.050 -0.2476 -1.1657 -0.5882
    8CHL1  H26B  587   2.588   2.592   4.182  1.6150  2.5516 -1.9050
    8CHL1  H26C  588   2.416   2.537   4.134  0.7980 -0.4778 -1.6572
    8CHL1   C27  589   2.265   2.707   4.208 -0.1318  0.7880 -0.2753
    8CHL1  H27A  590   2.211   2.777   4.276  0.7439  1.4738 -0.2803
    8CHL1  H27B  591   2.253   2.737   4.102  0.5671  0.8313 -0.3451
    8CHL1  H27C  592   2.226   2.606   4.231  1.1143  0.0294 -1.3906
    9CHL1    C3  593   5.504   3.922   5.620 -1.0006 -0.6585 -0.1368
    9CHL1    H3  594   5.527   4.023   5.578  0.8888 -0.0473  2.3156
    9CHL1    O3  595   5.462   3.942   5.757 -0.0774  0.2550 -0.0307
    9CHL1   H3'  596   5.412   3.861   5.771 -2.4106  1.4823 -0.9734
    9CHL1    C4  597   5.386   3.874   5.542  0.4526 -0.6370  0.5498
    9CHL1   H4A  598   5.348   3.781   5.589 -0.7907  0.0379  0.9084
    9CHL1   H4B  599   5.305   3.949   5.559  0.5369 -0.5918  0.7558
    9CHL1    C5  600   5.415   3.840   5.394 -0.2898  0.4064 -0.5224
    9CHL1    C6  601   5.357   3.900   5.296  0.1828  0.7585 -0.3787
    9CHL1    H6  602   5.276   3.971   5.319  0.0889  0.7066 -0.5553
    9CHL1    C7  603   5.396   3.887   5.148 -0.0806  0.4396  0.5614
    9CHL1   H7A  604   5.304   3.885   5.086 -1.4138 -1.7604  2.5383
    9CHL1   H7B  605   5.464   3.967   5.111 -0.3628 -0.4992 -2.0602
    9CHL1    C8  606   5.460   3.750   5.127  0.7205  0.5158 -0.4883
    9CHL1    H8  607   5.386   3.667   5.137  0.4293  1.0635  2.1855
    9CHL1   C14  608   5.519   3.736   4.987 -0.3270  0.5869 -0.1605
    9CHL1   H14  609   5.593   3.818   4.978  1.0431 -0.6148 -0.1896
    9CHL1   C15  610   5.433   3.776   4.870  0.9914  0.1509  0.3959
    9CHL1  H15A  611   5.335   3.725   4.881  0.5675  0.6384 -0.9606
    9CHL1  H15B  612   5.415   3.885   4.860 -2.4391 -0.2540  1.7086
    9CHL1   C16  613   5.507   3.711   4.753  0.2560  0.6313  0.4725
    9CHL1  H16A  614   5.435   3.642   4.705  0.1666  2.0796 -1.5746
    9CHL1  H16B  615   5.526   3.792   4.679 -1.8627  0.6901 -0.0341
    9CHL1   C17  616   5.629   3.627   4.806 -0.0802  0.7205  0.0470
    9CHL1   H17  617   5.715   3.695   4.822  2.5632 -1.7395 -2.9636
    9CHL1   C13  618   5.590   3.604   4.955  0.9872 -0.6622 -0.2174
    9CHL1   C18  619   5.491   3.489   4.961 -0.1112  0.2191  0.5404
    9CHL1  H18A  620   5.554   3.399   4.943 -0.2230  0.1901  0.2952
    9CHL1  H18B  621   5.444   3.486   5.061 -2.2632 -0.7467 -0.4753
    9CHL1  H18C  622   5.425   3.481   4.873  0.0465 -0.9179  0.5157
    9CHL1   C12  623   5.711   3.593   5.055  0.5937  0.4182 -0.6929
    9CHL1  H12A  624   5.788   3.515   5.041  0.8536  0.5211  0.1632
    9CHL1  H12B  625   5.771   3.685   5.040 -0.8537  1.6876  1.0695
    9CHL1   C11  626   5.654   3.592   5.203  0.1244  0.2027 -0.0760
    9CHL1  H11A  627   5.601   3.495   5.215  0.2170  0.0795 -0.6583
    9CHL1  H11B  628   5.737   3.597   5.277  1.2549 -1.4189 -1.2224
    9CHL1    C9  629   5.571   3.723   5.230 -0.0898  0.2448  0.6510
    9CHL1    H9  630   5.646   3.802   5.206 -0.5846  0.3198 -0.6904
    9CHL1   C10  631   5.532   3.740   5.378 -0.4260  0.1424  0.1453
    9CHL1   C19  632   5.496   3.604   5.438 -0.1237  0.5511  0.7704
    9CHL1  H19A  633   5.583   3.535   5.434 -0.0149  0.7907 -1.7964
    9CHL1  H19B  634   5.464   3.606   5.544  3.2581 -0.5053  1.8710
    9CHL1  H19C  635   5.415   3.559   5.378  1.6436 -0.8712 -0.6300
    9CHL1    C1  636   5.650   3.799   5.464  0.1643 -0.6167 -0.1015
    9CHL1   H1A  637   5.734   3.727   5.469  0.2274 -0.3644  2.9672
    9CHL1   H1B  638   5.689   3.895   5.423  1.3781 -1.0991 -0.0857
    9CHL1    C2  639   5.622   3.830   5.615  0.4166 -0.1304  0.2587
    9CHL1   H2A  640   5.715   3.871   5.661  0.4786  0.9411 -0.8142
    9CHL1   H2B  641   5.599   3.730   5.659 -2.0851 -0.2871 -1.3150
    9CHL1   C20  642   5.677   3.505   4.721 -0.2280  0.2118 -0.0156
    9CHL1   H20  643   5.595   3.430   4.712 -1.8797  1.9711 -0.0565
    9CHL1   C21  644   5.791   3.430   4.798  0.2218  0.2808  0.3330
    9CHL1  H21A  645   5.851   3.365   4.731 -0.9412 -1.4949  0.9398
    9CHL1  H21B  646   5.760   3.362   4.881  0.4082 -0.9893 -0.6289
    9CHL1  H21C  647   5.860   3.510   4.830 -0.1479 -0.2048  2.4821
    9CHL1   C22  648   5.736   3.541   4.577 -0.2941  0.3009  0.4562
    9CHL1  H22A  649   5.810   3.622   4.596  0.9614 -1.1650  1.9419
    9CHL1  H22B  650   5.796   3.462   4.526  0.3568  1.2307 -0.2351
    9CHL1   C23  651   5.637   3.593   4.474  0.1322  0.2174  0.5729
    9CHL1  H23A  652   5.539   3.542   4.487 -1.3603  2.5148 -1.2439
    9CHL1  H23B  653   5.615   3.701   4.485 -2.1883 -0.0903 -0.6903
    9CHL1   C24  654   5.686   3.569   4.327  0.4764  0.8092  0.1615
    9CHL1  H24A  655   5.791   3.606   4.330  0.2108  1.4742  2.7593
    9CHL1  H24B  656   5.689   3.461   4.302  1.5731  1.1139 -1.0623
    9CHL1   C25  657   5.598   3.635   4.212 -0.2192 -0.0617  0.2519
    9CHL1   H25  658   5.594   3.744   4.233 -0.3365 -0.2924  1.5099
    9CHL1   C26  659   5.664   3.609   4.074  0.5115  0.4222  0.2267
    9CHL1  H26A  660   5.764   3.656   4.064 -0.3843  2.5614  1.1190
    9CHL1  H26B  661   5.668   3.500   4.049  0.6453  0.0035  2.0246
    9CHL1  H26C  662   5.606   3.655   3.992 -1.7927 -0.3072  1.4057
    9CHL1   C27  663   5.462   3.572   4.227  0.3885  0.4008 -0.1965
    9CHL1  H27A  664   5.397   3.600   4.142 -0.6925  2.2297  1.2080
    9CHL1  H27B  665   5.459   3.461   4.215  1.8302  0.6447 -3.1440
    9CHL1  H27C  666   5.406   3.600   4.319  1.9984  0.7524  0.6952
   10CHL1    C3  667   4.196   5.484   5.626 -0.0985  0.6112  0.0289
   10CHL1    H3  668   4.147   5.384   5.618 -0.7064  1.0385 -1.6927
   10CHL1    O3  669   4.160   5.529   5.753  0.2721  0.2749 -0.3063
   10CHL1   H3'  670   4.238   5.571   5.790 -0.6009  0.0805  1.8352
   10CHL1    C4  671   4.344   5.460   5.617 -0.4230  0.0080 -0.0832
   10CHL1   H4A  672   4.398   5.555   5.634 -0.8210  0.2343 -0.0853
   10CHL1   H4B  673   4.368   5.394   5.703 -1.4509 -3.1874 -2.1818
   10CHL1    C5  674   4.369   5.392   5.483 -0.4524 -0.0272 -0.2876
   10CHL1    C6  675   4.431   5.276   5.475 -0.0346  0.5430 -0.0837
   10CHL1    H6  676   4.469   5.222   5.563  2.2213  1.5476 -0.4100
   10CHL1    C7  677   4.482   5.214   5.351 -0.1259  0.3263  0.4207
   10CHL1   H7A  678   4.588   5.188   5.371 -0.0343  1.1689  1.0638
   10CHL1   H7B  679   4.421   5.129   5.313 -2.1571  1.4924  0.9771
   10CHL1    C8  680   4.482   5.317   5.233  0.4235  0.5191  0.1084
   10CHL1    H8  681   4.561   5.393   5.256  0.3655  0.2467  1.2637
   10CHL1   C14  682   4.505   5.247   5.101 -0.6341 -0.1464  0.4507
   10CHL1   H14  683   4.427   5.169   5.089 -0.1056 -0.6993  0.6105
   10CHL1   C15  684   4.632   5.161   5.084 -0.2091 -0.0189  0.2991
   10CHL1  H15A  685   4.718   5.209   5.137 -0.3661  0.7237 -0.1170
   10CHL1  H15B  686   4.623   5.063   5.136 -1.0873 -0.0556  0.0869
   10CHL1   C16  687   4.656   5.149   4.934  0.3265 -0.0658  0.0289
   10CHL1  H16A  688   4.755   5.189   4.901 -0.1835  0.1226 -1.2850
   10CHL1  H16B  689   4.638   5.044   4.903 -1.5910 -0.2802  1.7370
   10CHL1   C17  690   4.553   5.250   4.865 -0.0797 -0.7552 -0.1390
   10CHL1   H17  691   4.459   5.194   4.841 -2.2438  2.0032  1.5992
   10CHL1   C13  692   4.511   5.341   4.984 -0.2208 -0.1093  0.0564
   10CHL1   C18  693   4.620   5.460   5.012  0.1989  0.0829 -0.0607
   10CHL1  H18A  694   4.638   5.516   4.918  0.3179 -0.0285 -0.1028
   10CHL1  H18B  695   4.587   5.536   5.086 -3.4293 -1.4111 -0.0391
   10CHL1  H18C  696   4.717   5.413   5.039 -0.2963  0.1318  1.8907
   10CHL1   C12  697   4.370   5.402   4.972 -0.0004 -0.5545  0.4794
   10CHL1  H12A  698   4.363   5.463   4.879 -0.0778 -0.4604  0.5480
   10CHL1  H12B  699   4.304   5.313   4.964 -1.2381  0.3132  0.9330
   10CHL1   C11  700   4.326   5.479   5.091 -0.5407 -0.5268 -0.2171
   10CHL1  H11A  701   4.387   5.571   5.101  0.8830 -1.3196 -1.2470
   10CHL1  H11B  702   4.220   5.507   5.079 -0.9177 -0.7839  2.3414
   10CHL1    C9  703   4.352   5.401   5.225 -0.2892 -0.7148 -0.2268
   10CHL1    H9  704   4.267   5.329   5.224 -2.7249  2.0643  0.1312
   10CHL1   C10  705   4.326   5.473   5.359 -0.4158 -0.0555  0.3154
   10CHL1   C19  706   4.404   5.610   5.359 -0.3227  0.3703 -1.1167
   10CHL1  H19A  707   4.511   5.600   5.331  0.4334  1.2878  1.2919
   10CHL1  H19B  708   4.371   5.675   5.276 -0.1504 -1.2873 -2.5203
   10CHL1  H19C  709   4.405   5.665   5.455 -0.2083 -0.7537 -0.4603
   10CHL1    C1  710   4.179   5.500   5.383 -0.4611 -0.5026  0.4662
   10CHL1   H1A  711   4.144   5.575   5.309 -0.5103 -0.1071  0.8850
   10CHL1   H1B  712   4.117   5.408   5.382 -0.5240 -0.4585  0.3155
   10CHL1    C2  713   4.148   5.574   5.519 -0.0818  0.0773  0.3160
   10CHL1   H2A  714   4.039   5.596   5.530  0.2449  1.4140  1.0272
   10CHL1   H2B  715   4.203   5.670   5.524 -2.6080  1.7814 -2.7685
   10CHL1   C20  716   4.611   5.303   4.731  0.1516 -0.5055  0.6087
   10CHL1   H20  717   4.695   5.375   4.744  0.3796 -0.2425 -2.0164
   10CHL1   C21  718   4.498   5.377   4.653  0.0300  0.4112  0.2150
   10CHL1  H21A  719   4.405   5.324   4.625  0.5306 -0.3441 -0.0092
   10CHL1  H21B  720   4.549   5.424   4.567 -0.3297 -0.4490 -0.4742
   10CHL1  H21C  721   4.461   5.459   4.718 -0.8718 -1.8635  2.6515
   10CHL1   C22  722   4.671   5.189   4.643 -0.1822  0.1452  0.2212
   10CHL1  H22A  723   4.733   5.247   4.571  3.2695 -0.1224  2.8555
   10CHL1  H22B  724   4.737   5.115   4.692 -1.7842 -1.7057 -0.3859
   10CHL1   C23  725   4.570   5.112   4.563 -0.1431 -0.2629 -0.1605
   10CHL1  H23A  726   4.497   5.059   4.627  0.6062 -1.5049 -0.3153
   10CHL1  H23B  727   4.514   5.179   4.494 -2.4384 -0.8626  1.0662
   10CHL1   C24  728   4.635   4.997   4.477  0.4856 -0.0367  0.4801
   10CHL1  H24A  729   4.711   5.050   4.416 -2.4402  1.0856 -2.3192
   10CHL1  H24B  730   4.685   4.933   4.553 -0.2813  0.9727  1.8563
   10CHL1   C25  731   4.534   4.927   4.385 -0.0259  0.0539  0.3907
   10CHL1   H25  732   4.599   4.843   4.352  2.8205  1.9432  1.0144
   10CHL1   C26  733   4.409   4.859   4.461  0.2747  0.2992  0.0504
   10CHL1  H26A  734   4.346   4.932   4.516  0.2314 -0.4098  0.9502
   10CHL1  H26B  735   4.342   4.804   4.391 -1.9191  2.2649  0.5266
   10CHL1  H26C  736   4.448   4.782   4.531  1.0304  1.9811  1.5111
   10CHL1   C27  737   4.499   5.024   4.273  0.1945  0.5186  0.1228
   10CHL1  H27A  738   4.423   4.974   4.211  1.2395  0.7559 -1.3688
   10CHL1  H27B  739   4.443   5.111   4.314 -2.6786 -0.6078 -1.2991
   10CHL1  H27C  740   4.588   5.055   4.213  0.6512 -0.5904  0.2104
   11CHL1    C3  741   2.608   2.206   5.682 -0.3589 -0.3211 -0.1759
   11CHL1    H3  742   2.524   2.142   5.650 -1.2156  0.4774  0.4385
   11CHL1    O3  743   2.589   2.224   5.818  0.4609  0.2731  0.1401
   11CHL1   H3'  744   2.667   2.274   5.844  0.9490 -0.2258 -0.3450
   11CHL1    C4  745   2.737   2.136   5.652 -0.2410  0.4582 -0.7453
   11CHL1   H4A  746   2.825   2.198   5.681 -0.2022  0.9762 -1.9474
   11CHL1   H4B  747   2.735   2.038   5.705  0.3787  1.1616  0.5883
   11CHL1    C5  748   2.758   2.127   5.504 -0.4041 -0.1651  0.6837
   11CHL1    C6  749   2.779   2.006   5.452 -0.0846 -1.1834  0.1481
   11CHL1    H6  750   2.763   1.919   5.517 -2.7087  0.4632  1.8001
   11CHL1    C7  751   2.802   1.990   5.305 -0.2922  0.0814  0.5303
   11CHL1   H7A  752   2.868   1.906   5.276 -1.8768 -1.3264  0.8608
   11CHL1   H7B  753   2.705   1.950   5.268  0.3532  1.2811 -2.5629
   11CHL1    C8  754   2.823   2.115   5.219  0.1890  0.4840  0.4355
   11CHL1    H8  755   2.927   2.146   5.239  0.5340 -0.5052  0.2420
   11CHL1   C14  756   2.799   2.086   5.072  0.4752  0.1674 -0.0227
   11CHL1   H14  757   2.696   2.046   5.056  1.1341 -1.2124 -0.8659
   11CHL1   C15  758   2.875   1.972   5.014  0.0844  0.6373  0.7908
   11CHL1  H15A  759   2.983   1.971   5.042 -0.0243  1.7982  1.2675
   11CHL1  H15B  760   2.851   1.867   5.039  0.9178  0.2181 -0.1192
   11CHL1   C16  761   2.873   2.006   4.860  0.2519 -0.5701  0.5589
   11CHL1  H16A  762   2.979   2.009   4.828  0.4347 -0.5469  1.1537
   11CHL1  H16B  763   2.819   1.931   4.798 -2.1399  2.7941 -1.5404
   11CHL1   C17  764   2.805   2.143   4.842  0.6627  0.9491  0.0529
   11CHL1   H17  765   2.698   2.112   4.838  1.1268 -0.3973 -2.9821
   11CHL1   C13  766   2.815   2.211   4.981  0.1638 -0.2306 -0.1077
   11CHL1   C18  767   2.970   2.256   4.984  0.3025  0.3270 -0.0810
   11CHL1  H18A  768   2.975   2.354   4.931  0.5888  0.6303  0.5054
   11CHL1  H18B  769   3.004   2.275   5.088  1.5999  0.3796 -0.5082
   11CHL1  H18C  770   3.038   2.179   4.940 -0.2983  0.8090 -1.8927
   11CHL1   C12  771   2.702   2.316   5.026 -0.1311 -0.3621  0.2530
   11CHL1  H12A  772   2.710   2.406   4.963 -2.3247  0.3451  0.9577
   11CHL1  H12B  773   2.603   2.274   4.998 -0.1454  1.2234 -2.2120
   11CHL1   C11  774   2.730   2.352   5.177 -0.0924 -0.8350  0.4140
   11CHL1  H11A  775   2.831   2.398   5.172 -0.5500  0.2091  0.6923
   11CHL1  H11B  776   2.650   2.426   5.201  0.7837  0.2648 -0.0368
   11CHL1    C9  777   2.722   2.222   5.264  0.4549 -0.0217  0.5900
   11CHL1    H9  778   2.622   2.175   5.250  0.3769  0.9639 -2.7988
   11CHL1   C10  779   2.743   2.255   5.417  0.6713 -0.7619  0.6535
   11CHL1   C19  780   2.861   2.356   5.441 -0.4380  0.1468  0.1120
   11CHL1  H19A  781   2.953   2.328   5.385  0.3080 -3.2374  2.8266
   11CHL1  H19B  782   2.827   2.455   5.406 -1.9698 -0.2924  0.3101
   11CHL1  H19C  783   2.888   2.376   5.547 -0.3091 -1.0698  0.3166
   11CHL1    C1  784   2.609   2.313   5.459  0.0285 -0.3279 -0.2627
   11CHL1   H1A  785   2.601   2.417   5.419  0.4791 -0.0581  0.3474
   11CHL1   H1B  786   2.527   2.250   5.418 -0.8448  0.0889  0.8257
   11CHL1    C2  787   2.594   2.339   5.612  0.0122 -0.4100  1.0771
   11CHL1   H2A  788   2.494   2.384   5.630 -0.5909 -1.2850 -0.0366
   11CHL1   H2B  789   2.667   2.417   5.643  0.4475 -0.8651  1.1957
   11CHL1   C20  790   2.830   2.218   4.712  0.1767 -0.1105 -0.0045
   11CHL1   H20  791   2.939   2.239   4.704 -0.2707  1.3397 -2.7221
   11CHL1   C21  792   2.752   2.351   4.707  0.0434 -0.8429 -0.7619
   11CHL1  H21A  793   2.803   2.414   4.784  0.2165 -0.5503 -1.1137
   11CHL1  H21B  794   2.647   2.342   4.740  0.3000 -2.7700 -0.3965
   11CHL1  H21C  795   2.757   2.407   4.611  1.8301 -0.2247 -0.3334
   11CHL1   C22  796   2.794   2.136   4.592  0.0965 -0.1101 -0.1667
   11CHL1  H22A  797   2.798   2.027   4.613  2.8754  0.3841  2.2083
   11CHL1  H22B  798   2.689   2.166   4.570  0.5910  2.9223  1.4025
   11CHL1   C23  799   2.877   2.163   4.465  0.1365  0.0137  0.6926
   11CHL1  H23A  800   2.846   2.262   4.427  0.2426 -0.8088 -1.5717
   11CHL1  H23B  801   2.980   2.192   4.497  0.4288  0.9501 -1.0548
   11CHL1   C24  802   2.885   2.056   4.349  0.0483 -1.0302 -0.5262
   11CHL1  H24A  803   2.904   1.951   4.381 -1.6768 -1.3874 -0.6154
   11CHL1  H24B  804   2.778   2.051   4.318 -0.5823 -1.5270  1.6272
   11CHL1   C25  805   2.977   2.105   4.239 -0.6424 -0.0170 -0.4180
   11CHL1   H25  806   3.072   2.138   4.286 -1.4187 -0.2469  1.3574
   11CHL1   C26  807   3.012   1.988   4.135 -0.3046  0.3618 -0.5462
   11CHL1  H26A  808   3.053   1.889   4.165 -0.9811  0.2748  0.1066
   11CHL1  H26B  809   2.924   1.964   4.070 -0.4121  0.8111 -0.5646
   11CHL1  H26C  810   3.095   2.021   4.069 -0.0592  1.0457  0.1068
   11CHL1   C27  811   2.927   2.225   4.154  0.3581  0.1464 -0.7191
   11CHL1  H27A  812   2.831   2.194   4.107 -1.0979 -1.2304  3.0032
   11CHL1  H27B  813   2.908   2.314   4.218  0.5099 -0.4470  0.1618
   11CHL1  H27C  814   3.005   2.264   4.084 -0.6363  1.7244 -0.9625
   12CHL1    C3  815   4.722   1.572   5.759 -0.7531 -0.2209  0.0002
   12CHL1    H3  816   4.620   1.615   5.751 -1.0807 -1.2727 -1.7557
   12CHL1    O3  817   4.742   1.539   5.895  0.0324 -0.6761 -0.4374
   12CHL1   H3'  818   4.823   1.488   5.902 -0.5182 -1.4715  0.2263
   12CHL1    C4  819   4.742   1.447   5.670 -0.7286 -0.0282 -0.3300
   12CHL1   H4A  820   4.847   1.413   5.680 -0.4617  1.0305  0.5662
   12CHL1   H4B  821   4.681   1.361   5.704 -0.5738 -0.8055 -1.9329
   12CHL1    C5  822   4.733   1.483   5.525 -0.6980  0.6700 -0.1496
   12CHL1    C6  823   4.651   1.420   5.443  0.0091  0.4393  0.4527
   12CHL1    H6  824   4.592   1.342   5.493 -2.0786  1.1394 -0.8400
   12CHL1    C7  825   4.631   1.447   5.296  0.2208  0.9927  0.4784
   12CHL1   H7A  826   4.627   1.357   5.231 -0.0230  0.9026  0.6165
   12CHL1   H7B  827   4.534   1.497   5.278 -0.5669 -0.6632  0.0365
   12CHL1    C8  828   4.750   1.529   5.242 -0.2521 -0.1429 -0.4262
   12CHL1    H8  829   4.837   1.462   5.229 -1.0193 -1.6074  1.7574
   12CHL1   C14  830   4.725   1.575   5.102 -0.1037  0.2289  0.1552
   12CHL1   H14  831   4.634   1.637   5.117  0.1000  0.7211 -0.5958
   12CHL1   C15  832   4.690   1.471   4.994 -0.3187 -0.0134  0.3907
   12CHL1  H15A  833   4.765   1.389   5.000  0.2737  0.5814  1.1890
   12CHL1  H15B  834   4.585   1.436   5.001 -0.4457  0.4957  0.9963
   12CHL1   C16  835   4.706   1.553   4.864  0.0805  0.0732  0.1806
   12CHL1  H16A  836   4.741   1.493   4.777  0.1115 -0.8194  0.8075
   12CHL1  H16B  837   4.605   1.584   4.831  0.2010 -0.9142 -1.1635
   12CHL1   C17  838   4.792   1.683   4.892  0.0355 -0.2931  0.4057
   12CHL1   H17  839   4.726   1.771   4.903  2.1063  1.1664  1.5049
   12CHL1   C13  840   4.837   1.665   5.041 -0.0921 -0.0887  0.2944
   12CHL1   C18  841   4.977   1.588   5.038  0.6210 -0.5782  0.2672
   12CHL1  H18A  842   5.005   1.531   5.129  0.8681 -2.7371 -1.1368
   12CHL1  H18B  843   4.985   1.522   4.949  0.1467 -0.5297  0.1912
   12CHL1  H18C  844   5.061   1.660   5.025 -0.0052  0.0963 -0.1098
   12CHL1   C12  845   4.854   1.795   5.132 -0.2026  0.1764 -0.0173
   12CHL1  H12A  846   4.937   1.863   5.100 -0.4476  0.6029  0.2502
   12CHL1  H12B  847   4.759   1.849   5.118 -0.4994 -0.4685 -0.4949
   12CHL1   C11  848   4.882   1.745   5.274 -0.3755  0.1152  0.2767
   12CHL1  H11A  849   4.988   1.711   5.268 -0.4999  0.1129 -2.3722
   12CHL1  H11B  850   4.885   1.833   5.341 -0.2761 -1.0299  1.8224
   12CHL1    C9  851   4.783   1.648   5.336  0.2104 -0.0997  0.6418
   12CHL1    H9  852   4.685   1.702   5.337 -0.4757 -1.2600 -2.0122
   12CHL1   C10  853   4.824   1.602   5.481 -0.5232 -1.0868 -0.0337
   12CHL1   C19  854   4.978   1.564   5.496 -0.3947 -0.0212 -0.1982
   12CHL1  H19A  855   5.005   1.481   5.426  1.0930 -1.2071  1.7237
   12CHL1  H19B  856   5.046   1.646   5.465  0.0175  0.2738  1.4514
   12CHL1  H19C  857   4.999   1.530   5.600  0.3570  0.1917 -0.2748
   12CHL1    C1  858   4.791   1.721   5.572 -0.1568 -0.0655 -0.4478
   12CHL1   H1A  859   4.846   1.812   5.541 -0.1512 -0.0896 -0.5085
   12CHL1   H1B  860   4.685   1.747   5.557  0.1962  0.3242 -2.4437
   12CHL1    C2  861   4.817   1.688   5.721  0.2802  0.2483 -0.7330
   12CHL1   H2A  862   4.794   1.781   5.777  0.7255  1.4271 -2.4490
   12CHL1   H2B  863   4.922   1.662   5.747 -0.5321 -0.9583  1.4339
   12CHL1   C20  864   4.894   1.721   4.777 -0.7163 -0.2523  0.2017
   12CHL1   H20  865   4.966   1.637   4.778 -1.8652 -1.2532  0.8475
   12CHL1   C21  866   4.963   1.843   4.808 -0.0490 -0.3087  0.0510
   12CHL1  H21A  867   5.046   1.876   4.742 -1.9548  1.9438 -1.2681
   12CHL1  H21B  868   5.017   1.828   4.904  0.4215  1.5074  0.0822
   12CHL1  H21C  869   4.887   1.923   4.799  1.8791  1.8141  1.9090
   12CHL1   C22  870   4.830   1.712   4.634 -0.0423  0.3461 -0.4016
   12CHL1  H22A  871   4.801   1.612   4.596 -0.5156  0.6809 -0.9410
   12CHL1  H22B  872   4.729   1.756   4.639 -0.6453 -1.1002  0.3840
   12CHL1   C23  873   4.904   1.793   4.524 -0.5909  0.0897 -0.2301
   12CHL1  H23A  874   4.921   1.899   4.554  0.1051 -0.2353  0.5456
   12CHL1  H23B  875   5.004   1.749   4.504 -0.4906 -0.1224  0.6851
   12CHL1   C24  876   4.814   1.802   4.403  0.4558  0.5459 -0.0190
   12CHL1  H24A  877   4.780   1.704   4.364  2.8400 -1.1388  1.9518
   12CHL1  H24B  878   4.720   1.855   4.430  1.1416  0.2976  3.0747
   12CHL1   C25  879   4.881   1.869   4.280 -1.0602  0.0811  0.1671
   12CHL1   H25  880   4.921   1.966   4.315  0.9472  0.7010 -3.5978
   12CHL1   C26  881   4.989   1.780   4.220 -0.2739  0.5050  0.5682
   12CHL1  H26A  882   5.045   1.844   4.147 -1.0112  1.0957  0.5168
   12CHL1  H26B  883   5.057   1.723   4.287  0.8063 -0.2744 -1.1512
   12CHL1  H26C  884   4.928   1.702   4.169 -0.2833 -0.5654  2.2041
   12CHL1   C27  885   4.773   1.904   4.177 -0.3165 -0.2211  0.2888
   12CHL1  H27A  886   4.702   1.981   4.213  0.6182 -0.0651  1.8470
   12CHL1  H27B  887   4.825   1.968   4.103 -0.1778 -2.1639 -1.3457
   12CHL1  H27C  888   4.724   1.826   4.115  0.7826 -0.0284 -0.8582
   13CHL1    C3  889   3.700   0.939   5.744 -0.4843 -0.0950  0.1678
   13CHL1    H3  890   3.764   1.021   5.706  0.0639 -0.9242 -0.7051
   13CHL1    O3  891   3.737   0.918   5.877 -0.1862 -0.1110 -0.0988
   13CHL1   H3'  892   3.825   0.879   5.876  0.0842  0.3700  2.3772
   13CHL1    C4  893   3.552   0.980   5.731 -0.1970  0.2743 -0.1263
   13CHL1   H4A  894   3.503   0.895   5.784  0.0849  1.0845  1.4919
   13CHL1   H4B  895   3.534   1.067   5.799  1.3071 -0.1413  0.8362
   13CHL1    C5  896   3.515   1.002   5.588  1.3207  0.4592 -1.1116
   13CHL1    C6  897   3.451   1.117   5.563  0.3071  0.1104 -0.8140
   13CHL1    H6  898   3.426   1.188   5.644 -1.1229  0.8268 -1.8618
   13CHL1    C7  899   3.399   1.156   5.430 -0.2943 -0.0416  0.2971
   13CHL1   H7A  900   3.296   1.193   5.447 -0.1705  0.2920  0.3161
   13CHL1   H7B  901   3.454   1.241   5.384  2.9668 -1.1234  1.9871
   13CHL1    C8  902   3.400   1.027   5.329  0.3523  0.6505 -0.1279
   13CHL1    H8  903   3.320   0.955   5.358  0.7596  0.4963  0.6278
   13CHL1   C14  904   3.379   1.075   5.187 -0.1576 -0.5493 -0.2005
   13CHL1   H14  905   3.458   1.149   5.165 -0.2107 -0.1545  0.9098
   13CHL1   C15  906   3.236   1.139   5.156  0.0857  0.0952  0.2423
   13CHL1  H15A  907   3.159   1.079   5.208  0.9834  1.8042  3.6696
   13CHL1  H15B  908   3.230   1.245   5.190 -0.9561  0.3389 -0.6748
   13CHL1   C16  909   3.220   1.121   5.006 -0.4217  0.0631  0.1839
   13CHL1  H16A  910   3.125   1.070   4.979 -0.5368  0.3704  0.0020
   13CHL1  H16B  911   3.209   1.216   4.949 -3.5652 -0.3206  0.0669
   13CHL1   C17  912   3.345   1.042   4.953 -0.1289 -0.3209  0.4039
   13CHL1   H17  913   3.424   1.115   4.929  0.8486 -1.7343 -0.7673
   13CHL1   C13  914   3.399   0.968   5.083 -0.2251  0.1134  0.1358
   13CHL1   C18  915   3.296   0.855   5.112  0.0585  0.4652 -0.4025
   13CHL1  H18A  916   3.319   0.765   5.051 -0.2405 -0.8970  1.4456
   13CHL1  H18B  917   3.308   0.826   5.218 -0.2269 -0.0069 -0.5011
   13CHL1  H18C  918   3.194   0.892   5.089  0.8827  1.6749 -2.3289
   13CHL1   C12  919   3.552   0.921   5.083  0.2966  0.2374 -0.3387
   13CHL1  H12A  920   3.562   0.833   5.016  1.3011  0.9196 -1.0996
   13CHL1  H12B  921   3.608   1.010   5.047 -2.5547  1.5284 -1.8460
   13CHL1   C11  922   3.586   0.862   5.221 -0.2383 -0.7117  0.2520
   13CHL1  H11A  923   3.543   0.761   5.232  4.3739 -2.6963  1.3183
   13CHL1  H11B  924   3.697   0.851   5.223 -0.0913 -0.0077 -2.5099
   13CHL1    C9  925   3.540   0.958   5.341  0.6314  0.1952 -0.3084
   13CHL1    H9  926   3.614   1.040   5.330  0.3287  0.1434 -2.9256
   13CHL1   C10  927   3.567   0.901   5.479 -0.2357 -0.2501 -0.3066
   13CHL1   C19  928   3.486   0.770   5.493 -0.7114 -0.0548 -0.1406
   13CHL1  H19A  929   3.381   0.770   5.457 -0.4735 -1.8416 -0.9286
   13CHL1  H19B  930   3.527   0.698   5.418  0.3389  0.9909 -0.5800
   13CHL1  H19C  931   3.484   0.735   5.598 -0.1672 -1.8007 -0.6826
   13CHL1    C1  932   3.713   0.867   5.506  0.2698 -0.0692 -0.5067
   13CHL1   H1A  933   3.732   0.782   5.436 -0.0513 -1.1555  0.7053
   13CHL1   H1B  934   3.771   0.957   5.476  0.9312 -0.0652  0.7432
   13CHL1    C2  935   3.740   0.826   5.649 -0.0263  0.1346 -0.2739
   13CHL1   H2A  936   3.849   0.804   5.658 -0.5266 -2.3872  0.0941
   13CHL1   H2B  937   3.694   0.728   5.675  2.0679 -0.2711  2.1104
   13CHL1   C20  938   3.333   0.969   4.823 -0.0460  0.2615 -0.1444
   13CHL1   H20  939   3.261   0.885   4.825  0.7651 -0.4358  0.3701
   13CHL1   C21  940   3.466   0.907   4.772 -0.5335 -0.1806 -0.3999
   13CHL1  H21A  941   3.471   0.800   4.802 -0.7221 -0.0151  0.2234
   13CHL1  H21B  942   3.549   0.968   4.812  0.3545 -0.7069 -1.4288
   13CHL1  H21C  943   3.460   0.903   4.661 -0.0753  0.5006 -0.4499
   13CHL1   C22  944   3.286   1.049   4.705 -0.3550  0.7004 -0.1218
   13CHL1  H22A  945   3.277   0.990   4.611 -0.6089  1.3248 -0.4940
   13CHL1  H22B  946   3.178   1.063   4.726 -0.3497  0.5817 -0.0145
   13CHL1   C23  947   3.353   1.183   4.669 -1.0788  0.4923  0.4170
   13CHL1  H23A  948   3.331   1.244   4.759 -2.5595  0.7933 -0.1391
   13CHL1  H23B  949   3.463   1.175   4.653 -0.9593  0.6341  1.1465
   13CHL1   C24  950   3.291   1.252   4.547 -0.4525 -1.0084 -0.3422
   13CHL1  H24A  951   3.326   1.187   4.464 -0.0052 -0.4581 -0.5896
   13CHL1  H24B  952   3.182   1.255   4.565 -0.3944 -2.3156  0.2443
   13CHL1   C25  953   3.351   1.392   4.520 -0.2269  0.4862  0.3947
   13CHL1   H25  954   3.378   1.436   4.619 -0.1444 -0.3385  0.7431
   13CHL1   C26  955   3.485   1.369   4.452  0.3807  0.2480  0.5754
   13CHL1  H26A  956   3.542   1.464   4.436  1.0713 -0.5584 -2.0481
   13CHL1  H26B  957   3.560   1.312   4.512 -0.6907 -1.4700  0.3039
   13CHL1  H26C  958   3.487   1.310   4.358  1.8139  1.8098 -0.4030
   13CHL1   C27  959   3.260   1.472   4.436  0.5913  0.8022 -0.0315
   13CHL1  H27A  960   3.242   1.415   4.342 -0.5025  0.2001  0.5325
   13CHL1  H27B  961   3.168   1.490   4.495  0.2193  0.5669 -0.5309
   13CHL1  H27C  962   3.298   1.574   4.415  0.8552  0.8579  0.7282
   14CHL1    C3  963   2.470   5.812   5.793 -0.0040  0.3033  0.5114
   14CHL1    H3  964   2.539   5.888   5.836 -0.6896  0.0214  2.1588
   14CHL1    O3  965   2.416   5.724   5.891 -0.2483 -0.0453 -0.0610
   14CHL1   H3'  966   2.378   5.654   5.839  1.5106 -1.1096  0.0456
   14CHL1    C4  967   2.358   5.880   5.708 -0.8002 -0.1529 -0.3141
   14CHL1   H4A  968   2.283   5.803   5.681 -0.1167 -0.4969 -1.2584
   14CHL1   H4B  969   2.309   5.940   5.788 -0.9110 -0.7480  0.0710
   14CHL1    C5  970   2.404   5.964   5.591 -0.0273  0.1891 -0.6016
   14CHL1    C6  971   2.371   6.089   5.584  0.6313 -0.0839 -0.0058
   14CHL1    H6  972   2.301   6.136   5.655  1.7532  0.1736  0.9451
   14CHL1    C7  973   2.422   6.176   5.473  0.0542  0.8073 -0.2459
   14CHL1   H7A  974   2.337   6.234   5.431 -2.0694 -2.4353 -0.6294
   14CHL1   H7B  975   2.494   6.255   5.503  1.2910  0.3742 -2.0067
   14CHL1    C8  976   2.497   6.108   5.357 -0.0955 -1.1215  0.2645
   14CHL1    H8  977   2.415   6.070   5.293 -1.1442  2.5062 -0.6680
   14CHL1   C14  978   2.583   6.202   5.272 -0.7678 -1.0068  0.3416
   14CHL1   H14  979   2.657   6.243   5.344  1.2525 -0.7366 -1.8497
   14CHL1   C15  980   2.511   6.323   5.214 -0.1164 -0.7673  0.5001
   14CHL1  H15A  981   2.416   6.285   5.169 -1.0940  1.6920  0.3882
   14CHL1  H15B  982   2.484   6.407   5.281 -2.3522  0.6921 -2.0902
   14CHL1   C16  983   2.591   6.363   5.086 -0.5178  0.1266  0.9185
   14CHL1  H16A  984   2.527   6.343   4.997  2.0903  1.1292 -1.2468
   14CHL1  H16B  985   2.627   6.468   5.092  1.3103 -0.3379 -1.2259
   14CHL1   C17  986   2.700   6.254   5.076  0.3278  0.3974 -0.2320
   14CHL1   H17  987   2.792   6.289   5.129 -1.7128  0.1340  3.6556
   14CHL1   C13  988   2.649   6.137   5.154 -0.8154  0.2249 -0.3126
   14CHL1   C18  989   2.543   6.062   5.068  0.0195  0.4736 -0.0664
   14CHL1  H18A  990   2.602   6.005   4.993  3.0877  2.9706  0.3053
   14CHL1  H18B  991   2.487   5.995   5.136 -0.0636 -0.7387 -1.2959
   14CHL1  H18C  992   2.484   6.136   5.009  1.3260 -0.4907 -2.6525
   14CHL1   C12  993   2.757   6.039   5.207  0.8077  0.3886 -0.0531
   14CHL1  H12A  994   2.815   5.990   5.126 -0.1909  0.1274 -0.6209
   14CHL1  H12B  995   2.829   6.091   5.273  1.5233  0.4469 -0.8801
   14CHL1   C11  996   2.687   5.935   5.308 -0.2843  0.1952  0.3944
   14CHL1  H11A  997   2.623   5.862   5.253 -0.7932 -0.5488  1.9674
   14CHL1  H11B  998   2.757   5.868   5.362  0.5376  2.2575  1.9490
   14CHL1    C9  999   2.593   6.003   5.415  0.1168  0.3330 -0.5711
   14CHL1    H9 1000   2.656   6.054   5.490 -0.1147 -1.7719  1.0938
   14CHL1   C10 1001   2.514   5.898   5.506 -0.1299  0.2448 -0.0750
   14CHL1   C19 1002   2.422   5.816   5.414 -0.5937 -0.1323 -0.0433
   14CHL1  H19A 1003   2.356   5.881   5.352 -1.6214 -2.3083 -1.2692
   14CHL1  H19B 1004   2.486   5.751   5.351 -0.7463 -1.2264  0.9041
   14CHL1  H19C 1005   2.357   5.744   5.468  0.0254 -1.0713 -0.5491
   14CHL1    C1 1006   2.610   5.821   5.595 -0.4176  0.5008  0.0611
   14CHL1   H1A 1007   2.685   5.768   5.533  0.3116  0.1118  1.2550
   14CHL1   H1B 1008   2.666   5.899   5.651 -3.5962  1.2421  2.3444
   14CHL1    C2 1009   2.550   5.732   5.696 -0.0345  1.0989 -0.3004
   14CHL1   H2A 1010   2.642   5.692   5.742 -1.6010 -2.5849 -0.2525
   14CHL1   H2B 1011   2.492   5.650   5.648  1.5453 -0.8884  1.1122
   14CHL1   C20 1012   2.757   6.227   4.931  0.1636 -0.8070  0.0055
   14CHL1   H20 1013   2.721   6.131   4.888  1.2039 -2.3553  2.5405
   14CHL1   C21 1014   2.909   6.207   4.945  0.2002  0.6890 -0.0820
   14CHL1  H21A 1015   2.959   6.293   4.994  1.7024  0.4154 -1.1157
   14CHL1  H21B 1016   2.962   6.191   4.849 -1.4455 -2.2647 -0.5940
   14CHL1  H21C 1017   2.934   6.118   5.007  1.3619  1.6233  0.8022
   14CHL1   C22 1018   2.729   6.342   4.824  0.1769  0.3678 -0.0201
   14CHL1  H22A 1019   2.626   6.383   4.831 -0.4595 -0.8631 -1.7340
   14CHL1  H22B 1020   2.806   6.421   4.836  2.0961 -1.5993  0.8424
   14CHL1   C23 1021   2.751   6.280   4.683  0.4049  0.0422  0.3453
   14CHL1  H23A 1022   2.830   6.202   4.679  2.4622  2.0851  0.1690
   14CHL1  H23B 1023   2.660   6.220   4.657 -1.9916  4.5330 -2.2072
   14CHL1   C24 1024   2.772   6.385   4.580  0.3281 -0.2393 -0.4349
   14CHL1  H24A 1025   2.700   6.469   4.584  1.9360  1.1685 -0.2709
   14CHL1  H24B 1026   2.866   6.438   4.606  0.2874  0.4704 -1.6634
   14CHL1   C25 1027   2.782   6.337   4.428 -0.1344 -0.4560  0.6259
   14CHL1   H25 1028   2.828   6.422   4.372  0.4289 -0.5967  0.8788
   14CHL1   C26 1029   2.872   6.209   4.404  0.1849  0.3252  0.2303
   14CHL1  H26A 1030   2.907   6.186   4.301 -1.5323  0.4816 -0.3931
   14CHL1  H26B 1031   2.967   6.216   4.462  1.1887  0.9176 -1.4488
   14CHL1  H26C 1032   2.809   6.121   4.430 -0.5680  1.0617  0.9533
   14CHL1   C27 1033   2.645   6.311   4.371  0.0870 -0.0938 -0.1816
   14CHL1  H27A 1034   2.646   6.279   4.265 -4.0069 -0.3310 -0.2180
   14CHL1  H27B 1035   2.582   6.238   4.427  0.3151  0.4843  0.8514
   14CHL1  H27C 1036   2.586   6.405   4.369 -0.4774 -0.4222  0.6756
   15CHL1    C3 1037   1.434   5.370   5.553  0.2333  0.2745  0.4517
   15CHL1    H3 1038   1.331   5.331   5.563  0.3076  0.0760  0.4480
   15CHL1    O3 1039   1.501   5.362   5.677 -0.0413  0.0432 -0.1288
   15CHL1   H3' 1040   1.568   5.430   5.682 -0.0422  0.1209 -1.1460
   15CHL1    C4 1041   1.510   5.275   5.462 -0.0414 -0.5018 -0.1161
   15CHL1   H4A 1042   1.616   5.308   5.457 -0.4882  0.8686 -0.8796
   15CHL1   H4B 1043   1.510   5.176   5.511  0.4994 -0.9764 -1.0618
   15CHL1    C5 1044   1.458   5.275   5.321  0.3127  0.1990  0.2927
   15CHL1    C6 1045   1.427   5.158   5.262 -0.4056  0.4656  0.3892
   15CHL1    H6 1046   1.438   5.071   5.328  0.2337  0.2116 -0.0536
   15CHL1    C7 1047   1.372   5.142   5.120  0.0168  0.1562  0.0947
   15CHL1   H7A 1048   1.433   5.071   5.061  2.3676  2.5590 -0.4635
   15CHL1   H7B 1049   1.267   5.106   5.127  0.1764 -0.3227  0.0365
   15CHL1    C8 1050   1.370   5.274   5.041  0.1658 -0.2289  0.5093
   15CHL1    H8 1051   1.468   5.296   4.995 -0.5784  1.5963 -0.2402
   15CHL1   C14 1052   1.272   5.277   4.921  0.2314  0.1444 -0.0239
   15CHL1   H14 1053   1.170   5.275   4.964  0.7865  0.4641  1.3217
   15CHL1   C15 1054   1.284   5.169   4.813 -0.3941 -0.3158 -0.2351
   15CHL1  H15A 1055   1.388   5.135   4.794 -0.9010 -1.4268 -1.1294
   15CHL1  H15B 1056   1.238   5.074   4.847  0.3246 -0.7399 -0.4482
   15CHL1   C16 1057   1.227   5.227   4.689  0.2969 -0.3238  0.1121
   15CHL1  H16A 1058   1.298   5.219   4.604  1.2445 -2.7243  1.0745
   15CHL1  H16B 1059   1.152   5.151   4.660  2.5270 -2.3624 -0.4715
   15CHL1   C17 1060   1.179   5.372   4.720  0.2576 -0.5703  0.3290
   15CHL1   H17 1061   1.074   5.355   4.755  0.5683 -4.3681 -0.3822
   15CHL1   C13 1062   1.263   5.409   4.842  0.0789 -0.4537 -0.3213
   15CHL1   C18 1063   1.402   5.443   4.783 -0.0294  0.1236 -0.0685
   15CHL1  H18A 1064   1.488   5.462   4.850  0.9160  0.8715 -1.4718
   15CHL1  H18B 1065   1.431   5.362   4.713 -1.3914 -1.5388  1.2259
   15CHL1  H18C 1066   1.388   5.533   4.719  0.7533  0.3398  0.0674
   15CHL1   C12 1067   1.218   5.520   4.937 -0.0522 -0.3842  0.1731
   15CHL1  H12A 1068   1.214   5.614   4.878  1.5008 -1.4765 -1.7466
   15CHL1  H12B 1069   1.113   5.507   4.970 -0.5486  1.3164 -0.7204
   15CHL1   C11 1070   1.310   5.523   5.063 -0.1886 -0.6140 -0.7111
   15CHL1  H11A 1071   1.407   5.560   5.023 -0.7054  1.3557 -0.1836
   15CHL1  H11B 1072   1.274   5.595   5.139  1.4989  0.8319 -1.2491
   15CHL1    C9 1073   1.337   5.391   5.130  0.3674  0.5338 -0.0543
   15CHL1    H9 1074   1.236   5.361   5.167  0.4848 -0.7498 -0.7089
   15CHL1   C10 1075   1.429   5.409   5.255 -0.4171  0.3222 -0.1114
   15CHL1   C19 1076   1.569   5.465   5.208  0.0101  0.3618  0.2810
   15CHL1  H19A 1077   1.607   5.407   5.121  0.1307  0.0345  0.5524
   15CHL1  H19B 1078   1.554   5.569   5.171  1.1802  0.0826 -1.0313
   15CHL1  H19C 1079   1.649   5.458   5.284  2.0667  1.2491 -1.7285
   15CHL1    C1 1080   1.363   5.510   5.363 -0.8771 -0.5024  0.2005
   15CHL1   H1A 1081   1.382   5.610   5.320 -0.8785  0.0692  1.4944
   15CHL1   H1B 1082   1.253   5.498   5.372 -0.8841  0.4020  1.4316
   15CHL1    C2 1083   1.439   5.515   5.498 -0.4268  0.4771  0.7174
   15CHL1   H2A 1084   1.391   5.588   5.566  1.1666  2.1284  0.1151
   15CHL1   H2B 1085   1.539   5.550   5.463  0.4396 -1.2841  1.3670
   15CHL1   C20 1086   1.163   5.470   4.607 -0.3461 -0.4082  0.2658
   15CHL1   H20 1087   1.259   5.487   4.554  0.4059  1.8754  2.3015
   15CHL1   C21 1088   1.100   5.603   4.637 -0.1837 -0.8879  0.2952
   15CHL1  H21A 1089   1.181   5.666   4.679  0.0301 -1.8600  1.3800
   15CHL1  H21B 1090   1.021   5.608   4.715  0.3020 -0.4039  0.7640
   15CHL1  H21C 1091   1.044   5.649   4.552  2.6281  1.0941 -0.5427
   15CHL1   C22 1092   1.058   5.399   4.510 -0.2015  0.2629 -0.0155
   15CHL1  H22A 1093   1.090   5.294   4.491 -0.4281  0.0940  0.5172
   15CHL1  H22B 1094   0.964   5.398   4.569  1.0327 -0.2213  2.0138
   15CHL1   C23 1095   1.056   5.468   4.374  0.1275 -0.2588 -0.1282
   15CHL1  H23A 1096   0.998   5.562   4.386  0.4843  0.0327 -0.6482
   15CHL1  H23B 1097   1.163   5.495   4.361  0.3525 -1.0145  0.1265
   15CHL1   C24 1098   0.998   5.381   4.263 -0.6091 -0.0125  0.7448
   15CHL1  H24A 1099   1.075   5.304   4.242  0.4219  1.4589 -1.0143
   15CHL1  H24B 1100   0.901   5.343   4.302 -0.4191  0.5319  1.7585
   15CHL1   C25 1101   0.957   5.469   4.139  0.2764  0.2108  0.1057
   15CHL1   H25 1102   0.882   5.539   4.180  0.9438  0.3268  1.1442
   15CHL1   C26 1103   1.078   5.552   4.087  0.4819 -0.0585 -0.1783
   15CHL1  H26A 1104   1.048   5.580   3.984  0.3327  0.4943  0.0108
   15CHL1  H26B 1105   1.098   5.639   4.154 -2.2928  0.7285 -0.2913
   15CHL1  H26C 1106   1.162   5.480   4.094  0.6943  0.1337 -0.7294
   15CHL1   C27 1107   0.906   5.371   4.027 -0.3269 -0.0936 -0.7207
   15CHL1  H27A 1108   0.989   5.308   3.987 -0.6276 -0.1385 -1.2853
   15CHL1  H27B 1109   0.828   5.300   4.060 -1.5243 -0.0034 -3.2324
   15CHL1  H27C 1110   0.863   5.437   3.948 -1.4474  0.5701  0.4466
   16CHL1    C3 1111   0.836   2.294   5.919  0.5430  0.1552  1.1354
   16CHL1    H3 1112   0.845   2.184   5.930 -2.3344 -0.4072 -1.3897
   16CHL1    O3 1113   0.796   2.339   6.047 -0.2871  0.5887  0.1907
   16CHL1   H3' 1114   0.740   2.416   6.040 -0.0395  0.9413  1.9382
   16CHL1    C4 1115   0.977   2.352   5.881  0.5570 -0.1901  0.0523
   16CHL1   H4A 1116   0.979   2.463   5.887  1.7365 -0.1320 -1.0172
   16CHL1   H4B 1117   1.035   2.297   5.958  1.0339 -0.6015 -0.5906
   16CHL1    C5 1118   1.020   2.310   5.745  0.5183 -0.0859  0.0390
   16CHL1    C6 1119   1.142   2.252   5.724  0.5215  0.6212 -0.6962
   16CHL1    H6 1120   1.203   2.229   5.812  0.2163 -0.4309 -0.7413
   16CHL1    C7 1121   1.202   2.230   5.589 -0.0465 -0.1595  0.2011
   16CHL1   H7A 1122   1.305   2.271   5.586 -0.0980  0.0715  1.2548
   16CHL1   H7B 1123   1.204   2.121   5.567  0.0333 -0.0603 -0.2891
   16CHL1    C8 1124   1.123   2.293   5.469  0.1049  1.0331  0.4332
   16CHL1    H8 1125   1.155   2.398   5.453  1.2051  0.4288 -1.4937
   16CHL1   C14 1126   1.153   2.220   5.343 -0.4160 -0.6239  0.2395
   16CHL1   H14 1127   1.125   2.114   5.365 -1.7395  0.0481  1.8848
   16CHL1   C15 1128   1.301   2.227   5.290  0.3782  0.6675 -0.2130
   16CHL1  H15A 1129   1.342   2.330   5.292 -1.8786  1.6037 -0.7096
   16CHL1  H15B 1130   1.372   2.176   5.359  0.4026 -1.0562 -1.4595
   16CHL1   C16 1131   1.287   2.189   5.140  0.1232 -0.0186 -0.1730
   16CHL1  H16A 1132   1.333   2.262   5.070  0.6051 -0.7182 -0.5967
   16CHL1  H16B 1133   1.326   2.087   5.120 -2.6115 -1.6226  2.3136
   16CHL1   C17 1134   1.135   2.179   5.110  0.4460 -0.1215  0.3777
   16CHL1   H17 1135   1.106   2.075   5.138 -2.6662  0.7481  0.5669
   16CHL1   C13 1136   1.073   2.264   5.222  0.1873  0.7101 -0.1252
   16CHL1   C18 1137   1.110   2.405   5.178  0.0935  0.0207  0.2902
   16CHL1  H18A 1138   1.092   2.478   5.259  1.8703 -0.2962  0.9775
   16CHL1  H18B 1139   1.215   2.422   5.146 -0.0173  0.9541  0.4111
   16CHL1  H18C 1140   1.043   2.433   5.093  0.8151  0.3113 -0.1884
   16CHL1   C12 1141   0.929   2.243   5.255  0.7686 -0.5532  0.3931
   16CHL1  H12A 1142   0.863   2.283   5.175  1.3797 -1.4691 -0.5854
   16CHL1  H12B 1143   0.903   2.137   5.277 -0.3079 -0.2259  0.7369
   16CHL1   C11 1144   0.882   2.320   5.378  0.0290 -0.2960  0.0020
   16CHL1  H11A 1145   0.887   2.428   5.352 -2.9301  0.9971  4.2506
   16CHL1  H11B 1146   0.777   2.298   5.406 -0.0098  0.2947  0.3418
   16CHL1    C9 1147   0.970   2.281   5.495  0.1972  0.8859  0.2600
   16CHL1    H9 1148   0.966   2.170   5.509  1.7659  0.8896  0.7917
   16CHL1   C10 1149   0.922   2.343   5.632 -0.9091 -0.0502 -0.6385
   16CHL1   C19 1150   0.905   2.502   5.618 -0.0095 -0.1959  0.4589
   16CHL1  H19A 1151   0.862   2.546   5.711 -2.6910  0.8664 -1.1972
   16CHL1  H19B 1152   1.001   2.551   5.592 -0.2638  0.1852  0.2295
   16CHL1  H19C 1153   0.828   2.521   5.540  2.3907  1.0980 -1.6747
   16CHL1    C1 1154   0.783   2.279   5.675  0.0554  0.1301  0.0774
   16CHL1   H1A 1155   0.697   2.301   5.608  0.8223 -1.8193 -1.6076
   16CHL1   H1B 1156   0.798   2.169   5.684  0.9296  0.3197  0.9802
   16CHL1    C2 1157   0.734   2.323   5.815 -0.1734 -0.0092  0.5581
   16CHL1   H2A 1158   0.648   2.265   5.854 -1.5635  1.5317 -0.1597
   16CHL1   H2B 1159   0.710   2.432   5.820  1.7241  0.4093  0.9358
   16CHL1   C20 1160   1.098   2.196   4.960  0.3289  0.8697 -0.4814
   16CHL1   H20 1161   1.096   2.306   4.942 -0.7192  0.5395 -2.5680
   16CHL1   C21 1162   0.947   2.157   4.930  0.0413  0.2518 -0.7255
   16CHL1  H21A 1163   0.865   2.221   4.969  0.1363 -0.3922  0.5578
   16CHL1  H21B 1164   0.931   2.052   4.963 -1.8409  0.5292 -0.6939
   16CHL1  H21C 1165   0.946   2.168   4.819 -0.3161  0.5253 -0.6981
   16CHL1   C22 1166   1.194   2.117   4.864  0.5033  0.2508  0.1138
   16CHL1  H22A 1167   1.284   2.082   4.918 -0.6666 -0.2568  1.7966
   16CHL1  H22B 1168   1.142   2.030   4.817  1.2732  0.0492 -0.3674
   16CHL1   C23 1169   1.249   2.200   4.742 -0.0528  0.3065 -0.3910
   16CHL1  H23A 1170   1.171   2.208   4.664 -0.0065  0.1930 -0.4484
   16CHL1  H23B 1171   1.275   2.297   4.790 -0.1602 -0.1933  0.7087
   16CHL1   C24 1172   1.372   2.135   4.677 -0.0896 -0.2408  0.2286
   16CHL1  H24A 1173   1.446   2.150   4.759 -1.8222 -1.3732  2.0498
   16CHL1  H24B 1174   1.364   2.024   4.668  0.7051 -0.2155 -0.8779
   16CHL1   C25 1175   1.411   2.207   4.544 -0.6400  0.1612  0.2824
   16CHL1   H25 1176   1.399   2.317   4.532  0.0174 -0.0265 -2.6456
   16CHL1   C26 1177   1.552   2.175   4.499 -0.6308 -1.2973  0.7412
   16CHL1  H26A 1178   1.615   2.188   4.590 -1.2579  1.2370  0.8524
   16CHL1  H26B 1179   1.560   2.066   4.482 -2.0224 -1.1645 -0.8816
   16CHL1  H26C 1180   1.594   2.235   4.416 -3.0143  0.7881  0.9719
   16CHL1   C27 1181   1.326   2.148   4.431 -0.0185 -0.3214 -0.0485
   16CHL1  H27A 1182   1.221   2.179   4.448 -0.0715  0.2261 -1.3027
   16CHL1  H27B 1183   1.353   2.186   4.330  0.8245  2.9352  1.3366
   16CHL1  H27C 1184   1.330   2.038   4.442 -0.4659 -0.2728  0.5912
   17CHL1    C3 1185   1.863   5.963   5.571  0.7844  0.4021  0.2662
   17CHL1    H3 1186   1.852   6.070   5.541  2.2294  0.4438 -0.1549
   17CHL1    O3 1187   1.872   5.965   5.706 -0.1703 -0.4868 -0.2384
   17CHL1   H3' 1188   1.853   5.877   5.737  0.1449  0.3313  2.4509
   17CHL1    C4 1189   1.749   5.872   5.525  0.2705  0.2214  0.2901
   17CHL1   H4A 1190   1.775   5.772   5.564 -1.7791 -0.3335  0.3139
   17CHL1   H4B 1191   1.654   5.907   5.570 -0.5506 -0.7343 -0.6611
   17CHL1    C5 1192   1.739   5.859   5.375  0.4057 -0.4777  0.0221
   17CHL1    C6 1193   1.622   5.871   5.319 -1.0590  0.2481  0.0425
   17CHL1    H6 1194   1.528   5.866   5.376 -0.7748 -4.0641  0.2788
   17CHL1    C7 1195   1.603   5.856   5.173  0.3795  0.5512 -0.7082
   17CHL1   H7A 1196   1.512   5.796   5.151 -0.0366  2.3818 -4.2686
   17CHL1   H7B 1197   1.566   5.945   5.119  0.7756 -0.2287 -2.3139
   17CHL1    C8 1198   1.712   5.791   5.098  0.4400  0.4136 -0.4933
   17CHL1    H8 1199   1.716   5.682   5.118  0.4035  0.1010 -2.1301
   17CHL1   C14 1200   1.699   5.833   4.958  0.5221  0.3651  0.2822
   17CHL1   H14 1201   1.711   5.943   4.965  0.7970  0.2978  0.9047
   17CHL1   C15 1202   1.565   5.800   4.884 -0.2525  0.3436 -0.6426
   17CHL1  H15A 1203   1.542   5.693   4.900 -1.0294  0.3522 -1.6440
   17CHL1  H15B 1204   1.481   5.868   4.911 -0.5177  0.9561 -2.8717
   17CHL1   C16 1205   1.605   5.813   4.732  0.5270  0.0568  0.0521
   17CHL1  H16A 1206   1.580   5.720   4.676  2.6459  0.3511 -1.4681
   17CHL1  H16B 1207   1.559   5.903   4.687  0.3634 -0.8562 -1.6784
   17CHL1   C17 1208   1.763   5.835   4.728 -0.5466  0.3261  0.2574
   17CHL1   H17 1209   1.774   5.945   4.745  4.0530 -0.0817  0.6471
   17CHL1   C13 1210   1.814   5.786   4.866 -1.0168 -0.0945 -0.8052
   17CHL1   C18 1211   1.808   5.629   4.861  0.0875 -0.7812 -0.3315
   17CHL1  H18A 1212   1.721   5.591   4.804 -1.0505 -1.3265  1.7063
   17CHL1  H18B 1213   1.905   5.593   4.824  1.8742  2.5982  0.8106
   17CHL1  H18C 1214   1.786   5.589   4.962  1.0434  0.2658  0.3076
   17CHL1   C12 1215   1.954   5.833   4.915  0.0484 -0.1808  0.2399
   17CHL1  H12A 1216   2.027   5.783   4.848 -2.3998 -1.6994 -1.3886
   17CHL1  H12B 1217   1.956   5.943   4.897 -0.2766 -0.4419 -1.5398
   17CHL1   C11 1218   1.967   5.799   5.063 -0.0959 -0.6270  0.3360
   17CHL1  H11A 1219   1.987   5.689   5.067 -1.6884 -1.0393 -1.5949
   17CHL1  H11B 1220   2.064   5.833   5.103  0.1166  0.6147 -1.2053
   17CHL1    C9 1221   1.850   5.844   5.147 -0.2103  0.1273  0.5262
   17CHL1    H9 1222   1.854   5.954   5.136  0.7825 -0.0487 -0.9997
   17CHL1   C10 1223   1.866   5.819   5.297 -0.9393 -0.3250 -0.2116
   17CHL1   C19 1224   1.895   5.673   5.326 -0.5287  0.2120 -0.0408
   17CHL1  H19A 1225   1.880   5.642   5.432  2.2669 -2.7112 -0.4075
   17CHL1  H19B 1226   1.828   5.609   5.264  0.2625  1.1458 -1.8981
   17CHL1  H19C 1227   1.996   5.638   5.296  0.2707  2.6643 -0.3226
   17CHL1    C1 1228   1.989   5.902   5.354 -0.0415 -0.5551 -0.4809
   17CHL1   H1A 1229   2.074   5.836   5.327  0.1930 -0.6405  0.4628
   17CHL1   H1B 1230   2.013   5.987   5.286 -0.4544 -0.2897 -0.2947
   17CHL1    C2 1231   1.997   5.924   5.503 -0.1336 -0.1661 -0.5885
   17CHL1   H2A 1232   2.077   5.999   5.524 -1.1546  1.1778 -1.4158
   17CHL1   H2B 1233   2.024   5.826   5.548  1.0746 -0.8913 -2.8105
   17CHL1   C20 1234   1.827   5.816   4.594  0.6219 -0.0296  1.5532
   17CHL1   H20 1235   1.760   5.875   4.528  1.8078 -0.6262 -0.1940
   17CHL1   C21 1236   1.820   5.670   4.540  0.0712  0.4999  0.2412
   17CHL1  H21A 1237   1.721   5.628   4.569  0.3980  0.4687  1.3303
   17CHL1  H21B 1238   1.898   5.601   4.577  2.8294  1.9469 -2.6807
   17CHL1  H21C 1239   1.823   5.675   4.429  0.1719  1.1536  0.2712
   17CHL1   C22 1240   1.970   5.881   4.576 -0.5924 -0.1014  0.1996
   17CHL1  H22A 1241   1.961   5.987   4.608  0.0641  0.7764 -2.4146
   17CHL1  H22B 1242   2.044   5.831   4.642 -0.8699  1.3793  1.6548
   17CHL1   C23 1243   2.028   5.877   4.435  0.4061  0.8454 -0.5906
   17CHL1  H23A 1244   2.023   5.776   4.389  1.2061  0.6506 -0.2659
   17CHL1  H23B 1245   1.975   5.948   4.368  0.3376  0.9288 -0.4465
   17CHL1   C24 1246   2.179   5.920   4.435  0.8160  0.2877  0.9332
   17CHL1  H24A 1247   2.197   6.017   4.486  2.0273  0.8010 -0.4337
   17CHL1  H24B 1248   2.240   5.843   4.487 -0.2381 -1.1809  0.0363
   17CHL1   C25 1249   2.231   5.943   4.288 -0.3112 -0.5464 -0.1344
   17CHL1   H25 1250   2.190   5.863   4.223 -0.0369 -0.1916 -0.7454
   17CHL1   C26 1251   2.183   6.079   4.226  0.9382  0.0232  0.2460
   17CHL1  H26A 1252   2.076   6.087   4.198  1.0419 -0.3038 -0.2622
   17CHL1  H26B 1253   2.204   6.164   4.295  0.9324 -0.5900  1.0060
   17CHL1  H26C 1254   2.237   6.099   4.131  0.5664  0.9576  0.2212
   17CHL1   C27 1255   2.383   5.940   4.280 -0.5368 -0.4183  0.2579
   17CHL1  H27A 1256   2.418   5.952   4.175  2.2451 -0.0902  1.1737
   17CHL1  H27B 1257   2.423   6.010   4.356 -0.0791  2.8736 -2.8662
   17CHL1  H27C 1258   2.413   5.839   4.314 -1.9295 -0.6030  0.9640
   18CHL1    C3 1259   3.641   0.431   5.662 -0.0550 -0.1654 -0.4815
   18CHL1    H3 1260   3.590   0.529   5.651 -0.6422 -0.6491 -2.3162
   18CHL1    O3 1261   3.679   0.411   5.801  0.1996 -0.2587 -0.3527
   18CHL1   H3' 1262   3.724   0.488   5.834  0.5999 -0.2547 -0.8930
   18CHL1    C4 1263   3.540   0.326   5.612  0.5505 -0.1405  0.0448
   18CHL1   H4A 1264   3.584   0.227   5.637 -0.4491 -0.1978  1.6150
   18CHL1   H4B 1265   3.459   0.331   5.688  0.4846  2.5600 -0.1575
   18CHL1    C5 1266   3.498   0.349   5.464  0.1139 -0.2298 -0.3257
   18CHL1    C6 1267   3.361   0.363   5.436  0.4394  0.5438 -0.2963
   18CHL1    H6 1268   3.289   0.345   5.517  0.5616 -2.1300 -0.7343
   18CHL1    C7 1269   3.313   0.379   5.293 -0.5419  0.1269 -0.2217
   18CHL1   H7A 1270   3.224   0.315   5.278 -1.3521  1.4122 -1.0165
   18CHL1   H7B 1271   3.279   0.484   5.280  0.3220  0.4661  0.1666
   18CHL1    C8 1272   3.421   0.342   5.193  0.1356  0.1585  0.1097
   18CHL1    H8 1273   3.436   0.232   5.197 -0.4196  0.0853  0.2173
   18CHL1   C14 1274   3.384   0.387   5.051  0.3565 -0.5249  0.0345
   18CHL1   H14 1275   3.357   0.495   5.057 -0.8374 -0.9348  2.7696
   18CHL1   C15 1276   3.257   0.329   4.992 -0.0018 -0.9441 -0.3117
   18CHL1  H15A 1277   3.253   0.224   5.025 -0.3267 -0.6642  0.5303
   18CHL1  H15B 1278   3.168   0.382   5.032  0.6803 -0.7407  0.9448
   18CHL1   C16 1279   3.276   0.355   4.837 -0.5780  0.1068 -0.5872
   18CHL1  H16A 1280   3.268   0.255   4.790 -0.8997 -0.5625  0.8562
   18CHL1  H16B 1281   3.187   0.416   4.812 -1.9221 -1.9562 -0.8675
   18CHL1   C17 1282   3.411   0.430   4.821 -0.5827 -0.2364  0.5295
   18CHL1   H17 1283   3.381   0.536   4.840  0.7682  0.5650 -1.7014
   18CHL1   C13 1284   3.486   0.377   4.942 -0.9814 -0.1016  0.1982
   18CHL1   C18 1285   3.529   0.233   4.901  0.2054  1.0792  0.2716
   18CHL1  H18A 1286   3.467   0.184   4.824 -0.6662  0.9130  1.0686
   18CHL1  H18B 1287   3.635   0.235   4.866  0.7131 -1.2033  1.5198
   18CHL1  H18C 1288   3.533   0.165   4.989 -0.4066  0.1631 -0.3954
   18CHL1   C12 1289   3.610   0.461   4.987  0.5282  0.7973 -0.1867
   18CHL1  H12A 1290   3.689   0.452   4.908  1.1249 -2.2591  0.6836
   18CHL1  H12B 1291   3.589   0.570   4.985 -1.5580  0.4008 -2.3075
   18CHL1   C11 1292   3.667   0.408   5.118 -0.4776 -0.8308 -0.2285
   18CHL1  H11A 1293   3.700   0.303   5.102  0.7696 -0.5822  0.6032
   18CHL1  H11B 1294   3.747   0.473   5.161  0.8939 -3.6821  1.6608
   18CHL1    C9 1295   3.552   0.413   5.230  0.0234  0.3261 -0.2372
   18CHL1    H9 1296   3.527   0.519   5.252 -0.1632  0.1978  0.1901
   18CHL1   C10 1297   3.613   0.361   5.365 -0.3879 -0.3151  0.0995
   18CHL1   C19 1298   3.684   0.225   5.343 -0.3122  0.1990 -0.0325
   18CHL1  H19A 1299   3.615   0.158   5.289 -1.3603  1.3745 -0.1796
   18CHL1  H19B 1300   3.775   0.243   5.281 -0.6822  0.9760 -0.3592
   18CHL1  H19C 1301   3.715   0.162   5.429 -0.6589  0.0890  0.0134
   18CHL1    C1 1302   3.723   0.457   5.425 -0.5860  1.2902  0.4900
   18CHL1   H1A 1303   3.819   0.463   5.369  0.1336 -0.3773  1.5110
   18CHL1   H1B 1304   3.688   0.562   5.422  0.7854  1.7433 -0.3920
   18CHL1    C2 1305   3.767   0.436   5.574  0.5251 -0.2704 -0.0043
   18CHL1   H2A 1306   3.831   0.514   5.620 -1.2384  0.4285  1.3528
   18CHL1   H2B 1307   3.803   0.331   5.581 -0.2348 -0.5526 -0.2676
   18CHL1   C20 1308   3.489   0.425   4.695 -0.1047  0.7792  0.3506
   18CHL1   H20 1309   3.574   0.353   4.691  0.5691  1.4278  2.3007
   18CHL1   C21 1310   3.551   0.569   4.680  0.0578  0.3924  0.0743
   18CHL1  H21A 1311   3.588   0.621   4.771  0.0365  1.6795 -0.6462
   18CHL1  H21B 1312   3.473   0.635   4.636  1.4319  2.0511  0.0783
   18CHL1  H21C 1313   3.638   0.561   4.611  0.2567 -2.7977  0.6326
   18CHL1   C22 1314   3.396   0.396   4.576 -0.2912  0.4856  0.2797
   18CHL1  H22A 1315   3.351   0.295   4.589 -0.0436 -0.0342 -2.7057
   18CHL1  H22B 1316   3.315   0.472   4.586 -0.5254  0.5951 -2.2789
   18CHL1   C23 1317   3.460   0.420   4.440  0.2112 -0.2042  0.2966
   18CHL1  H23A 1318   3.476   0.526   4.409 -0.8226  0.2158  1.1678
   18CHL1  H23B 1319   3.560   0.373   4.427  0.9091  2.1335 -3.3153
   18CHL1   C24 1320   3.379   0.354   4.334 -0.4095 -0.0669  0.1656
   18CHL1  H24A 1321   3.391   0.246   4.356  0.1786 -0.1987 -0.7344
   18CHL1  H24B 1322   3.273   0.385   4.347  0.2057  2.1580  0.0328
   18CHL1   C25 1323   3.406   0.372   4.176  0.3902  0.2083  0.7185
   18CHL1   H25 1324   3.381   0.476   4.147 -1.4499 -0.5537 -0.4715
   18CHL1   C26 1325   3.556   0.355   4.134  0.2809  0.3440 -0.1584
   18CHL1  H26A 1326   3.584   0.254   4.171 -1.5832  0.2468  1.0917
   18CHL1  H26B 1327   3.569   0.360   4.024  0.0207  1.6758 -0.1336
   18CHL1  H26C 1328   3.627   0.431   4.174  2.1239 -0.7986 -1.1741
   18CHL1   C27 1329   3.318   0.278   4.095  0.5433  0.1710  0.1142
   18CHL1  H27A 1330   3.316   0.295   3.985  0.4869  0.1083  0.1050
   18CHL1  H27B 1331   3.349   0.171   4.104  1.1576  0.2416 -1.0686
   18CHL1  H27C 1332   3.217   0.296   4.136  1.1352 -2.5086  2.9596
   19CHL1    C3 1333   2.121   0.982   5.713 -0.2037 -0.1410 -0.1614
   19CHL1    H3 1334   2.013   0.975   5.689  0.3400 -1.4418 -2.4921
   19CHL1    O3 1335   2.128   0.959   5.853 -0.4029 -0.4217  0.1625
   19CHL1   H3' 1336   2.221   0.971   5.873 -0.9426  3.7276  0.4402
   19CHL1    C4 1337   2.216   0.876   5.645  0.2017  0.6126  0.5929
   19CHL1   H4A 1338   2.314   0.891   5.695  0.6146  0.5271 -0.1787
   19CHL1   H4B 1339   2.169   0.777   5.660  1.6917 -0.3925 -1.2053
   19CHL1    C5 1340   2.207   0.904   5.495 -0.4291 -0.1189 -0.5284
   19CHL1    C6 1341   2.174   0.809   5.406 -0.3242  0.0081  0.1958
   19CHL1    H6 1342   2.152   0.709   5.445 -1.4187  0.1840  0.0455
   19CHL1    C7 1343   2.170   0.831   5.259  0.1683 -0.2217  0.0887
   19CHL1   H7A 1344   2.217   0.748   5.201 -0.0542 -0.1379 -0.2170
   19CHL1   H7B 1345   2.065   0.833   5.221 -0.7648  2.4562  2.6571
   19CHL1    C8 1346   2.252   0.957   5.219 -0.4667 -0.6020  0.4694
   19CHL1    H8 1347   2.359   0.928   5.230 -0.6179 -2.0712 -1.6158
   19CHL1   C14 1348   2.220   1.000   5.076  0.6346 -0.1736  0.1443
   19CHL1   H14 1349   2.116   1.037   5.085  0.4019 -1.4281  3.2559
   19CHL1   C15 1350   2.220   0.885   4.967 -0.4736 -0.4595  0.0445
   19CHL1  H15A 1351   2.304   0.815   4.985 -0.2052  0.2376  1.5930
   19CHL1  H15B 1352   2.130   0.821   4.977 -0.3067 -0.4051  2.1522
   19CHL1   C16 1353   2.231   0.969   4.843  0.2918  0.0928  0.6818
   19CHL1  H16A 1354   2.308   0.928   4.774 -1.2093 -1.6178 -0.0286
   19CHL1  H16B 1355   2.133   0.957   4.793  0.4978 -2.6229  0.8800
   19CHL1   C17 1356   2.246   1.121   4.881 -0.1486  0.0324  0.3449
   19CHL1   H17 1357   2.142   1.159   4.879 -0.0461  0.2993 -0.1491
   19CHL1   C13 1358   2.304   1.112   5.023  0.4397 -0.1059 -0.5266
   19CHL1   C18 1359   2.457   1.072   5.018 -0.4464  0.8101  0.3837
   19CHL1  H18A 1360   2.497   1.054   5.121  0.2198  0.3623  0.0533
   19CHL1  H18B 1361   2.461   0.978   4.959 -0.8017  1.6195 -0.9314
   19CHL1  H18C 1362   2.522   1.150   4.972  0.0196  1.1108  1.5269
   19CHL1   C12 1363   2.276   1.233   5.106 -0.0923  0.3268  0.2892
   19CHL1  H12A 1364   2.347   1.313   5.074 -0.4679  0.7031  0.3853
   19CHL1  H12B 1365   2.168   1.260   5.099 -0.4572 -1.5569 -2.0348
   19CHL1   C11 1366   2.303   1.207   5.259  0.3470 -0.0483  0.2603
   19CHL1  H11A 1367   2.413   1.205   5.273  0.3705 -1.2404 -0.0329
   19CHL1  H11B 1368   2.251   1.290   5.312 -0.5642 -1.0620  0.9657
   19CHL1    C9 1369   2.226   1.085   5.312  0.4761 -0.0645 -0.5911
   19CHL1    H9 1370   2.118   1.111   5.306  1.0331  3.0526  1.5812
   19CHL1   C10 1371   2.247   1.051   5.460 -0.1792 -0.3003  0.4366
   19CHL1   C19 1372   2.395   1.070   5.487 -0.5625 -0.0596  0.2505
   19CHL1  H19A 1373   2.412   1.179   5.500  1.2883 -0.1883 -1.0554
   19CHL1  H19B 1374   2.436   1.019   5.577  1.6354  3.1910  1.2062
   19CHL1  H19C 1375   2.460   1.025   5.409  2.2103  0.6338  2.1109
   19CHL1    C1 1376   2.170   1.153   5.543 -0.0536  0.1484 -0.0260
   19CHL1   H1A 1377   2.207   1.256   5.530 -1.4170  0.4211 -2.0219
   19CHL1   H1B 1378   2.062   1.140   5.518 -0.7539  0.6768  2.5167
   19CHL1    C2 1379   2.176   1.116   5.692 -0.6991 -1.3003 -0.9262
   19CHL1   H2A 1380   2.102   1.180   5.744 -0.3693 -1.7294  0.0705
   19CHL1   H2B 1381   2.278   1.127   5.734 -0.9286 -0.9266 -0.4562
   19CHL1   C20 1382   2.314   1.211   4.774  0.1001  0.1029  0.0795
   19CHL1   H20 1383   2.424   1.192   4.772  0.2972  0.8427  1.9820
   19CHL1   C21 1384   2.279   1.358   4.800 -0.7050 -0.2498 -0.4730
   19CHL1  H21A 1385   2.194   1.383   4.732 -2.2797 -2.0110  0.7894
   19CHL1  H21B 1386   2.363   1.427   4.778  0.9240 -2.0005  0.0788
   19CHL1  H21C 1387   2.230   1.377   4.898 -0.6598 -1.8037 -0.1400
   19CHL1   C22 1388   2.262   1.181   4.629 -0.4945 -0.0121 -0.2489
   19CHL1  H22A 1389   2.273   1.072   4.611 -0.4660  0.1394 -1.1830
   19CHL1  H22B 1390   2.153   1.203   4.621 -0.3795  0.5877 -0.1915
   19CHL1   C23 1391   2.339   1.262   4.516  0.0032 -0.1300 -0.3068
   19CHL1  H23A 1392   2.376   1.359   4.555  0.4629  0.4579 -2.1575
   19CHL1  H23B 1393   2.433   1.205   4.499  0.6021  0.4517  1.0029
   19CHL1   C24 1394   2.270   1.285   4.383 -0.7609 -0.0793 -0.7808
   19CHL1  H24A 1395   2.335   1.326   4.303 -1.0906 -0.4732 -1.2530
   19CHL1  H24B 1396   2.229   1.186   4.356  0.2253 -0.3371 -1.3837
   19CHL1   C25 1397   2.152   1.382   4.386  0.0381 -0.1989 -0.4252
   19CHL1   H25 1398   2.070   1.332   4.442  1.6888  1.0028  3.1406
   19CHL1   C26 1399   2.185   1.517   4.456  0.0904 -0.5349 -0.1998
   19CHL1  H26A 1400   2.209   1.493   4.562 -1.0318 -1.9246 -0.2502
   19CHL1  H26B 1401   2.275   1.565   4.413 -0.2937  1.6778  1.3767
   19CHL1  H26C 1402   2.105   1.592   4.439  2.2171  1.3736 -2.1852
   19CHL1   C27 1403   2.102   1.403   4.239 -0.4410 -0.0147 -0.3177
   19CHL1  H27A 1404   2.015   1.473   4.237 -1.2109 -0.9277  0.5222
   19CHL1  H27B 1405   2.184   1.452   4.183 -1.5457 -0.8092 -2.7011
   19CHL1  H27C 1406   2.074   1.305   4.194 -0.3707  0.1119 -0.6383
   20CHL1    C3 1407   1.788   0.621   5.638  0.0878 -0.5314 -0.3821
   20CHL1    H3 1408   1.889   0.642   5.595 -0.9583  2.1331 -1.6190
   20CHL1    O3 1409   1.793   0.576   5.771  0.2683 -0.0895 -0.9932
   20CHL1   H3' 1410   1.699   0.564   5.785  0.2507  0.1703 -0.8772
   20CHL1    C4 1411   1.708   0.751   5.614  0.1779  0.5325 -0.3386
   20CHL1   H4A 1412   1.606   0.729   5.651  1.1337 -2.8047  0.4361
   20CHL1   H4B 1413   1.744   0.824   5.690  1.1867  0.3644 -0.6500
   20CHL1    C5 1414   1.713   0.795   5.470  0.0521 -0.8517  0.4786
   20CHL1    C6 1415   1.764   0.918   5.442 -0.3981 -1.1783 -0.2434
   20CHL1    H6 1416   1.783   0.981   5.530 -1.8672  1.2342 -1.5981
   20CHL1    C7 1417   1.793   0.974   5.302 -0.5232  0.4277 -0.7201
   20CHL1   H7A 1418   1.754   1.075   5.281 -2.3598 -0.0211  0.4218
   20CHL1   H7B 1419   1.903   0.970   5.288  0.0499  3.4165  2.2261
   20CHL1    C8 1420   1.728   0.877   5.193 -0.0374 -0.7094  0.0718
   20CHL1    H8 1421   1.620   0.901   5.189  0.0968 -0.0100  0.6231
   20CHL1   C14 1422   1.790   0.905   5.055  0.2697 -0.2031  0.5658
   20CHL1   H14 1423   1.894   0.866   5.065  0.6286  0.8782  1.2159
   20CHL1   C15 1424   1.803   1.053   5.006  0.3209  0.2827 -0.1237
   20CHL1  H15A 1425   1.710   1.110   5.028  0.0168  1.1285 -3.2919
   20CHL1  H15B 1426   1.877   1.109   5.067  1.1015 -0.6843 -0.1561
   20CHL1   C16 1427   1.829   1.030   4.860  0.3528  0.1744 -0.4030
   20CHL1  H16A 1428   1.760   1.090   4.797  1.2042  2.9826  1.2600
   20CHL1  H16B 1429   1.931   1.065   4.833  1.4334 -1.8601  0.8290
   20CHL1   C17 1430   1.807   0.879   4.829  0.0179 -0.4943 -0.0937
   20CHL1   H17 1431   1.902   0.824   4.840 -0.1480 -1.0494 -1.2916
   20CHL1   C13 1432   1.724   0.828   4.943 -0.1874 -0.2231  0.1232
   20CHL1   C18 1433   1.573   0.870   4.929  0.6268 -0.0243 -0.1091
   20CHL1  H18A 1434   1.562   0.979   4.914 -1.0957 -0.4459 -2.2006
   20CHL1  H18B 1435   1.514   0.823   4.848 -0.1517  1.0897 -0.2047
   20CHL1  H18C 1436   1.517   0.849   5.024 -0.7192 -0.0845 -0.8977
   20CHL1   C12 1437   1.733   0.677   4.978  0.1213  0.1463 -0.8370
   20CHL1  H12A 1438   1.678   0.617   4.902 -1.6718 -1.2139  1.4525
   20CHL1  H12B 1439   1.836   0.637   4.991  2.1415  4.5627 -2.3380
   20CHL1   C11 1440   1.672   0.648   5.118  0.1890 -0.7176 -0.0608
   20CHL1  H11A 1441   1.563   0.671   5.113 -0.2626 -2.8044 -0.2207
   20CHL1  H11B 1442   1.674   0.540   5.144  3.4920 -0.5492  0.5667
   20CHL1    C9 1443   1.732   0.732   5.229  0.2528 -0.0822  0.4832
   20CHL1    H9 1444   1.840   0.706   5.234  0.0730 -1.0290 -0.3227
   20CHL1   C10 1445   1.673   0.690   5.369 -0.0229  0.5832 -1.3135
   20CHL1   C19 1446   1.518   0.670   5.371 -0.2754  0.8298  0.2479
   20CHL1  H19A 1447   1.470   0.766   5.341 -1.1794  1.6218  4.0114
   20CHL1  H19B 1448   1.486   0.588   5.302 -0.6229 -0.6849  2.1669
   20CHL1  H19C 1449   1.487   0.652   5.476  0.1866 -1.1778  0.0539
   20CHL1    C1 1450   1.733   0.549   5.405 -0.4763  0.6605  0.1456
   20CHL1   H1A 1451   1.677   0.461   5.366 -0.6477  0.4420  0.8776
   20CHL1   H1B 1452   1.838   0.557   5.368  0.7634  0.9017  3.5328
   20CHL1    C2 1453   1.731   0.506   5.554 -0.0773  0.1400 -0.0130
   20CHL1   H2A 1454   1.789   0.412   5.566 -0.2781  0.1039  0.7078
   20CHL1   H2B 1455   1.624   0.497   5.582 -0.2452  3.3610  0.5742
   20CHL1   C20 1456   1.774   0.856   4.681 -0.2773 -0.0770  0.2930
   20CHL1   H20 1457   1.680   0.908   4.653  0.7418  1.0491 -1.1360
   20CHL1   C21 1458   1.732   0.707   4.660 -0.2749 -0.0470 -0.7622
   20CHL1  H21A 1459   1.627   0.699   4.694 -0.2270  1.1785 -0.3049
   20CHL1  H21B 1460   1.810   0.643   4.706  1.1316  1.1308 -1.4618
   20CHL1  H21C 1461   1.736   0.685   4.551  1.3621  1.6517 -1.0740
   20CHL1   C22 1462   1.900   0.894   4.592 -0.2378 -0.2087  0.1444
   20CHL1  H22A 1463   1.929   0.992   4.634  0.6489 -0.3968 -0.0193
   20CHL1  H22B 1464   1.977   0.818   4.616 -1.1932 -1.2310  0.0103
   20CHL1   C23 1465   1.876   0.908   4.439 -0.4192 -0.3003 -0.5908
   20CHL1  H23A 1466   1.848   0.805   4.408 -2.3278  0.1664 -0.5157
   20CHL1  H23B 1467   1.793   0.981   4.425  1.0418  1.5386  0.1686
   20CHL1   C24 1468   2.003   0.957   4.354 -0.1124 -0.3710 -0.1542
   20CHL1  H24A 1469   2.001   1.065   4.380  1.1714 -0.3034 -0.2780
   20CHL1  H24B 1470   2.100   0.912   4.385  0.4659 -0.1445 -1.6278
   20CHL1   C25 1471   1.996   0.939   4.206 -0.1725  0.6074 -0.4697
   20CHL1   H25 1472   1.958   0.837   4.182  2.3057 -0.8987  1.7250
   20CHL1   C26 1473   1.898   1.044   4.150  0.2611 -0.3041  0.1557
   20CHL1  H26A 1474   1.792   1.013   4.167 -0.0767  0.0347 -1.2829
   20CHL1  H26B 1475   1.914   1.140   4.204 -0.5409  0.2034 -0.4993
   20CHL1  H26C 1476   1.899   1.050   4.039  2.2297 -0.1473  0.1776
   20CHL1   C27 1477   2.134   0.947   4.146 -0.4202 -0.0407  0.6878
   20CHL1  H27A 1478   2.172   1.050   4.162 -0.7978 -0.0744  1.8151
   20CHL1  H27B 1479   2.203   0.869   4.184  1.2020  0.1717 -1.6738
   20CHL1  H27C 1480   2.133   0.938   4.035  1.1607  1.0307  0.5762
   21CHL1    C3 1481   6.929   2.087   5.705 -0.1242 -0.3412 -0.6204
   21CHL1    H3 1482   6.824   2.051   5.711  0.0056 -0.8157 -1.1297
   21CHL1    O3 1483   6.971   2.098   5.840 -0.2556 -0.0961 -0.5452
   21CHL1   H3' 1484   6.936   2.016   5.876  0.5046  0.6720  2.0245
   21CHL1    C4 1485   7.020   1.979   5.639  0.4809  0.0639 -0.5994
   21CHL1   H4A 1486   7.126   2.009   5.649  0.4740  0.6831 -2.1486
   21CHL1   H4B 1487   6.997   1.887   5.697 -1.5359  1.4502  0.8664
   21CHL1    C5 1488   6.983   1.957   5.491 -0.2109 -0.7463 -0.1310
   21CHL1    C6 1489   6.947   1.831   5.445  0.0716  0.0645  0.1276
   21CHL1    H6 1490   6.946   1.743   5.511 -1.5310  0.4966  0.6985
   21CHL1    C7 1491   6.896   1.802   5.303 -0.0720 -0.0888  0.3159
   21CHL1   H7A 1492   6.935   1.706   5.264  1.5722 -1.2482  4.5319
   21CHL1   H7B 1493   6.785   1.803   5.312  0.0053 -0.0033  1.4425
   21CHL1    C8 1494   6.925   1.930   5.211  1.0464 -0.2191 -0.6231
   21CHL1    H8 1495   7.031   1.929   5.179  1.1528 -0.0090 -0.2789
   21CHL1   C14 1496   6.845   1.918   5.085 -0.4545  0.3197  0.7375
   21CHL1   H14 1497   6.740   1.928   5.120 -1.2118 -0.8902 -1.1464
   21CHL1   C15 1498   6.855   1.787   5.001  0.3808 -0.2968 -0.7592
   21CHL1  H15A 1499   6.965   1.768   5.000  0.2485 -1.0437 -1.4272
   21CHL1  H15B 1500   6.809   1.696   5.044 -1.5280 -0.1154 -2.3756
   21CHL1   C16 1501   6.791   1.820   4.865  0.0883  0.1765 -0.2624
   21CHL1  H16A 1502   6.850   1.789   4.776 -1.6661 -0.2560 -1.3011
   21CHL1  H16B 1503   6.695   1.765   4.856  0.4644 -0.8557  1.7882
   21CHL1   C17 1504   6.776   1.982   4.867  0.1802 -0.3247  0.4942
   21CHL1   H17 1505   6.672   1.992   4.904  0.2457  0.4565  0.4615
   21CHL1   C13 1506   6.864   2.040   4.978  0.4855 -0.5362 -0.1257
   21CHL1   C18 1507   7.009   2.039   4.927  0.1895 -0.4461  0.0492
   21CHL1  H18A 1508   7.025   1.944   4.872 -0.5267  0.0747 -1.0757
   21CHL1  H18B 1509   7.041   2.125   4.865  1.5126 -1.9983 -1.4568
   21CHL1  H18C 1510   7.081   2.046   5.012 -1.4012  1.2439  1.3006
   21CHL1   C12 1511   6.823   2.171   5.053  0.3151  0.6354  0.0633
   21CHL1  H12A 1512   6.855   2.258   4.993  1.7557 -1.0097 -1.6212
   21CHL1  H12B 1513   6.714   2.164   5.073 -0.0372  0.2979 -1.8712
   21CHL1   C11 1514   6.902   2.181   5.174 -0.3895 -0.0487 -0.9804
   21CHL1  H11A 1515   7.009   2.199   5.152  0.6251 -1.3125  2.6106
   21CHL1  H11B 1516   6.850   2.263   5.228  1.0755 -0.8354  1.7116
   21CHL1    C9 1517   6.895   2.060   5.275 -0.9974 -0.1733  0.2245
   21CHL1    H9 1518   6.786   2.054   5.298 -1.4615  3.0641 -0.8531
   21CHL1   C10 1519   6.979   2.088   5.410 -1.0576 -0.0151 -0.7488
   21CHL1   C19 1520   7.122   2.125   5.366  0.2197  0.5304  0.3624
   21CHL1  H19A 1521   7.140   2.223   5.317 -2.0756  0.3879 -0.8416
   21CHL1  H19B 1522   7.189   2.119   5.455  1.4564 -0.7532 -0.6369
   21CHL1  H19C 1523   7.155   2.039   5.303  1.8023  1.9202 -0.7432
   21CHL1    C1 1524   6.915   2.209   5.485 -0.3843 -0.0303 -0.0533
   21CHL1   H1A 1525   6.953   2.307   5.447  0.6947  0.3705  1.9528
   21CHL1   H1B 1526   6.805   2.204   5.472 -0.4113 -2.0185  0.7875
   21CHL1    C2 1527   6.948   2.215   5.640 -0.8046 -0.4660  0.1666
   21CHL1   H2A 1528   6.881   2.292   5.685  0.1739 -1.1157  2.8451
   21CHL1   H2B 1529   7.046   2.266   5.654 -1.2246 -0.0465  1.6651
   21CHL1   C20 1530   6.763   2.044   4.729 -0.3127 -0.0716 -0.2243
   21CHL1   H20 1531   6.870   2.052   4.699  0.5323 -1.4223  2.3728
   21CHL1   C21 1532   6.700   2.187   4.731  0.3092 -0.2397 -0.8890
   21CHL1  H21A 1533   6.597   2.166   4.769  0.1253  0.5905 -0.9298
   21CHL1  H21B 1534   6.693   2.233   4.631 -0.3191  0.1983 -0.6497
   21CHL1  H21C 1535   6.761   2.258   4.791 -0.3388  1.0401 -1.7173
   21CHL1   C22 1536   6.679   1.958   4.632  0.1169 -0.2555  0.1216
   21CHL1  H22A 1537   6.721   1.856   4.620 -3.0306 -1.6811  0.8022
   21CHL1  H22B 1538   6.576   1.958   4.674 -0.1247 -0.0321 -0.4696
   21CHL1   C23 1539   6.660   2.020   4.492 -0.2100  0.4286 -0.1093
   21CHL1  H23A 1540   6.577   2.092   4.505 -0.9595 -0.2144 -1.2592
   21CHL1  H23B 1541   6.754   2.062   4.451  0.9698 -0.9996  1.0663
   21CHL1   C24 1542   6.616   1.917   4.382 -0.2412 -0.3031  0.1880
   21CHL1  H24A 1543   6.686   1.833   4.395 -1.9109 -1.5919  1.0900
   21CHL1  H24B 1544   6.512   1.885   4.403 -0.7835 -0.4591 -2.5540
   21CHL1   C25 1545   6.618   1.981   4.237 -0.4986 -0.0181  0.0712
   21CHL1   H25 1546   6.723   2.015   4.237 -0.4067 -0.2970  0.0002
   21CHL1   C26 1547   6.587   1.877   4.133  0.6727  0.2571  0.4475
   21CHL1  H26A 1548   6.477   1.863   4.130  0.4219  2.2848 -0.3140
   21CHL1  H26B 1549   6.619   1.910   4.032  1.6724 -0.2257  0.5951
   21CHL1  H26C 1550   6.630   1.775   4.148  0.9592  0.1309 -1.1503
   21CHL1   C27 1551   6.530   2.107   4.218  0.3598  0.0470 -0.3929
   21CHL1  H27A 1552   6.556   2.166   4.128 -1.6755  0.9902 -0.3636
   21CHL1  H27B 1553   6.422   2.081   4.215  0.2429  0.4857  0.0341
   21CHL1  H27C 1554   6.546   2.170   4.308  0.3443 -1.0452  0.3846
   22CHL1    C3 1555   0.983   5.175   5.742 -0.2292 -1.0814 -0.2934
   22CHL1    H3 1556   0.889   5.227   5.771  1.1966  1.6523 -0.3760
   22CHL1    O3 1557   1.049   5.111   5.845 -0.2750  0.3659  0.5995
   22CHL1   H3' 1558   1.142   5.124   5.828 -0.4832  0.3335 -0.6263
   22CHL1    C4 1559   0.957   5.068   5.633  0.1756 -0.4463  0.0973
   22CHL1   H4A 1560   1.044   5.005   5.604  2.2210  1.9309  0.8514
   22CHL1   H4B 1561   0.896   4.988   5.680 -0.8917  0.6623  0.6410
   22CHL1    C5 1562   0.884   5.118   5.509  0.1083 -0.6721  0.2048
   22CHL1    C6 1563   0.767   5.060   5.468  0.1422  0.1037 -0.2946
   22CHL1    H6 1564   0.720   4.984   5.532  1.5505 -0.8841 -0.4203
   22CHL1    C7 1565   0.690   5.109   5.349  0.2220 -0.1258  0.3010
   22CHL1   H7A 1566   0.663   5.018   5.290 -0.5057  0.2863 -0.0068
   22CHL1   H7B 1567   0.601   5.167   5.381 -1.5647 -1.1138 -2.6090
   22CHL1    C8 1568   0.783   5.190   5.263  0.4483 -0.4523 -0.6291
   22CHL1    H8 1569   0.852   5.120   5.211  0.1423 -1.2879  0.0762
   22CHL1   C14 1570   0.690   5.270   5.160  0.1767  0.4710  1.0934
   22CHL1   H14 1571   0.632   5.337   5.227  0.1584  0.1085  1.4405
   22CHL1   C15 1572   0.588   5.191   5.066  0.5693  0.2355 -0.4615
   22CHL1  H15A 1573   0.650   5.107   5.029 -0.1551  0.6206 -2.5968
   22CHL1  H15B 1574   0.499   5.147   5.115 -1.4599  1.6383 -2.7551
   22CHL1   C16 1575   0.556   5.297   4.962 -0.0485 -0.1749  0.5350
   22CHL1  H16A 1576   0.608   5.248   4.877  2.5609  1.4317  1.1703
   22CHL1  H16B 1577   0.448   5.320   4.947 -0.3167 -0.5911  1.7681
   22CHL1   C17 1578   0.641   5.421   4.990  0.2186 -0.1053 -0.2951
   22CHL1   H17 1579   0.577   5.476   5.061  0.7492 -0.1276  0.2026
   22CHL1   C13 1580   0.763   5.370   5.072 -0.1994  0.4111 -0.4904
   22CHL1   C18 1581   0.861   5.295   4.980  0.2199  0.0013  0.5428
   22CHL1  H18A 1582   0.934   5.364   4.932  2.9195 -1.9171  1.7441
   22CHL1  H18B 1583   0.924   5.232   5.046 -0.3573 -0.7749  0.3481
   22CHL1  H18C 1584   0.809   5.230   4.907  2.2572 -2.0610  0.8779
   22CHL1   C12 1585   0.830   5.476   5.158 -0.0081  0.7798 -0.1463
   22CHL1  H12A 1586   0.884   5.545   5.090  1.6473 -2.0247 -1.7573
   22CHL1  H12B 1587   0.751   5.532   5.213  0.0004  1.2808 -0.6308
   22CHL1   C11 1588   0.925   5.416   5.266  0.1513  0.6718 -0.3000
   22CHL1  H11A 1589   1.014   5.376   5.214  0.1248  0.4260 -0.1529
   22CHL1  H11B 1590   0.968   5.503   5.321  1.0203 -0.4292  0.7671
   22CHL1    C9 1591   0.861   5.296   5.346 -0.7764  0.3764  0.2077
   22CHL1    H9 1592   0.787   5.336   5.418  0.0528  0.3486  1.0925
   22CHL1   C10 1593   0.961   5.233   5.439  0.1139  0.3031 -0.3156
   22CHL1   C19 1594   1.086   5.178   5.363  0.1174  0.3254  0.6923
   22CHL1  H19A 1595   1.053   5.151   5.261 -0.1585 -1.0980  1.1541
   22CHL1  H19B 1596   1.174   5.246   5.359 -0.5766  1.1565 -0.7385
   22CHL1  H19C 1597   1.125   5.084   5.406  0.6928 -0.6489 -1.8782
   22CHL1    C1 1598   1.012   5.340   5.547  0.0081  0.3809  0.6274
   22CHL1   H1A 1599   1.084   5.416   5.509  0.9907  0.5212  2.6801
   22CHL1   H1B 1600   0.913   5.380   5.577 -0.0285  0.4021  0.4757
   22CHL1    C2 1601   1.073   5.276   5.674 -0.2366 -0.0346 -0.2130
   22CHL1   H2A 1602   1.095   5.359   5.745 -0.3872 -0.1238 -0.0620
   22CHL1   H2B 1603   1.172   5.230   5.652  0.0188  0.2462  0.3414
   22CHL1   C20 1604   0.674   5.521   4.873  0.4111 -0.1269 -0.6929
   22CHL1   H20 1605   0.781   5.549   4.873 -0.0660  1.8173 -0.7643
   22CHL1   C21 1606   0.585   5.645   4.905 -0.4460  0.6577 -0.5551
   22CHL1  H21A 1607   0.582   5.723   4.826 -1.1721  1.7323  0.5219
   22CHL1  H21B 1608   0.586   5.689   5.007 -1.5600 -2.1745  0.7192
   22CHL1  H21C 1609   0.478   5.619   4.891 -0.4510  1.2094 -1.6518
   22CHL1   C22 1610   0.657   5.459   4.731 -0.2629 -0.2885  0.2262
   22CHL1  H22A 1611   0.728   5.374   4.733  1.5288  1.1865  1.2302
   22CHL1  H22B 1612   0.555   5.414   4.722 -1.3242  2.2062 -0.9600
   22CHL1   C23 1613   0.680   5.561   4.618 -0.1451  0.2153 -0.1410
   22CHL1  H23A 1614   0.632   5.660   4.635 -0.7629 -0.3137  1.2708
   22CHL1  H23B 1615   0.788   5.587   4.615 -0.3959  1.2140 -0.8173
   22CHL1   C24 1616   0.630   5.498   4.485  0.0845  0.2161 -0.2461
   22CHL1  H24A 1617   0.705   5.419   4.464  2.0361  2.0534 -0.4150
   22CHL1  H24B 1618   0.524   5.466   4.490  0.1646 -0.5925 -2.8637
   22CHL1   C25 1619   0.632   5.595   4.367  0.1986 -0.4689  0.2381
   22CHL1   H25 1620   0.736   5.637   4.368 -0.0203  0.1219  2.3900
   22CHL1   C26 1621   0.603   5.500   4.246  0.3301  0.1756  0.1645
   22CHL1  H26A 1622   0.650   5.544   4.155 -0.7532  0.0989 -0.4356
   22CHL1  H26B 1623   0.654   5.404   4.269 -1.7084 -0.9040  0.2204
   22CHL1  H26C 1624   0.495   5.481   4.230  0.2418  0.8653 -0.1041
   22CHL1   C27 1625   0.526   5.712   4.379 -0.4782  0.1436 -0.6734
   22CHL1  H27A 1626   0.531   5.783   4.293 -1.2517  1.2181  0.1496
   22CHL1  H27B 1627   0.423   5.671   4.365 -2.1754  4.1568 -0.6092
   22CHL1  H27C 1628   0.534   5.782   4.465 -1.5264 -0.5115 -0.0362
   23CHL1    C3 1629   0.251   2.154   5.763  0.4114 -0.0188  0.1206
   23CHL1    H3 1630   0.149   2.172   5.723 -0.1508  1.7949  2.3011
   23CHL1    O3 1631   0.253   2.206   5.892  0.5436 -0.1995  0.1827
   23CHL1   H3' 1632   0.328   2.267   5.891  0.2726  0.1256 -1.4822
   23CHL1    C4 1633   0.310   2.015   5.756 -0.3065  0.0679 -0.4413
   23CHL1   H4A 1634   0.416   2.025   5.788 -0.3628  0.2923 -0.3258
   23CHL1   H4B 1635   0.250   1.949   5.823 -0.0256  1.7202  1.4771
   23CHL1    C5 1636   0.310   1.968   5.611  0.3651  0.3949 -0.4520
   23CHL1    C6 1637   0.228   1.873   5.570  0.2681 -0.3675  0.1083
   23CHL1    H6 1638   0.180   1.809   5.646  1.1513  0.5567  1.4734
   23CHL1    C7 1639   0.196   1.830   5.430  0.6612 -0.5260  0.8391
   23CHL1   H7A 1640   0.196   1.720   5.410  0.9933 -0.4408  0.3571
   23CHL1   H7B 1641   0.101   1.880   5.403 -0.1767 -2.7055 -0.4350
   23CHL1    C8 1642   0.310   1.880   5.338 -0.4139 -0.5895 -0.3854
   23CHL1    H8 1643   0.404   1.822   5.350  0.6433  1.1036 -0.2859
   23CHL1   C14 1644   0.257   1.866   5.194 -0.5596 -0.2780  1.0268
   23CHL1   H14 1645   0.181   1.947   5.184 -1.5074 -1.3898 -1.2035
   23CHL1   C15 1646   0.189   1.740   5.151 -0.7231  0.1613 -0.3446
   23CHL1  H15A 1647   0.250   1.652   5.182 -1.6417  0.2496  1.7962
   23CHL1  H15B 1648   0.087   1.724   5.192 -0.4791 -2.0012 -0.5309
   23CHL1   C16 1649   0.178   1.753   4.994  0.4737  0.6848  0.2855
   23CHL1  H16A 1650   0.224   1.667   4.941 -3.0292 -1.3667  0.4307
   23CHL1  H16B 1651   0.072   1.758   4.962  0.3386 -2.7104  0.0667
   23CHL1   C17 1652   0.252   1.892   4.960  0.3841 -0.0731  0.3384
   23CHL1   H17 1653   0.177   1.974   4.957 -1.7006 -1.9497 -0.6205
   23CHL1   C13 1654   0.351   1.911   5.078 -0.0503 -0.4045 -1.0783
   23CHL1   C18 1655   0.476   1.814   5.058  0.0526  0.2335 -0.0079
   23CHL1  H18A 1656   0.527   1.790   5.153  0.0822  0.5763  0.0628
   23CHL1  H18B 1657   0.448   1.716   5.013  1.2960  0.3832 -1.1308
   23CHL1  H18C 1658   0.560   1.844   4.993  1.7944 -1.5948  1.3421
   23CHL1   C12 1659   0.395   2.056   5.114  0.2320  0.5069  0.1973
   23CHL1  H12A 1660   0.474   2.091   5.044  0.8080 -1.2211 -0.0498
   23CHL1  H12B 1661   0.311   2.129   5.112 -0.3136 -0.0719  1.5707
   23CHL1   C11 1662   0.457   2.068   5.249  0.0895  0.9198  0.1211
   23CHL1  H11A 1663   0.536   1.990   5.257 -1.6583 -0.6103  3.2123
   23CHL1  H11B 1664   0.509   2.162   5.278  0.5081 -0.0369  2.5908
   23CHL1    C9 1665   0.352   2.028   5.361 -0.0196  0.0373  0.0086
   23CHL1    H9 1666   0.261   2.087   5.335  0.1681  0.2170 -0.2276
   23CHL1   C10 1667   0.386   2.052   5.513 -0.6833 -0.6177  0.2344
   23CHL1   C19 1668   0.536   2.017   5.541 -0.9143  0.2094  0.4548
   23CHL1  H19A 1669   0.600   2.062   5.463  0.8319 -1.8602  0.6640
   23CHL1  H19B 1670   0.569   2.056   5.640 -0.9705 -3.1689  1.8495
   23CHL1  H19C 1671   0.556   1.909   5.529 -0.2505  0.2975  0.6872
   23CHL1    C1 1672   0.364   2.204   5.540 -0.1222 -0.6027 -0.4757
   23CHL1   H1A 1673   0.454   2.251   5.495 -0.2544  0.6605  0.5375
   23CHL1   H1B 1674   0.267   2.228   5.492 -1.5034 -2.2320  1.3907
   23CHL1    C2 1675   0.349   2.242   5.684 -0.5640 -0.4799  0.2358
   23CHL1   H2A 1676   0.311   2.346   5.695 -0.5315 -0.5165  0.7159
   23CHL1   H2B 1677   0.447   2.236   5.738  0.3323 -2.8483 -1.5989
   23CHL1   C20 1678   0.316   1.887   4.814 -0.0039  0.3539  0.0343
   23CHL1   H20 1679   0.406   1.821   4.813 -1.2000 -1.3111 -1.4211
   23CHL1   C21 1680   0.356   2.035   4.772  0.2376  0.4750 -0.0133
   23CHL1  H21A 1681   0.262   2.093   4.773 -1.1230 -1.6783 -0.5517
   23CHL1  H21B 1682   0.397   2.034   4.669 -0.8578  1.9818 -0.4842
   23CHL1  H21C 1683   0.426   2.074   4.850  0.4813  0.2594 -0.1216
   23CHL1   C22 1684   0.220   1.826   4.707 -0.7048  0.2660 -0.3692
   23CHL1  H22A 1685   0.214   1.719   4.736  1.1695  0.4224  0.6749
   23CHL1  H22B 1686   0.125   1.884   4.704  0.0000  1.3278 -3.2808
   23CHL1   C23 1687   0.292   1.828   4.571  0.1065 -0.0435  0.4216
   23CHL1  H23A 1688   0.273   1.923   4.517 -1.2280 -1.7840 -2.2367
   23CHL1  H23B 1689   0.403   1.827   4.568  0.1785  3.4307 -0.0297
   23CHL1   C24 1690   0.225   1.725   4.475 -1.0622 -0.1074  0.1445
   23CHL1  H24A 1691   0.224   1.632   4.535 -0.1194 -0.0465  0.2632
   23CHL1  H24B 1692   0.116   1.746   4.472 -0.7862  1.3892  0.2706
   23CHL1   C25 1693   0.286   1.701   4.334  0.0893 -0.4690  0.0025
   23CHL1   H25 1694   0.288   1.803   4.290  0.4257 -0.6307 -0.3557
   23CHL1   C26 1695   0.425   1.643   4.351 -0.3952  0.1248 -0.3919
   23CHL1  H26A 1696   0.480   1.720   4.409 -0.7582 -0.0082  0.1299
   23CHL1  H26B 1697   0.423   1.543   4.400  0.7055 -0.5413 -1.6503
   23CHL1  H26C 1698   0.484   1.634   4.257 -1.0748 -1.4970 -0.6753
   23CHL1   C27 1699   0.197   1.614   4.238  0.0790  0.6588 -0.2301
   23CHL1  H27A 1700   0.094   1.653   4.247 -0.0162  0.3707 -0.0834
   23CHL1  H27B 1701   0.238   1.617   4.135  1.0335 -0.9654  0.0819
   23CHL1  H27C 1702   0.188   1.513   4.283  0.3743  0.6491 -0.1902
   24CHL1    C3 1703   1.176   6.898   5.723 -0.2244  0.6758 -0.5528
   24CHL1    H3 1704   1.119   6.973   5.664  0.0903  1.5362  0.2160
   24CHL1    O3 1705   1.118   6.906   5.849 -0.1370 -0.0201  0.0894
   24CHL1   H3' 1706   1.106   7.001   5.864  1.6821  0.5705 -1.9704
   24CHL1    C4 1707   1.176   6.759   5.661  0.0401 -0.4762 -0.0165
   24CHL1   H4A 1708   1.216   6.676   5.723 -2.2513 -0.7254  1.1868
   24CHL1   H4B 1709   1.067   6.736   5.660 -0.2754  0.8137  2.0250
   24CHL1    C5 1710   1.254   6.763   5.530  0.3669 -0.2608 -0.3965
   24CHL1    C6 1711   1.178   6.731   5.422 -0.4228 -0.9763  0.1151
   24CHL1    H6 1712   1.074   6.695   5.433 -0.9476  1.1371  2.5433
   24CHL1    C7 1713   1.238   6.748   5.285  0.0128  0.0328 -0.0114
   24CHL1   H7A 1714   1.214   6.650   5.238 -0.1367  0.4704 -0.8578
   24CHL1   H7B 1715   1.194   6.834   5.232  0.0893  0.8491  1.2275
   24CHL1    C8 1716   1.394   6.741   5.276 -0.0465  0.0590 -0.7099
   24CHL1    H8 1717   1.417   6.638   5.309 -1.4230  0.0133  0.1678
   24CHL1   C14 1718   1.440   6.796   5.141 -0.3881 -0.2210  0.0117
   24CHL1   H14 1719   1.401   6.898   5.119 -1.2909  0.4632  4.3178
   24CHL1   C15 1720   1.384   6.719   5.016  0.4481 -0.8169 -0.2216
   24CHL1  H15A 1721   1.407   6.612   5.029  2.3184 -0.2567  1.3435
   24CHL1  H15B 1722   1.280   6.757   5.008  0.1046 -1.7920 -0.4433
   24CHL1   C16 1723   1.478   6.762   4.907 -0.0942 -0.0609  0.0056
   24CHL1  H16A 1724   1.515   6.678   4.844 -0.6552 -1.0611  0.9924
   24CHL1  H16B 1725   1.436   6.825   4.826  3.0731 -0.2543 -1.8490
   24CHL1   C17 1726   1.598   6.838   4.974  0.4047 -0.1145  0.3044
   24CHL1   H17 1727   1.581   6.948   4.975  0.6580 -0.0499  3.5812
   24CHL1   C13 1728   1.590   6.802   5.125 -0.1193 -0.0748 -0.6585
   24CHL1   C18 1729   1.658   6.662   5.150 -0.7423 -0.0401  0.1211
   24CHL1  H18A 1730   1.769   6.666   5.137 -0.7533 -1.1020 -0.3460
   24CHL1  H18B 1731   1.639   6.618   5.250  0.3867  1.1407  0.8778
   24CHL1  H18C 1732   1.625   6.595   5.069 -0.4622  0.1749 -0.1734
   24CHL1   C12 1733   1.635   6.915   5.228 -0.8486 -0.2382 -0.0952
   24CHL1  H12A 1734   1.745   6.934   5.222 -0.8662  0.3622  1.2964
   24CHL1  H12B 1735   1.579   7.007   5.203 -1.1933 -0.9050 -1.8196
   24CHL1   C11 1736   1.592   6.872   5.368  0.1872  0.2700 -0.0670
   24CHL1  H11A 1737   1.649   6.784   5.403  0.6658  0.8252  0.5650
   24CHL1  H11B 1738   1.638   6.952   5.430 -1.5349  1.6642 -0.5527
   24CHL1    C9 1739   1.445   6.842   5.383 -0.0591  0.5732 -0.4594
   24CHL1    H9 1740   1.390   6.933   5.350 -1.8123 -0.8102 -1.4266
   24CHL1   C10 1741   1.401   6.816   5.530 -0.8603 -1.0152  0.0156
   24CHL1   C19 1742   1.485   6.705   5.596  0.0898  0.0137 -0.7205
   24CHL1  H19A 1743   1.494   6.611   5.538 -0.5051 -0.1821 -0.4948
   24CHL1  H19B 1744   1.578   6.756   5.629  0.1922 -0.2445 -0.6140
   24CHL1  H19C 1745   1.431   6.674   5.688 -0.0315 -0.3980 -0.9287
   24CHL1    C1 1746   1.400   6.951   5.611  0.3089 -0.1785  0.2225
   24CHL1   H1A 1747   1.502   6.996   5.619  0.6196 -0.8669  0.1882
   24CHL1   H1B 1748   1.350   7.016   5.536  1.4816 -1.4879 -1.7442
   24CHL1    C2 1749   1.322   6.947   5.742 -1.1232 -0.2821 -0.4238
   24CHL1   H2A 1750   1.323   7.044   5.796 -1.5531  1.7500 -3.9396
   24CHL1   H2B 1751   1.378   6.880   5.812 -0.5538 -1.6962 -2.1921
   24CHL1   C20 1752   1.732   6.813   4.911  0.2566  0.5012  0.0585
   24CHL1   H20 1753   1.758   6.705   4.916 -3.2039 -0.3933 -0.1701
   24CHL1   C21 1754   1.842   6.901   4.969 -0.4994 -0.2510  0.3544
   24CHL1  H21A 1755   1.937   6.895   4.913 -0.7852 -0.1258 -0.1464
   24CHL1  H21B 1756   1.868   6.863   5.070 -1.5231  1.2210  1.2090
   24CHL1  H21C 1757   1.800   7.002   4.991  0.5227  0.3474 -0.3905
   24CHL1   C22 1758   1.725   6.843   4.757 -0.3158 -0.3877  0.4005
   24CHL1  H22A 1759   1.638   6.791   4.712  0.2988 -1.2747  0.2221
   24CHL1  H22B 1760   1.706   6.951   4.742 -0.0843 -0.4152 -0.1015
   24CHL1   C23 1761   1.847   6.798   4.676  0.5630 -0.4939 -0.6078
   24CHL1  H23A 1762   1.926   6.867   4.711  1.5479 -2.1088  0.4519
   24CHL1  H23B 1763   1.871   6.693   4.703 -0.9886 -0.4502  1.0138
   24CHL1   C24 1764   1.825   6.788   4.522 -0.3789  0.1782 -0.3438
   24CHL1  H24A 1765   1.739   6.719   4.506  0.1607 -0.1450 -1.9152
   24CHL1  H24B 1766   1.806   6.893   4.491 -2.3571 -0.0341  0.0507
   24CHL1   C25 1767   1.944   6.731   4.444 -0.2132  0.1348 -0.1385
   24CHL1   H25 1768   1.971   6.641   4.503 -1.7353 -0.9251 -1.0410
   24CHL1   C26 1769   1.898   6.682   4.309 -0.1900 -0.4939 -0.2434
   24CHL1  H26A 1770   1.986   6.631   4.264  1.0470  1.2718  0.1106
   24CHL1  H26B 1771   1.823   6.601   4.323 -0.1706 -0.1528  2.1713
   24CHL1  H26C 1772   1.855   6.753   4.236 -2.1176 -1.9880 -0.6024
   24CHL1   C27 1773   2.061   6.831   4.437 -0.2677  0.0510 -0.2254
   24CHL1  H27A 1774   2.027   6.935   4.417  1.4420  0.4875 -0.9654
   24CHL1  H27B 1775   2.101   6.828   4.540  2.2983 -3.1057 -1.2081
   24CHL1  H27C 1776   2.137   6.807   4.359  1.2204  1.1180  0.8709
   25CHL1    C3 1777   6.878   1.305   5.804 -0.8098  0.2569  0.2481
   25CHL1    H3 1778   6.947   1.218   5.810 -1.0708  0.0397  0.1194
   25CHL1    O3 1779   6.835   1.328   5.932 -0.4209 -0.1071 -0.3837
   25CHL1   H3' 1780   6.908   1.373   5.975 -0.4936 -2.2011  2.0399
   25CHL1    C4 1781   6.957   1.429   5.755  0.7356 -0.1690  0.0969
   25CHL1   H4A 1782   6.875   1.502   5.742 -0.9155 -1.8170  1.1113
   25CHL1   H4B 1783   7.023   1.475   5.831 -0.7784  3.3139 -0.6140
   25CHL1    C5 1784   7.029   1.393   5.631 -0.0108 -0.7929 -0.3369
   25CHL1    C6 1785   7.159   1.396   5.610  0.2480  0.7108 -0.4807
   25CHL1    H6 1786   7.232   1.435   5.684  0.9584  1.0744 -1.3586
   25CHL1    C7 1787   7.227   1.355   5.481  0.3424  0.4853 -0.2257
   25CHL1   H7A 1788   7.314   1.419   5.458  1.5344 -0.7959  0.6734
   25CHL1   H7B 1789   7.260   1.250   5.496 -0.6983 -0.1998 -2.5387
   25CHL1    C8 1790   7.137   1.367   5.353  0.0459  0.2564  0.4797
   25CHL1    H8 1791   7.114   1.475   5.337  1.4967  0.5908  0.5426
   25CHL1   C14 1792   7.194   1.298   5.227 -0.2333  0.0196  1.0496
   25CHL1   H14 1793   7.209   1.194   5.263  1.6282 -0.7147 -1.7355
   25CHL1   C15 1794   7.335   1.335   5.174 -0.1819 -0.1515  0.6361
   25CHL1  H15A 1795   7.341   1.445   5.183  0.4750 -0.1341  0.0371
   25CHL1  H15B 1796   7.410   1.300   5.248 -0.4880  0.8173  1.4167
   25CHL1   C16 1797   7.345   1.284   5.032  0.1892 -0.3798  0.4743
   25CHL1  H16A 1798   7.357   1.377   4.971 -0.0931 -0.0652  0.8953
   25CHL1  H16B 1799   7.418   1.205   5.006 -1.3445 -1.8278  0.5342
   25CHL1   C17 1800   7.191   1.240   5.002 -0.3614  0.3878 -0.5091
   25CHL1   H17 1801   7.214   1.133   5.020  2.3210  0.7657 -1.4086
   25CHL1   C13 1802   7.099   1.290   5.103  0.2651  0.2847  1.0231
   25CHL1   C18 1803   7.048   1.433   5.066  0.0173 -0.5253 -0.0875
   25CHL1  H18A 1804   6.985   1.477   5.147  1.1759 -2.5382  1.9575
   25CHL1  H18B 1805   7.139   1.487   5.032 -0.3682  1.5078  1.9809
   25CHL1  H18C 1806   6.980   1.430   4.978  0.3023 -1.6386 -0.2705
   25CHL1   C12 1807   6.977   1.202   5.139 -0.1796 -0.2930  0.2703
   25CHL1  H12A 1808   6.900   1.197   5.059  1.0211  1.5270 -1.0329
   25CHL1  H12B 1809   7.019   1.102   5.166  0.3936  0.6102  2.8321
   25CHL1   C11 1810   6.914   1.244   5.271 -0.6046 -0.3687 -0.2360
   25CHL1  H11A 1811   6.849   1.329   5.243 -1.1144 -0.4995  0.5347
   25CHL1  H11B 1812   6.847   1.164   5.309 -0.5427 -0.0243  0.6199
   25CHL1    C9 1813   7.011   1.289   5.392  0.4447  0.2948  0.0573
   25CHL1    H9 1814   7.060   1.196   5.426 -0.7383  0.5127  2.4718
   25CHL1   C10 1815   6.935   1.339   5.515 -0.7952 -0.2872  0.0887
   25CHL1   C19 1816   6.848   1.465   5.469  0.2216 -0.4395 -0.8469
   25CHL1  H19A 1817   6.857   1.549   5.541 -2.1902 -0.4815 -0.4528
   25CHL1  H19B 1818   6.880   1.494   5.367 -0.0641 -0.5424 -0.9645
   25CHL1  H19C 1819   6.742   1.434   5.456 -0.3327  0.9306  0.2893
   25CHL1    C1 1820   6.843   1.227   5.580 -0.7675 -0.1461 -0.0207
   25CHL1   H1A 1821   6.767   1.193   5.506 -0.0838  1.7172 -1.6044
   25CHL1   H1B 1822   6.912   1.140   5.590  0.9431  1.2155  0.2041
   25CHL1    C2 1823   6.773   1.264   5.703  0.3711 -0.7795 -0.7671
   25CHL1   H2A 1824   6.724   1.174   5.746  0.1048 -0.3397 -0.1444
   25CHL1   H2B 1825   6.701   1.349   5.702  0.5876 -0.5888 -0.2839
   25CHL1   C20 1826   7.147   1.247   4.855 -0.2903 -0.0013  0.4212
   25CHL1   H20 1827   7.035   1.246   4.853 -0.2652 -1.0225 -0.3085
   25CHL1   C21 1828   7.186   1.112   4.790  0.3965 -0.1727  0.1784
   25CHL1  H21A 1829   7.144   1.028   4.849  1.1789 -0.0712  0.8956
   25CHL1  H21B 1830   7.296   1.097   4.788  0.5626  1.1216 -2.0914
   25CHL1  H21C 1831   7.150   1.107   4.686  1.4074 -0.1675 -0.1796
   25CHL1   C22 1832   7.181   1.367   4.771  0.3730 -0.1107  0.4771
   25CHL1  H22A 1833   7.163   1.457   4.834  0.1729 -1.0458  1.7792
   25CHL1  H22B 1834   7.288   1.368   4.741  0.2155 -1.5126 -0.1736
   25CHL1   C23 1835   7.078   1.386   4.654 -0.1626 -0.0180 -0.2627
   25CHL1  H23A 1836   7.096   1.300   4.586 -1.8863  0.2512 -1.1070
   25CHL1  H23B 1837   6.981   1.387   4.708  0.3725  0.4961  0.6904
   25CHL1   C24 1838   7.105   1.518   4.578  0.5652  0.0627  0.1178
   25CHL1  H24A 1839   7.088   1.600   4.650 -0.9559 -1.6824  1.8220
   25CHL1  H24B 1840   7.214   1.529   4.556  0.5511  2.6475  1.1782
   25CHL1   C25 1841   7.019   1.539   4.453  0.4841  0.1509 -1.2001
   25CHL1   H25 1842   7.051   1.636   4.409  1.8336  0.6712  0.8327
   25CHL1   C26 1843   7.026   1.433   4.344  0.2672  0.6826  0.1979
   25CHL1  H26A 1844   7.005   1.330   4.382 -1.7678  1.4746  1.2552
   25CHL1  H26B 1845   6.953   1.443   4.261  0.5060  2.2945  0.1712
   25CHL1  H26C 1846   7.128   1.434   4.299  0.4403  0.1473  0.5727
   25CHL1   C27 1847   6.869   1.552   4.490 -0.0391  0.0017  0.0772
   25CHL1  H27A 1848   6.858   1.618   4.579 -0.9743  1.0239 -0.7689
   25CHL1  H27B 1849   6.820   1.604   4.405  1.7917  0.8211 -0.5106
   25CHL1  H27C 1850   6.825   1.451   4.503 -0.7229  0.2025 -0.6609
   26CHL1    C3 1851   1.911   7.131   5.725 -0.3802  0.0281  0.2176
   26CHL1    H3 1852   2.021   7.125   5.740 -0.3300  2.0980  0.7326
   26CHL1    O3 1853   1.837   7.097   5.842  0.0549 -0.2027 -0.8150
   26CHL1   H3' 1854   1.879   7.144   5.915  1.3547  0.4612 -1.9775
   26CHL1    C4 1855   1.885   7.281   5.692  0.0644  0.0778  0.1409
   26CHL1   H4A 1856   1.775   7.296   5.695  0.1140  0.4052  0.2785
   26CHL1   H4B 1857   1.934   7.327   5.780  0.3794 -2.1362  1.1436
   26CHL1    C5 1858   1.940   7.336   5.564 -0.1779 -0.2900 -0.5204
   26CHL1    C6 1859   2.030   7.431   5.558 -0.2788  0.2331  0.8363
   26CHL1    H6 1860   2.057   7.484   5.651  1.2450 -0.0472  0.5790
   26CHL1    C7 1861   2.072   7.501   5.424 -0.3713 -0.3254 -0.3344
   26CHL1   H7A 1862   2.071   7.612   5.433 -0.6571 -0.4577  1.4500
   26CHL1   H7B 1863   2.177   7.469   5.406 -0.5757 -0.8453 -0.6296
   26CHL1    C8 1864   1.987   7.444   5.306 -0.1061  0.5552 -0.6584
   26CHL1    H8 1865   1.891   7.499   5.316  0.0702  0.8172 -0.4011
   26CHL1   C14 1866   2.054   7.477   5.183  1.1351  0.4375  0.5973
   26CHL1   H14 1867   2.153   7.426   5.187  0.9699  0.2384  2.6970
   26CHL1   C15 1868   2.091   7.626   5.159  0.1069  0.3522 -0.2088
   26CHL1  H15A 1869   2.001   7.692   5.166  0.6497  0.9362  1.5411
   26CHL1  H15B 1870   2.166   7.659   5.234 -0.5176  0.3850  0.4085
   26CHL1   C16 1871   2.123   7.626   5.008  0.0803  0.5058  0.6079
   26CHL1  H16A 1872   2.075   7.713   4.959  2.1211  2.1092  1.3879
   26CHL1  H16B 1873   2.232   7.638   4.991 -0.3067 -0.5574 -2.9389
   26CHL1   C17 1874   2.082   7.488   4.948 -0.2136 -0.0099 -0.3477
   26CHL1   H17 1875   2.176   7.428   4.947 -0.4329 -0.4122  1.4262
   26CHL1   C13 1876   1.987   7.429   5.054 -0.1106  0.9750  0.5007
   26CHL1   C18 1877   1.846   7.485   5.020 -0.1947  0.0395 -0.1811
   26CHL1  H18A 1878   1.792   7.444   4.931 -0.7722  1.1776 -0.3645
   26CHL1  H18B 1879   1.784   7.488   5.112  1.8602  2.1282  1.1910
   26CHL1  H18C 1880   1.864   7.594   5.009 -1.0775 -0.0187 -2.5912
   26CHL1   C12 1881   1.986   7.271   5.064 -0.0406  0.5257  0.3743
   26CHL1  H12A 1882   1.933   7.226   4.978  0.2747  1.3075 -0.2275
   26CHL1  H12B 1883   2.090   7.233   5.053  0.7786  1.3280  4.3895
   26CHL1   C11 1884   1.909   7.219   5.187  0.8045  0.3988  0.7912
   26CHL1  H11A 1885   1.802   7.243   5.173  0.6720 -0.2333  0.7345
   26CHL1  H11B 1886   1.919   7.109   5.186 -0.3818  0.2909 -1.6122
   26CHL1    C9 1887   1.962   7.291   5.321  0.4196 -0.6923  0.6668
   26CHL1    H9 1888   2.060   7.239   5.323  0.0622 -1.3958  0.2535
   26CHL1   C10 1889   1.885   7.251   5.444 -0.3444 -0.4770  0.2027
   26CHL1   C19 1890   1.733   7.265   5.414 -0.0830 -0.1156  0.0779
   26CHL1  H19A 1891   1.680   7.185   5.359 -2.1265  1.4229 -0.2317
   26CHL1  H19B 1892   1.674   7.270   5.508  0.2721 -2.1753  0.4225
   26CHL1  H19C 1893   1.727   7.359   5.355 -2.6822 -1.0622 -1.2119
   26CHL1    C1 1894   1.911   7.097   5.477 -0.1234 -0.5415 -0.1587
   26CHL1   H1A 1895   1.874   7.031   5.396 -2.2933  0.3439  0.0896
   26CHL1   H1B 1896   2.020   7.082   5.456  0.0103 -1.1096  0.8992
   26CHL1    C2 1897   1.864   7.046   5.611  0.2790  0.0141  0.1166
   26CHL1   H2A 1898   1.890   6.940   5.632 -1.4769 -0.6306 -0.8292
   26CHL1   H2B 1899   1.753   7.046   5.612  0.2590  2.1168  1.8028
   26CHL1   C20 1900   2.030   7.496   4.807  0.1591 -0.4122 -0.6232
   26CHL1   H20 1901   1.937   7.557   4.805 -0.9460 -2.1198 -2.0743
   26CHL1   C21 1902   1.991   7.357   4.758  0.1713 -0.1772  0.5626
   26CHL1  H21A 1903   1.899   7.320   4.808  0.5410  1.1090  2.2641
   26CHL1  H21B 1904   2.076   7.288   4.777  0.6013 -0.1603 -1.2936
   26CHL1  H21C 1905   1.978   7.384   4.652  3.7031  0.0375  0.1200
   26CHL1   C22 1906   2.133   7.565   4.707 -0.5947 -0.2096 -0.4160
   26CHL1  H22A 1907   2.176   7.653   4.759 -1.3493  1.1068 -2.0002
   26CHL1  H22B 1908   2.223   7.500   4.698 -0.8269 -0.6997  0.6968
   26CHL1   C23 1909   2.075   7.605   4.569  0.1569  0.1401 -0.6317
   26CHL1  H23A 1910   2.034   7.512   4.525 -0.2775 -0.1088  0.3080
   26CHL1  H23B 1911   1.994   7.680   4.582  0.7196  0.2830  2.3726
   26CHL1   C24 1912   2.179   7.657   4.479 -0.2643  0.6221 -0.5176
   26CHL1  H24A 1913   2.235   7.745   4.516 -0.1004 -0.3542  1.6392
   26CHL1  H24B 1914   2.263   7.585   4.472  0.5321  1.2467  2.0682
   26CHL1   C25 1915   2.136   7.682   4.330  0.4166 -0.2133  1.2001
   26CHL1   H25 1916   2.072   7.773   4.331 -0.3535 -0.7102 -0.3206
   26CHL1   C26 1917   2.268   7.700   4.244  0.4990  0.2643  0.4109
   26CHL1  H26A 1918   2.337   7.760   4.307  2.7544 -3.5464  1.7509
   26CHL1  H26B 1919   2.312   7.603   4.212  2.3800  1.5025 -0.8677
   26CHL1  H26C 1920   2.257   7.754   4.148 -1.1284  0.3755  0.6555
   26CHL1   C27 1921   2.040   7.574   4.275 -0.2842  1.1056  0.3402
   26CHL1  H27A 1922   1.995   7.607   4.179  0.3242 -0.5548 -0.5366
   26CHL1  H27B 1923   2.087   7.474   4.264  1.1167  1.6074  1.6134
   26CHL1  H27C 1924   1.948   7.558   4.335  1.3966 -2.0207  2.2396
   27CHL1    C3 1925   0.920   6.395   5.763  0.8093  0.9141 -0.6449
   27CHL1    H3 1926   0.974   6.492   5.776  1.5909  0.3036  0.7100
   27CHL1    O3 1927   0.888   6.336   5.889 -0.0510  0.1299 -0.4374
   27CHL1   H3' 1928   0.975   6.318   5.927 -0.5394 -0.7728  0.2632
   27CHL1    C4 1929   0.798   6.422   5.683 -0.2594  0.0258  0.5198
   27CHL1   H4A 1930   0.730   6.334   5.680 -0.3772  0.1136  0.6180
   27CHL1   H4B 1931   0.739   6.490   5.747 -0.5903  0.4312 -0.2145
   27CHL1    C5 1932   0.816   6.464   5.534 -0.1770  0.2224 -0.6337
   27CHL1    C6 1933   0.758   6.574   5.492 -0.7733 -0.5346 -0.8185
   27CHL1    H6 1934   0.692   6.640   5.551  0.1900 -1.5224  1.4338
   27CHL1    C7 1935   0.782   6.618   5.348  0.4755 -0.4420  0.5044
   27CHL1   H7A 1936   0.683   6.640   5.302 -0.2839 -0.3673  2.1212
   27CHL1   H7B 1937   0.841   6.712   5.346  0.0528 -0.1455  1.7066
   27CHL1    C8 1938   0.842   6.512   5.252 -0.5946 -0.4670 -0.1307
   27CHL1    H8 1939   0.760   6.442   5.227  0.1870 -1.5704  0.3556
   27CHL1   C14 1940   0.891   6.567   5.125 -0.0554  0.0323  0.1090
   27CHL1   H14 1941   0.972   6.637   5.156  2.0634 -1.6474 -1.4512
   27CHL1   C15 1942   0.799   6.660   5.046 -0.4295 -0.1092 -0.4409
   27CHL1  H15A 1943   0.694   6.624   5.040  0.0794 -2.6627  3.6702
   27CHL1  H15B 1944   0.792   6.761   5.091 -1.1860 -1.8704  3.6517
   27CHL1   C16 1945   0.864   6.674   4.911 -0.1308  0.0213  0.3876
   27CHL1  H16A 1946   0.794   6.643   4.831  2.8276 -0.9356 -1.9074
   27CHL1  H16B 1947   0.897   6.780   4.903  3.5985 -0.9609  1.7005
   27CHL1   C17 1948   0.991   6.587   4.911  0.2286  0.3608 -0.3076
   27CHL1   H17 1949   1.076   6.647   4.949 -1.7907  2.1458  1.5541
   27CHL1   C13 1950   0.959   6.478   5.020  0.1110  0.8212  0.6752
   27CHL1   C18 1951   0.860   6.367   4.961 -0.8973 -0.3238 -0.9918
   27CHL1  H18A 1952   0.782   6.416   4.899 -0.3825  0.2103 -1.2162
   27CHL1  H18B 1953   0.915   6.294   4.898 -1.0765  1.7697 -3.6524
   27CHL1  H18C 1954   0.818   6.310   5.046 -0.9131 -1.3847 -1.6962
   27CHL1   C12 1955   1.075   6.408   5.092 -0.5396  0.3243  0.2796
   27CHL1  H12A 1956   1.117   6.322   5.036 -0.1618  2.4470 -2.8250
   27CHL1  H12B 1957   1.154   6.484   5.105  0.2335 -0.3161 -0.6167
   27CHL1   C11 1958   1.032   6.344   5.230  0.2929  0.2072  0.1018
   27CHL1  H11A 1959   0.982   6.249   5.200  2.0402  0.2505 -3.2668
   27CHL1  H11B 1960   1.125   6.311   5.282  1.2704  0.1563 -1.6297
   27CHL1    C9 1961   0.952   6.441   5.321 -0.5645  0.6097  0.6547
   27CHL1    H9 1962   1.026   6.516   5.356  1.1357 -1.1245  0.8179
   27CHL1   C10 1963   0.917   6.380   5.458  0.8393 -0.0281 -0.2402
   27CHL1   C19 1964   0.848   6.245   5.431  0.2950 -0.5391  0.2487
   27CHL1  H19A 1965   0.757   6.263   5.370  0.2325  1.2301  0.8254
   27CHL1  H19B 1966   0.924   6.172   5.398  0.7323  0.2666 -0.5544
   27CHL1  H19C 1967   0.818   6.198   5.527  0.4384  0.2407  0.6771
   27CHL1    C1 1968   1.046   6.355   5.545  0.4591  0.1827 -0.2661
   27CHL1   H1A 1969   1.118   6.280   5.507 -0.5858 -0.9795  0.0073
   27CHL1   H1B 1970   1.094   6.454   5.562 -0.4855  0.7257 -0.7027
   27CHL1    C2 1971   1.017   6.305   5.690 -0.3125  0.2050  0.2597
   27CHL1   H2A 1972   1.115   6.305   5.742  0.3284  2.2668 -0.8784
   27CHL1   H2B 1973   0.972   6.204   5.690 -0.5560  0.2960 -1.1240
   27CHL1   C20 1974   1.022   6.533   4.766 -0.5952 -0.4354 -0.0629
   27CHL1   H20 1975   0.935   6.467   4.749 -0.8248 -0.4098  1.0177
   27CHL1   C21 1976   1.151   6.464   4.765  0.2036 -0.5832 -0.2269
   27CHL1  H21A 1977   1.173   6.411   4.669  2.4768  0.7626 -0.4805
   27CHL1  H21B 1978   1.167   6.403   4.856  0.2467 -0.9902 -0.5047
   27CHL1  H21C 1979   1.234   6.536   4.778  0.8696 -1.8054  2.6529
   27CHL1   C22 1980   1.016   6.639   4.653 -0.8759 -0.2612 -0.6437
   27CHL1  H22A 1981   0.922   6.698   4.665 -0.8651 -0.4755  0.5358
   27CHL1  H22B 1982   1.106   6.702   4.665 -0.2885 -0.7353 -2.3613
   27CHL1   C23 1983   1.015   6.572   4.518  1.0470  0.3221 -0.1018
   27CHL1  H23A 1984   1.112   6.517   4.515  1.1705  0.2200  3.6853
   27CHL1  H23B 1985   0.931   6.502   4.498  0.4438  1.3435 -1.2269
   27CHL1   C24 1986   1.019   6.668   4.394 -0.2649 -0.2674  0.0011
   27CHL1  H24A 1987   0.928   6.730   4.382 -0.9857 -0.7185  2.7573
   27CHL1  H24B 1988   1.111   6.731   4.388 -1.9150  2.1874 -0.3603
   27CHL1   C25 1989   1.036   6.585   4.263  0.0649 -0.7195  0.7949
   27CHL1   H25 1990   1.123   6.517   4.277  0.1071 -0.8444 -0.0505
   27CHL1   C26 1991   0.909   6.504   4.230  0.2771  0.7765 -0.5924
   27CHL1  H26A 1992   0.885   6.434   4.314  0.2840  0.1867 -1.0759
   27CHL1  H26B 1993   0.821   6.566   4.205  1.6642  2.0991 -2.2730
   27CHL1  H26C 1994   0.930   6.436   4.145 -2.4702  0.1430 -0.7902
   27CHL1   C27 1995   1.067   6.684   4.147  0.2922  0.1224 -0.0604
   27CHL1  H27A 1996   1.160   6.740   4.170 -0.2960  0.8253  0.6094
   27CHL1  H27B 1997   1.072   6.640   4.045 -1.4249  0.4400 -0.2961
   27CHL1  H27C 1998   0.984   6.756   4.132  0.0581 -0.5400 -2.0912
   28CHL1    C3 1999   0.778   1.050   5.711 -0.0740 -0.4576  0.0994
   28CHL1    H3 2000   0.670   1.024   5.713  0.2188 -1.6596  1.0073
   28CHL1    O3 2001   0.835   1.007   5.834 -0.7166  0.2373  0.2905
   28CHL1   H3' 2002   0.791   1.064   5.897 -1.3580  1.0537 -0.8790
   28CHL1    C4 2003   0.855   0.983   5.593 -0.3604 -0.0951  0.1709
   28CHL1   H4A 2004   0.963   1.009   5.594 -0.6900  1.3005  1.4077
   28CHL1   H4B 2005   0.858   0.872   5.600 -0.6300 -0.0278  1.5475
   28CHL1    C5 2006   0.797   1.027   5.461 -0.1934  0.4671 -0.2698
   28CHL1    C6 2007   0.742   0.937   5.375  0.4183 -0.1744  0.5324
   28CHL1    H6 2008   0.752   0.833   5.407  1.0943 -0.7426 -1.4980
   28CHL1    C7 2009   0.698   0.972   5.234 -0.5897  0.4291  0.0022
   28CHL1   H7A 2010   0.755   0.908   5.163 -1.1456 -1.2008  0.9982
   28CHL1   H7B 2011   0.589   0.964   5.212 -0.2272  0.2102 -1.7785
   28CHL1    C8 2012   0.747   1.118   5.200  0.8920 -0.1662  0.1307
   28CHL1    H8 2013   0.850   1.125   5.158  1.4772  0.7736  1.6641
   28CHL1   C14 2014   0.663   1.174   5.086 -0.4492  0.3365  0.5227
   28CHL1   H14 2015   0.561   1.182   5.131 -0.4046 -1.3306  0.9548
   28CHL1   C15 2016   0.644   1.092   4.958  0.0309  0.4569  0.1057
   28CHL1  H15A 2017   0.744   1.051   4.929  1.2435  1.8438  2.2396
   28CHL1  H15B 2018   0.570   1.013   4.979 -1.5728  0.9232 -3.2995
   28CHL1   C16 2019   0.589   1.190   4.849  0.4293 -0.8198  0.3522
   28CHL1  H16A 2020   0.643   1.197   4.752 -0.2238  0.2772  0.0691
   28CHL1  H16B 2021   0.488   1.155   4.819  0.1563 -0.3935  0.7592
   28CHL1   C17 2022   0.576   1.326   4.926 -0.7175  0.0165  0.6002
   28CHL1   H17 2023   0.477   1.325   4.977 -1.0987  0.9364 -0.1035
   28CHL1   C13 2024   0.686   1.314   5.038 -0.3571 -0.0085 -0.9372
   28CHL1   C18 2025   0.836   1.330   4.979 -0.2070  0.7735 -0.2791
   28CHL1  H18A 2026   0.854   1.437   4.953  0.5519  1.1359  1.6386
   28CHL1  H18B 2027   0.911   1.292   5.052  1.3739 -1.4352 -2.9620
   28CHL1  H18C 2028   0.856   1.267   4.890  1.0030  2.2332 -1.0727
   28CHL1   C12 2029   0.666   1.412   5.159  0.4923 -0.5353  0.2074
   28CHL1  H12A 2030   0.685   1.517   5.129 -0.8091 -0.7206 -1.3436
   28CHL1  H12B 2031   0.561   1.399   5.193 -0.0015 -1.3831 -1.5681
   28CHL1   C11 2032   0.760   1.366   5.273  0.0457  0.5028 -0.0365
   28CHL1  H11A 2033   0.863   1.389   5.237  0.6331 -1.5260  0.3310
   28CHL1  H11B 2034   0.737   1.427   5.363 -1.5471  0.0453 -0.1126
   28CHL1    C9 2035   0.734   1.220   5.312  0.0704  0.1236  0.2344
   28CHL1    H9 2036   0.627   1.228   5.342  0.4484 -0.7392  1.8815
   28CHL1   C10 2037   0.815   1.178   5.442 -0.8751  0.0308  0.3758
   28CHL1   C19 2038   0.963   1.219   5.414 -0.6404 -0.0434 -0.3989
   28CHL1  H19A 2039   0.993   1.167   5.320  1.9595  1.2096 -0.2985
   28CHL1  H19B 2040   0.966   1.330   5.412  0.0762 -0.0757 -1.7672
   28CHL1  H19C 2041   1.023   1.181   5.499  1.0602  3.4485  0.0278
   28CHL1    C1 2042   0.755   1.253   5.567  0.0102  0.6481 -0.2468
   28CHL1   H1A 2043   0.788   1.359   5.566 -0.3029  0.7386 -1.3297
   28CHL1   H1B 2044   0.645   1.243   5.556 -0.0620  1.6425 -0.4712
   28CHL1    C2 2045   0.801   1.196   5.704 -0.0934 -0.4505  0.4325
   28CHL1   H2A 2046   0.735   1.249   5.776  0.1096  1.7761 -0.9787
   28CHL1   H2B 2047   0.910   1.215   5.700 -0.4526  2.0678  1.7508
   28CHL1   C20 2048   0.569   1.457   4.847  1.1539  0.3033 -0.9507
   28CHL1   H20 2049   0.591   1.533   4.925  0.1889 -0.4881  0.0924
   28CHL1   C21 2050   0.419   1.479   4.803 -0.6368 -0.2358  0.3254
   28CHL1  H21A 2051   0.348   1.502   4.886 -2.4317 -0.3650 -1.1578
   28CHL1  H21B 2052   0.383   1.393   4.743  0.6565 -0.7810  0.3155
   28CHL1  H21C 2053   0.420   1.558   4.726 -0.3701  0.2773  0.8534
   28CHL1   C22 2054   0.662   1.478   4.735  0.2168  0.3271  0.5376
   28CHL1  H22A 2055   0.764   1.447   4.767  0.8289  1.0934 -0.6129
   28CHL1  H22B 2056   0.624   1.428   4.644 -1.7595  1.4114  0.7383
   28CHL1   C23 2057   0.679   1.625   4.695  0.0898 -0.1519  0.6326
   28CHL1  H23A 2058   0.585   1.684   4.701  0.9342  1.3381 -0.4987
   28CHL1  H23B 2059   0.742   1.675   4.771  0.2231  2.4739 -1.1521
   28CHL1   C24 2060   0.753   1.649   4.564 -1.3278 -0.0788 -0.1673
   28CHL1  H24A 2061   0.843   1.584   4.571 -1.8266 -0.4502  4.1339
   28CHL1  H24B 2062   0.688   1.607   4.484 -2.5363 -2.3700  1.9356
   28CHL1   C25 2063   0.804   1.792   4.535  0.5933  0.5141 -1.0249
   28CHL1   H25 2064   0.841   1.786   4.431 -1.1277  0.7620 -1.6676
   28CHL1   C26 2065   0.684   1.903   4.535 -0.2399  0.5387 -0.2279
   28CHL1  H26A 2066   0.738   2.000   4.528 -1.5657  1.3533  0.5939
   28CHL1  H26B 2067   0.607   1.888   4.456 -0.1344 -0.0318 -0.2179
   28CHL1  H26C 2068   0.641   1.914   4.637  3.0272  0.4322  1.2390
   28CHL1   C27 2069   0.904   1.833   4.641  0.3510  0.0482 -0.3555
   28CHL1  H27A 2070   0.951   1.930   4.613  2.1118 -0.4573  0.7993
   28CHL1  H27B 2071   0.855   1.842   4.740  1.9705 -0.4335  0.5036
   28CHL1  H27C 2072   0.983   1.757   4.656 -1.4941 -1.7350  0.4935
   29CHL1    C3 2073   3.593   2.936   2.244  0.5095  0.2343  0.6594
   29CHL1    H3 2074   3.566   3.040   2.216 -1.5949 -0.7033 -0.8847
   29CHL1    O3 2075   3.597   2.855   2.126 -0.0753 -0.3062  0.4687
   29CHL1   H3' 2076   3.508   2.837   2.096 -0.0898 -1.2866  1.0727
   29CHL1    C4 2077   3.732   2.949   2.311 -0.4278 -0.2757  0.5199
   29CHL1   H4A 2078   3.783   2.851   2.301 -0.3651 -0.1444 -0.4542
   29CHL1   H4B 2079   3.793   3.017   2.248  0.4697 -1.1998  0.3837
   29CHL1    C5 2080   3.738   2.994   2.454 -0.2848  0.0556  0.1550
   29CHL1    C6 2081   3.802   3.103   2.501  0.8356  0.3502 -0.0388
   29CHL1    H6 2082   3.862   3.161   2.429 -0.3310 -0.5096 -1.7520
   29CHL1    C7 2083   3.802   3.148   2.635 -0.2841 -0.1141 -0.2765
   29CHL1   H7A 2084   3.901   3.177   2.675 -0.5363  0.6411 -0.1978
   29CHL1   H7B 2085   3.745   3.243   2.639 -1.9770 -1.1062 -0.1052
   29CHL1    C8 2086   3.742   3.049   2.740  0.1679  0.0030 -0.7309
   29CHL1    H8 2087   3.823   2.975   2.758  1.1330  1.1568 -0.2798
   29CHL1   C14 2088   3.716   3.117   2.878 -0.1981  0.4775 -1.3097
   29CHL1   H14 2089   3.636   3.193   2.863  0.1604  1.4228  1.3749
   29CHL1   C15 2090   3.832   3.198   2.935  0.1082  0.3047 -0.2125
   29CHL1  H15A 2091   3.934   3.154   2.931  1.6909  3.9125 -1.4455
   29CHL1  H15B 2092   3.828   3.296   2.883 -1.2564 -0.0261 -0.7639
   29CHL1   C16 2093   3.788   3.225   3.083 -0.1294  1.0698  0.0533
   29CHL1  H16A 2094   3.859   3.172   3.150  0.8553 -1.8844 -3.1908
   29CHL1  H16B 2095   3.779   3.334   3.102 -1.7917  1.1898 -1.2994
   29CHL1   C17 2096   3.655   3.146   3.100  0.5540  0.2883 -0.3429
   29CHL1   H17 2097   3.575   3.218   3.071 -1.0068 -0.9531  0.8347
   29CHL1   C13 2098   3.664   3.035   2.990  0.3348 -0.0609 -0.1277
   29CHL1   C18 2099   3.768   2.932   3.027  0.4397  0.1456 -0.1281
   29CHL1  H18A 2100   3.726   2.884   3.118 -1.8850 -0.5150 -1.4990
   29CHL1  H18B 2101   3.781   2.848   2.955  2.2434  0.4087 -0.1350
   29CHL1  H18C 2102   3.867   2.973   3.055  0.0729 -0.3507  1.9713
   29CHL1   C12 2103   3.528   2.983   2.928 -0.3332 -0.0154 -0.1773
   29CHL1  H12A 2104   3.471   2.921   3.000 -1.8054  2.9822  1.3477
   29CHL1  H12B 2105   3.466   3.072   2.907  0.4879  0.4867 -0.5115
   29CHL1   C11 2106   3.552   2.898   2.796  0.4618  0.0926 -0.5131
   29CHL1  H11A 2107   3.607   2.805   2.823 -1.9882 -1.9234 -2.1570
   29CHL1  H11B 2108   3.447   2.875   2.766 -0.1636  0.4351  1.3497
   29CHL1    C9 2109   3.615   2.979   2.686  0.6557  1.0450 -0.0490
   29CHL1    H9 2110   3.553   3.070   2.675 -1.5936 -0.4539 -0.0056
   29CHL1   C10 2111   3.643   2.922   2.546 -0.2657 -0.5838  0.6840
   29CHL1   C19 2112   3.695   2.777   2.559  0.4099  0.1202 -0.1010
   29CHL1  H19A 2113   3.768   2.766   2.642  0.2120  1.3577  0.2401
   29CHL1  H19B 2114   3.608   2.716   2.590  1.7117 -1.8551 -0.2657
   29CHL1  H19C 2115   3.722   2.729   2.463 -0.8116 -1.3113  0.2483
   29CHL1    C1 2116   3.501   2.918   2.479  0.7048 -0.3089  0.2041
   29CHL1   H1A 2117   3.436   2.845   2.531 -1.9377  1.9750  0.1991
   29CHL1   H1B 2118   3.453   3.018   2.479 -0.2894 -0.7820  1.1939
   29CHL1    C2 2119   3.495   2.862   2.335 -0.4454 -0.1215 -0.2433
   29CHL1   H2A 2120   3.393   2.873   2.291 -1.1781 -2.1684  0.8799
   29CHL1   H2B 2121   3.523   2.755   2.335  1.8515  0.4429 -2.2601
   29CHL1   C20 2122   3.626   3.114   3.241  0.1903 -0.0636  0.2372
   29CHL1   H20 2123   3.714   3.064   3.286  0.7819  2.7799  2.4068
   29CHL1   C21 2124   3.501   3.021   3.245  0.1070 -0.0504 -0.0902
   29CHL1  H21A 2125   3.532   2.917   3.222 -0.4953 -0.4942  1.0654
   29CHL1  H21B 2126   3.415   3.059   3.186 -0.1490  0.2030  0.4332
   29CHL1  H21C 2127   3.470   3.007   3.351  1.2223 -3.4417 -0.1714
   29CHL1   C22 2128   3.607   3.241   3.332  0.1859  0.0086  0.0114
   29CHL1  H22A 2129   3.700   3.300   3.343 -0.6911  2.0208 -2.6700
   29CHL1  H22B 2130   3.526   3.308   3.293 -0.1884  0.3701  1.3659
   29CHL1   C23 2131   3.561   3.206   3.474  0.0093 -0.2565  0.2552
   29CHL1  H23A 2132   3.454   3.176   3.477 -0.4245  1.3090  0.8948
   29CHL1  H23B 2133   3.632   3.126   3.504 -0.3299 -0.1183  1.4598
   29CHL1   C24 2134   3.552   3.325   3.574 -0.6535  0.2908  0.1774
   29CHL1  H24A 2135   3.651   3.373   3.588 -0.4468 -0.0280 -0.1646
   29CHL1  H24B 2136   3.487   3.392   3.515 -0.1346 -0.5639 -1.3977
   29CHL1   C25 2137   3.481   3.309   3.708 -0.3981  0.3181 -0.0275
   29CHL1   H25 2138   3.392   3.243   3.694 -1.5703  1.8990 -0.1349
   29CHL1   C26 2139   3.572   3.217   3.798 -0.5281  0.2199 -0.0105
   29CHL1  H26A 2140   3.574   3.111   3.766  0.7107  1.0642 -2.8511
   29CHL1  H26B 2141   3.674   3.260   3.803 -0.5436  0.0810  2.3546
   29CHL1  H26C 2142   3.533   3.215   3.902 -0.1607  0.1366  0.1242
   29CHL1   C27 2143   3.440   3.444   3.768  0.2383 -0.3823  0.3253
   29CHL1  H27A 2144   3.388   3.423   3.864  0.3837  1.3555  0.8010
   29CHL1  H27B 2145   3.523   3.516   3.784 -1.8219  2.5447 -1.4935
   29CHL1  H27C 2146   3.367   3.497   3.703  1.8014  3.7513  1.7742
   30CHL1    C3 2147   4.099   4.882   2.323 -0.6052 -0.2898 -0.1608
   30CHL1    H3 2148   4.043   4.788   2.339  0.9905 -1.4650 -1.3076
   30CHL1    O3 2149   4.080   4.932   2.190 -0.5789 -0.3648 -0.3330
   30CHL1   H3' 2150   4.149   4.997   2.173  1.1617 -1.7701  1.1675
   30CHL1    C4 2151   4.072   5.001   2.418  0.2775  0.0443  0.0491
   30CHL1   H4A 2152   4.152   5.073   2.392 -1.1383  0.7486 -2.5364
   30CHL1   H4B 2153   3.981   5.062   2.398  0.4329 -0.4619 -2.3865
   30CHL1    C5 2154   4.071   4.951   2.565  0.9010  0.1742  0.2194
   30CHL1    C6 2155   3.967   4.940   2.645  0.0164 -0.2298 -0.3392
   30CHL1    H6 2156   3.869   4.984   2.624  0.2592  0.0462 -0.9036
   30CHL1    C7 2157   3.970   4.896   2.789  0.5208 -0.5988  0.3897
   30CHL1   H7A 2158   3.915   4.970   2.851  2.2285  1.2667 -0.2777
   30CHL1   H7B 2159   3.914   4.801   2.803 -1.7311  0.6513  0.2183
   30CHL1    C8 2160   4.111   4.872   2.841  0.5407 -0.2806  0.3704
   30CHL1    H8 2161   4.142   4.973   2.875 -0.3703 -0.6251  2.3173
   30CHL1   C14 2162   4.110   4.786   2.968 -0.3587  0.5464 -0.0328
   30CHL1   H14 2163   4.086   4.683   2.936  1.6998  0.1110 -0.2340
   30CHL1   C15 2164   4.008   4.810   3.086  0.4918 -0.1848  0.2024
   30CHL1  H15A 2165   4.011   4.917   3.113 -0.2134 -0.1625  0.1863
   30CHL1  H15B 2166   3.905   4.780   3.057  0.4187  0.9942 -0.8076
   30CHL1   C16 2167   4.064   4.740   3.200 -0.6791 -0.1239 -0.6702
   30CHL1  H16A 2168   4.077   4.803   3.291 -0.5729  0.3323 -1.0020
   30CHL1  H16B 2169   3.996   4.654   3.220 -2.1900  1.1848 -0.1093
   30CHL1   C17 2170   4.200   4.674   3.154 -0.6549  0.0052 -0.6245
   30CHL1   H17 2171   4.187   4.577   3.103 -2.5552 -0.8119  1.3226
   30CHL1   C13 2172   4.247   4.770   3.037 -0.3877  0.3556 -0.3822
   30CHL1   C18 2173   4.294   4.905   3.092  0.3072  0.0927 -1.0840
   30CHL1  H18A 2174   4.395   4.884   3.133 -0.8635 -0.8653  1.4109
   30CHL1  H18B 2175   4.284   4.997   3.031  2.7320  3.7862  3.7631
   30CHL1  H18C 2176   4.237   4.930   3.184 -1.0824  1.8205 -2.3836
   30CHL1   C12 2177   4.337   4.703   2.930  0.7617 -0.5587  0.1017
   30CHL1  H12A 2178   4.442   4.697   2.967  0.4137 -1.9870  0.9023
   30CHL1  H12B 2179   4.301   4.599   2.909 -4.7765  0.9137  1.5792
   30CHL1   C11 2180   4.342   4.775   2.798  0.1796 -0.6797  0.4822
   30CHL1  H11A 2181   4.399   4.868   2.818  0.3083 -0.3821 -1.1995
   30CHL1  H11B 2182   4.398   4.721   2.719 -0.3937  1.2405 -1.2784
   30CHL1    C9 2183   4.203   4.807   2.743 -0.0759 -0.4274  0.3789
   30CHL1    H9 2184   4.161   4.708   2.717 -1.0561 -0.1878  1.0368
   30CHL1   C10 2185   4.212   4.885   2.606 -0.2174  0.6459 -0.0774
   30CHL1   C19 2186   4.311   5.003   2.621  0.4941  0.9621 -0.0091
   30CHL1  H19A 2187   4.280   5.066   2.707  1.8223  1.7118 -0.0595
   30CHL1  H19B 2188   4.414   4.965   2.636 -0.2978 -2.1579 -1.9532
   30CHL1  H19C 2189   4.319   5.073   2.534  0.5902 -1.1657 -1.7441
   30CHL1    C1 2190   4.266   4.787   2.494  0.5331 -0.4891 -0.2740
   30CHL1   H1A 2191   4.373   4.760   2.507  0.7638 -0.9528 -2.7605
   30CHL1   H1B 2192   4.211   4.693   2.517 -1.5877  0.8642  0.2075
   30CHL1    C2 2193   4.248   4.831   2.353  0.3852 -0.2796  0.5835
   30CHL1   H2A 2194   4.272   4.746   2.285  0.7115  0.1493  0.1566
   30CHL1   H2B 2195   4.325   4.909   2.337  0.7954 -0.3055  2.4326
   30CHL1   C20 2196   4.296   4.653   3.277  0.4067  0.2855 -0.2409
   30CHL1   H20 2197   4.303   4.749   3.332 -0.7496  0.5205 -0.4952
   30CHL1   C21 2198   4.433   4.602   3.223 -0.2799  0.2146  0.1944
   30CHL1  H21A 2199   4.486   4.687   3.176 -2.0203  1.3090  0.1705
   30CHL1  H21B 2200   4.410   4.524   3.146 -1.4491 -1.0543  1.7930
   30CHL1  H21C 2201   4.492   4.559   3.306  0.3921  0.7981  0.0168
   30CHL1   C22 2202   4.238   4.553   3.385 -0.3071  0.5882 -0.1420
   30CHL1  H22A 2203   4.139   4.586   3.424 -0.5090  1.2070 -1.1506
   30CHL1  H22B 2204   4.219   4.456   3.333 -1.3615  0.6241  0.1638
   30CHL1   C23 2205   4.319   4.532   3.513  0.3980  0.1459 -0.1629
   30CHL1  H23A 2206   4.426   4.505   3.501  0.3960 -0.1867  0.5509
   30CHL1  H23B 2207   4.329   4.626   3.571 -0.8169 -0.0080  0.3235
   30CHL1   C24 2208   4.255   4.420   3.593 -0.4517 -0.1483 -0.5494
   30CHL1  H24A 2209   4.146   4.428   3.611 -0.8203  0.6437 -2.9370
   30CHL1  H24B 2210   4.251   4.327   3.533 -1.9424  0.2501 -1.0870
   30CHL1   C25 2211   4.334   4.381   3.720 -0.3144 -1.3874 -0.3948
   30CHL1   H25 2212   4.375   4.477   3.758 -0.3226 -2.2644  1.9298
   30CHL1   C26 2213   4.247   4.301   3.819  0.6593 -0.4837  0.9144
   30CHL1  H26A 2214   4.171   4.364   3.869  0.0710 -0.5012  0.0648
   30CHL1  H26B 2215   4.199   4.216   3.765  2.0700 -1.4409  1.1182
   30CHL1  H26C 2216   4.307   4.249   3.897  1.2175 -0.3156  0.5971
   30CHL1   C27 2217   4.456   4.299   3.675  0.4354  0.2845  0.5262
   30CHL1  H27A 2218   4.497   4.316   3.573  1.9949  0.8566  1.2285
   30CHL1  H27B 2219   4.543   4.309   3.744 -0.4117 -2.2827  2.0179
   30CHL1  H27C 2220   4.426   4.193   3.672  1.3149  0.0554 -0.7559
   31CHL1    C3 2221   3.397   4.757   2.242 -0.2953 -0.3634  0.3528
   31CHL1    H3 2222   3.357   4.654   2.231  0.1585 -0.2549 -2.5715
   31CHL1    O3 2223   3.397   4.825   2.115 -0.7906  0.1620  0.0701
   31CHL1   H3' 2224   3.434   4.912   2.133 -1.6350  0.7432 -0.9915
   31CHL1    C4 2225   3.316   4.834   2.356  0.5383 -0.4889 -0.3660
   31CHL1   H4A 2226   3.358   4.936   2.350  0.2556 -0.4632 -2.4002
   31CHL1   H4B 2227   3.213   4.833   2.313  0.3485 -0.3017  0.0842
   31CHL1    C5 2228   3.343   4.782   2.494 -0.1963 -0.0327  0.4985
   31CHL1    C6 2229   3.233   4.746   2.564 -0.4318 -0.1838 -0.6179
   31CHL1    H6 2230   3.133   4.769   2.525 -0.2233  0.2979 -0.8727
   31CHL1    C7 2231   3.249   4.696   2.709  0.5915 -0.3476  0.2535
   31CHL1   H7A 2232   3.171   4.735   2.778 -0.1570 -0.5916 -0.4521
   31CHL1   H7B 2233   3.233   4.586   2.716  0.2071 -0.3902 -1.1164
   31CHL1    C8 2234   3.398   4.702   2.759 -0.2687  0.3938 -0.3095
   31CHL1    H8 2235   3.411   4.811   2.776  0.2822  0.3840 -0.6365
   31CHL1   C14 2236   3.414   4.629   2.889 -0.4680  0.3000  0.0506
   31CHL1   H14 2237   3.385   4.523   2.873 -0.5047  0.5482 -1.6669
   31CHL1   C15 2238   3.321   4.670   3.006 -0.7433 -0.1527 -0.1420
   31CHL1  H15A 2239   3.289   4.771   2.975 -1.7397 -0.7373 -1.0203
   31CHL1  H15B 2240   3.224   4.617   3.013 -1.9322  1.9105 -0.6639
   31CHL1   C16 2241   3.402   4.639   3.133  0.2396  0.8697 -0.2447
   31CHL1  H16A 2242   3.425   4.740   3.173 -0.0752  1.5740 -1.8119
   31CHL1  H16B 2243   3.345   4.576   3.204 -0.6026 -1.2583 -2.7331
   31CHL1   C17 2244   3.533   4.574   3.077 -0.2333  0.1512  0.1266
   31CHL1   H17 2245   3.502   4.470   3.054  0.0119  0.4662 -1.7039
   31CHL1   C13 2246   3.553   4.633   2.943 -0.4183  0.0179 -0.8531
   31CHL1   C18 2247   3.598   4.781   2.953  0.5891  0.2844  0.0043
   31CHL1  H18A 2248   3.529   4.845   3.013  0.1174 -0.0371 -0.1946
   31CHL1  H18B 2249   3.691   4.781   3.014  0.8055 -1.0221 -0.2993
   31CHL1  H18C 2250   3.614   4.820   2.851  1.9247  1.1641  0.5422
   31CHL1   C12 2251   3.652   4.563   2.843 -0.5138  0.1218  0.0024
   31CHL1  H12A 2252   3.750   4.579   2.893  0.1585  1.2537 -1.6192
   31CHL1  H12B 2253   3.631   4.454   2.847 -0.3079  0.0795 -0.0764
   31CHL1   C11 2254   3.631   4.620   2.690 -0.4599 -0.7131 -0.6241
   31CHL1  H11A 2255   3.689   4.713   2.708  1.1578 -1.9716  0.8871
   31CHL1  H11B 2256   3.688   4.557   2.619  2.0289  1.9139 -1.0653
   31CHL1    C9 2257   3.490   4.656   2.645  0.1913 -0.4959 -0.9891
   31CHL1    H9 2258   3.443   4.563   2.606  0.2909 -1.4264  1.0465
   31CHL1   C10 2259   3.488   4.760   2.529 -0.9052  0.0919 -0.2226
   31CHL1   C19 2260   3.555   4.895   2.566 -0.3761  0.4040 -0.4637
   31CHL1  H19A 2261   3.529   4.979   2.498  1.6194 -0.4320 -2.3137
   31CHL1  H19B 2262   3.530   4.922   2.671  1.1769 -0.0746  0.0321
   31CHL1  H19C 2263   3.662   4.869   2.559 -0.5737 -0.8574  0.8562
   31CHL1    C1 2264   3.562   4.684   2.417  0.2945  0.2894 -0.8714
   31CHL1   H1A 2265   3.672   4.683   2.431 -0.0072 -0.0199  1.5913
   31CHL1   H1B 2266   3.526   4.581   2.399  0.5310  0.1913 -0.7708
   31CHL1    C2 2267   3.547   4.750   2.283  0.4273  0.1632 -0.3382
   31CHL1   H2A 2268   3.598   4.697   2.200 -1.8785 -0.0834 -1.6429
   31CHL1   H2B 2269   3.596   4.849   2.297  1.0762 -0.3531  1.1849
   31CHL1   C20 2270   3.655   4.564   3.173  0.5800 -0.0352 -0.6513
   31CHL1   H20 2271   3.720   4.654   3.163 -0.0406  1.0289  3.5770
   31CHL1   C21 2272   3.743   4.439   3.137 -0.4981 -0.1902 -0.0754
   31CHL1  H21A 2273   3.681   4.347   3.126 -0.5708 -0.0132 -1.2631
   31CHL1  H21B 2274   3.813   4.426   3.222  1.6791  1.7903 -1.5255
   31CHL1  H21C 2275   3.809   4.450   3.049 -1.8169  0.9344 -0.9425
   31CHL1   C22 2276   3.613   4.570   3.326 -0.6763  0.4949  0.3414
   31CHL1  H22A 2277   3.559   4.667   3.340 -1.1762  0.5303 -1.6042
   31CHL1  H22B 2278   3.546   4.484   3.347  1.2591 -0.5431  2.4108
   31CHL1   C23 2279   3.731   4.560   3.423  0.2290 -0.0482  0.3059
   31CHL1  H23A 2280   3.759   4.453   3.433  2.7448  0.2416 -2.8207
   31CHL1  H23B 2281   3.814   4.623   3.385 -0.2162  1.3182  1.5455
   31CHL1   C24 2282   3.698   4.606   3.573 -0.7668 -0.1198  0.4047
   31CHL1  H24A 2283   3.688   4.715   3.559  0.4463 -0.0504  0.0566
   31CHL1  H24B 2284   3.599   4.564   3.604 -1.1430  0.3189 -0.1856
   31CHL1   C25 2285   3.802   4.572   3.676 -0.1336  0.0716  0.5522
   31CHL1   H25 2286   3.905   4.598   3.643 -0.4676 -1.0935 -1.5271
   31CHL1   C26 2287   3.782   4.636   3.815  1.4004 -0.1930 -0.3883
   31CHL1  H26A 2288   3.690   4.600   3.864  1.8461 -0.0892  0.5242
   31CHL1  H26B 2289   3.863   4.600   3.882  0.7534  2.4351  1.8502
   31CHL1  H26C 2290   3.793   4.746   3.809  1.0852 -0.2313 -1.8760
   31CHL1   C27 2291   3.814   4.418   3.697 -0.3172  0.5292  0.2604
   31CHL1  H27A 2292   3.848   4.373   3.602 -3.5174 -0.1711 -0.6114
   31CHL1  H27B 2293   3.886   4.395   3.779  0.9803  0.2551 -0.9288
   31CHL1  H27C 2294   3.720   4.364   3.720 -0.4418  0.4964 -0.3310
   32CHL1    C3 2295   3.098   2.367   2.371 -0.7161 -0.6451 -0.6702
   32CHL1    H3 2296   3.000   2.316   2.380 -1.4223  0.7449 -0.2518
   32CHL1    O3 2297   3.136   2.359   2.237  0.3168  0.3207  0.6318
   32CHL1   H3' 2298   3.225   2.393   2.228  1.6301 -2.7587  1.4069
   32CHL1    C4 2299   3.072   2.521   2.388  0.3925  0.7010  0.3105
   32CHL1   H4A 2300   3.165   2.580   2.371  0.8110  0.1733  0.7851
   32CHL1   H4B 2301   2.991   2.541   2.314  1.4773  0.8668 -0.8628
   32CHL1    C5 2302   3.052   2.567   2.534 -1.0179  0.5696  0.3445
   32CHL1    C6 2303   2.946   2.634   2.570  0.1954 -0.1696  0.1443
   32CHL1    H6 2304   2.874   2.669   2.495 -0.0271 -2.2527 -0.6454
   32CHL1    C7 2305   2.927   2.687   2.707 -0.1517  0.4981 -0.7013
   32CHL1   H7A 2306   2.929   2.798   2.704 -0.1316  0.4735 -2.0710
   32CHL1   H7B 2307   2.822   2.664   2.736 -0.5057  2.2088 -0.6064
   32CHL1    C8 2308   3.021   2.640   2.819 -0.1724 -0.4258  0.7623
   32CHL1    H8 2309   3.107   2.711   2.814 -0.2570 -0.5089 -2.9725
   32CHL1   C14 2310   2.959   2.645   2.955 -0.1594  0.0930 -0.3776
   32CHL1   H14 2311   2.883   2.563   2.959 -0.2494  0.2349  1.3590
   32CHL1   C15 2312   2.880   2.770   3.002 -0.0871 -0.1564  0.0717
   32CHL1  H15A 2313   2.944   2.860   2.984  0.6453 -0.6989 -0.0711
   32CHL1  H15B 2314   2.785   2.780   2.945  0.6577 -0.5585 -1.2645
   32CHL1   C16 2315   2.872   2.745   3.155 -0.3259 -0.0122 -0.0854
   32CHL1  H16A 2316   2.912   2.838   3.202 -0.4362  0.4342 -0.8623
   32CHL1  H16B 2317   2.772   2.725   3.198 -0.0259  1.3288  1.2943
   32CHL1   C17 2318   2.970   2.627   3.192  0.3681  0.4499  0.6133
   32CHL1   H17 2319   2.910   2.534   3.186 -1.6292  1.5937  2.1062
   32CHL1   C13 2320   3.059   2.614   3.067 -0.2634  0.5074  0.2844
   32CHL1   C18 2321   3.176   2.723   3.065  0.6431 -0.0969 -0.1999
   32CHL1  H18A 2322   3.240   2.727   2.975 -1.0176  2.3876 -1.3173
   32CHL1  H18B 2323   3.130   2.823   3.083 -0.3207 -0.3458 -1.2207
   32CHL1  H18C 2324   3.250   2.701   3.145  1.0664  1.4243 -0.1545
   32CHL1   C12 2325   3.121   2.477   3.035 -0.2117  0.4806 -0.7469
   32CHL1  H12A 2326   3.212   2.472   3.099 -0.7784  2.3165  0.2448
   32CHL1  H12B 2327   3.050   2.398   3.068  1.1688 -0.4565  0.0504
   32CHL1   C11 2328   3.172   2.455   2.891 -0.5940 -0.1648 -1.2297
   32CHL1  H11A 2329   3.268   2.510   2.883 -1.8660  1.9277 -2.3596
   32CHL1  H11B 2330   3.205   2.351   2.868 -0.9386 -0.7691  0.8649
   32CHL1    C9 2331   3.081   2.511   2.782 -0.3827  0.2885 -0.4625
   32CHL1    H9 2332   2.996   2.441   2.795 -0.9759  1.3799  1.8057
   32CHL1   C10 2333   3.142   2.501   2.641 -1.0982  0.4776  0.2287
   32CHL1   C19 2334   3.274   2.584   2.635 -0.2364 -0.2824 -0.3395
   32CHL1  H19A 2335   3.305   2.613   2.532  0.7630  0.2729  0.1055
   32CHL1  H19B 2336   3.250   2.678   2.688 -0.9333  0.5435 -2.0672
   32CHL1  H19C 2337   3.356   2.519   2.673  0.5726  0.2612 -1.1175
   32CHL1    C1 2338   3.173   2.346   2.611 -0.2411  0.0842 -0.4705
   32CHL1   H1A 2339   3.267   2.316   2.663  0.4606 -0.9422 -2.2715
   32CHL1   H1B 2340   3.087   2.279   2.633  0.4498 -0.7252 -0.2149
   32CHL1    C2 2341   3.205   2.322   2.461  0.6501  0.8668  0.6614
   32CHL1   H2A 2342   3.218   2.211   2.460 -2.6793  0.4338  1.0289
   32CHL1   H2B 2343   3.300   2.374   2.435 -0.1013  0.9050 -2.0891
   32CHL1   C20 2344   3.025   2.638   3.333  0.2404  0.9610  0.2333
   32CHL1   H20 2345   3.093   2.726   3.341  1.3883 -0.0435  1.9162
   32CHL1   C21 2346   3.106   2.510   3.369 -0.1613 -0.3023 -0.3873
   32CHL1  H21A 2347   3.047   2.417   3.354 -0.1753 -0.6532  1.6625
   32CHL1  H21B 2348   3.135   2.508   3.477  0.0344 -3.1247 -0.4478
   32CHL1  H21C 2349   3.197   2.514   3.305  0.7309  1.4343  0.9480
   32CHL1   C22 2350   2.919   2.654   3.439  0.1743 -1.0941 -0.0214
   32CHL1  H22A 2351   2.868   2.749   3.414 -0.8318 -1.5574  0.2460
   32CHL1  H22B 2352   2.836   2.580   3.441 -0.2575 -0.6730 -2.0699
   32CHL1   C23 2353   2.961   2.676   3.586  0.1506 -0.0897  0.1310
   32CHL1  H23A 2354   3.012   2.583   3.620 -2.2302 -1.1081  1.0329
   32CHL1  H23B 2355   3.030   2.762   3.601 -1.4580  1.0468  1.0633
   32CHL1   C24 2356   2.842   2.686   3.676 -0.3804 -0.3874  0.6221
   32CHL1  H24A 2357   2.801   2.787   3.658 -0.7036 -0.7238 -0.5634
   32CHL1  H24B 2358   2.762   2.613   3.650  0.1674 -0.8518  0.2246
   32CHL1   C25 2359   2.877   2.661   3.826 -0.6487 -0.6170 -0.3668
   32CHL1   H25 2360   2.983   2.689   3.844 -0.1626 -1.4887 -1.8080
   32CHL1   C26 2361   2.791   2.748   3.926 -0.7669 -0.0781  0.0352
   32CHL1  H26A 2362   2.824   2.710   4.025  0.9399 -1.2662 -0.9601
   32CHL1  H26B 2363   2.797   2.857   3.908 -0.3952  0.0026  0.6493
   32CHL1  H26C 2364   2.685   2.719   3.914 -0.6825 -1.2820  2.0745
   32CHL1   C27 2365   2.855   2.518   3.868 -0.0227 -0.6126 -0.7144
   32CHL1  H27A 2366   2.916   2.439   3.819 -1.9279 -2.5101 -0.1070
   32CHL1  H27B 2367   2.886   2.501   3.973 -0.3827 -3.4433 -1.0378
   32CHL1  H27C 2368   2.747   2.489   3.867 -0.2433 -0.0726  2.3772
   33CHL1    C3 2369   2.076   3.019   2.283 -0.2092 -0.0933  0.6436
   33CHL1    H3 2370   2.120   2.916   2.286  1.0450  0.4477  1.2675
   33CHL1    O3 2371   2.064   3.065   2.150  0.0477 -0.2938 -0.6861
   33CHL1   H3' 2372   2.009   2.998   2.110 -1.6347 -1.0234  2.6564
   33CHL1    C4 2373   1.938   3.033   2.350  0.8251 -0.0129 -0.0261
   33CHL1   H4A 2374   1.891   3.130   2.325 -0.4278 -0.7246 -0.4695
   33CHL1   H4B 2375   1.870   2.955   2.311  0.3509  0.2413  0.2861
   33CHL1    C5 2376   1.943   3.016   2.503 -0.0224 -0.8394 -0.3324
   33CHL1    C6 2377   1.870   2.918   2.566  0.1905 -0.5198 -0.4046
   33CHL1    H6 2378   1.810   2.849   2.506  0.0149 -1.9155  1.3278
   33CHL1    C7 2379   1.852   2.909   2.712  0.0350 -0.2810 -0.5061
   33CHL1   H7A 2380   1.745   2.893   2.737 -0.6105  1.5954 -1.9862
   33CHL1   H7B 2381   1.909   2.824   2.755  1.0176  0.9523  0.6865
   33CHL1    C8 2382   1.912   3.037   2.783  0.0109  0.3201 -0.6735
   33CHL1    H8 2383   1.832   3.114   2.786  0.0530  0.3187  1.6175
   33CHL1   C14 2384   1.935   3.001   2.929  0.2241  0.6134 -0.0176
   33CHL1   H14 2385   1.998   2.910   2.940 -1.2779 -0.2730  1.5760
   33CHL1   C15 2386   1.810   2.958   3.022 -0.4448  0.0093  0.3173
   33CHL1  H15A 2387   1.728   3.030   3.003 -0.9578 -0.2303  1.5692
   33CHL1  H15B 2388   1.787   2.854   2.990 -0.0579  0.2365 -0.7077
   33CHL1   C16 2389   1.856   2.982   3.172  0.1770  0.3745  0.1917
   33CHL1  H16A 2390   1.779   3.034   3.233  2.1629 -0.8410  3.8922
   33CHL1  H16B 2391   1.876   2.885   3.223 -0.6975  0.2988  0.3911
   33CHL1   C17 2392   1.995   3.051   3.162 -0.7264  0.1898 -0.1072
   33CHL1   H17 2393   2.074   2.974   3.155 -0.4287  0.3330  1.5821
   33CHL1   C13 2394   1.995   3.113   3.018  0.4654  0.7397 -0.3916
   33CHL1   C18 2395   1.906   3.238   3.027 -0.8871 -0.3318  0.2250
   33CHL1  H18A 2396   1.955   3.322   3.082  0.0498 -1.3288  0.9601
   33CHL1  H18B 2397   1.892   3.275   2.924  1.8130  0.9610  0.2884
   33CHL1  H18C 2398   1.808   3.214   3.073 -0.4853  0.0994  1.3293
   33CHL1   C12 2399   2.138   3.142   2.954 -0.2029 -0.1857  0.4410
   33CHL1  H12A 2400   2.199   3.222   2.999 -1.1688  0.8098  0.0135
   33CHL1  H12B 2401   2.200   3.051   2.965  0.1235  0.2276  2.0858
   33CHL1   C11 2402   2.130   3.183   2.805  0.4185  0.6594  0.5675
   33CHL1  H11A 2403   2.095   3.288   2.801 -1.7532 -0.1180 -3.4496
   33CHL1  H11B 2404   2.233   3.175   2.762  0.6356 -1.0437  1.3640
   33CHL1    C9 2405   2.044   3.081   2.720  0.0959 -0.4718 -0.7400
   33CHL1    H9 2406   2.112   2.993   2.717  1.6090  0.6921 -1.5360
   33CHL1   C10 2407   2.033   3.116   2.571 -0.2568 -0.2385  0.3606
   33CHL1   C19 2408   1.967   3.253   2.567  0.2417  0.1211  1.1070
   33CHL1  H19A 2409   2.021   3.330   2.626 -1.9067  2.1669  0.4479
   33CHL1  H19B 2410   1.956   3.288   2.462  1.6980 -0.3158  0.7921
   33CHL1  H19C 2411   1.863   3.240   2.604  0.0229 -2.3366 -0.2494
   33CHL1    C1 2412   2.172   3.104   2.503  0.1130 -0.1825 -0.5584
   33CHL1   H1A 2413   2.230   3.191   2.541 -1.1846  0.6188 -0.3577
   33CHL1   H1B 2414   2.222   3.014   2.543 -0.3796 -0.1803  0.0811
   33CHL1    C2 2415   2.171   3.117   2.350 -0.5994  0.4523  0.4454
   33CHL1   H2A 2416   2.275   3.100   2.314 -0.3441 -1.6457  2.0891
   33CHL1   H2B 2417   2.132   3.218   2.327 -1.2171  0.0487 -0.3115
   33CHL1   C20 2418   2.016   3.139   3.288  0.2052 -0.1460  0.6144
   33CHL1   H20 2419   1.931   3.210   3.300 -0.0787 -0.1246 -1.4431
   33CHL1   C21 2420   2.140   3.228   3.273  0.2093  0.1925  0.1370
   33CHL1  H21A 2421   2.228   3.167   3.247 -0.4841 -1.1992  1.0371
   33CHL1  H21B 2422   2.160   3.286   3.366 -1.2290  1.6883 -0.4562
   33CHL1  H21C 2423   2.122   3.301   3.190 -2.3374 -1.9020 -1.2418
   33CHL1   C22 2424   2.025   3.057   3.409 -0.5739  0.8192 -0.3765
   33CHL1  H22A 2425   1.944   2.983   3.421 -0.3639  0.5562 -0.5994
   33CHL1  H22B 2426   2.109   2.986   3.393 -2.0243 -0.9020 -0.4510
   33CHL1   C23 2427   2.058   3.127   3.545  0.0605 -0.5038 -0.7369
   33CHL1  H23A 2428   2.093   3.048   3.615  0.4785 -0.0344 -0.4095
   33CHL1  H23B 2429   2.149   3.191   3.536 -0.0463 -0.4791 -1.7000
   33CHL1   C24 2430   1.949   3.206   3.596  0.7461 -0.8228 -0.5477
   33CHL1  H24A 2431   1.934   3.304   3.546 -1.5884 -0.4184  0.8620
   33CHL1  H24B 2432   1.853   3.151   3.600 -0.1126  0.6752  0.0291
   33CHL1   C25 2433   1.976   3.251   3.742  0.1702  0.2268 -0.1120
   33CHL1   H25 2434   2.014   3.164   3.800 -0.9389  0.9987  1.8314
   33CHL1   C26 2435   2.099   3.352   3.743 -0.0993 -0.4271  0.5775
   33CHL1  H26A 2436   2.178   3.335   3.667 -1.0891 -0.7668 -0.3889
   33CHL1  H26B 2437   2.056   3.445   3.699 -2.3915  0.0615  3.6397
   33CHL1  H26C 2438   2.132   3.374   3.847 -1.2504 -1.1949  1.1151
   33CHL1   C27 2439   1.850   3.318   3.812  0.9403  0.2749  0.6248
   33CHL1  H27A 2440   1.785   3.231   3.835  2.3875 -0.9347  0.2259
   33CHL1  H27B 2441   1.860   3.367   3.911  1.3468  1.2439  0.1057
   33CHL1  H27C 2442   1.793   3.380   3.740  0.0602  0.7297  1.6860
   34CHL1    C3 2443   4.782   5.064   2.243 -0.5259  0.5093 -0.3091
   34CHL1    H3 2444   4.882   5.021   2.261 -0.9783 -1.8025 -3.0107
   34CHL1    O3 2445   4.758   5.049   2.106  0.1617  0.6309 -0.4355
   34CHL1   H3' 2446   4.707   4.968   2.110  1.0666  0.1279  1.7722
   34CHL1    C4 2447   4.665   4.990   2.317  0.5403  0.4973 -0.9226
   34CHL1   H4A 2448   4.567   5.020   2.275 -0.4816  0.1338  1.1397
   34CHL1   H4B 2449   4.680   4.883   2.292 -0.2388  0.0998  0.3032
   34CHL1    C5 2450   4.674   5.013   2.466  0.6156 -0.0821  0.3416
   34CHL1    C6 2451   4.666   4.911   2.550  1.0681 -0.1077 -0.3326
   34CHL1    H6 2452   4.622   4.817   2.513 -1.5767  0.7375  0.5728
   34CHL1    C7 2453   4.676   4.918   2.700  0.4512  0.1586 -0.0606
   34CHL1   H7A 2454   4.609   4.849   2.756  1.6448 -1.7971 -0.9923
   34CHL1   H7B 2455   4.779   4.880   2.717  0.2163  0.3466  1.8070
   34CHL1    C8 2456   4.665   5.070   2.751  0.5349 -0.1653  0.4516
   34CHL1    H8 2457   4.560   5.105   2.742  1.4940  2.5215 -0.7144
   34CHL1   C14 2458   4.719   5.068   2.891 -0.5314 -0.1077 -0.3755
   34CHL1   H14 2459   4.820   5.022   2.888 -1.6749 -2.6527 -2.4251
   34CHL1   C15 2460   4.632   4.987   2.994 -0.3216  0.2026  0.4959
   34CHL1  H15A 2461   4.525   5.015   2.982 -0.2365  0.4592  0.3393
   34CHL1  H15B 2462   4.645   4.877   2.995  1.1919  0.3676  0.4593
   34CHL1   C16 2463   4.671   5.039   3.139 -0.0111  0.1993 -0.1712
   34CHL1  H16A 2464   4.581   5.074   3.194 -1.1216 -0.4151 -1.5614
   34CHL1  H16B 2465   4.712   4.955   3.199  1.1288 -0.2873 -1.5933
   34CHL1   C17 2466   4.764   5.167   3.100 -0.1044 -0.1163  0.1018
   34CHL1   H17 2467   4.865   5.122   3.091 -0.9612 -2.7849  2.7178
   34CHL1   C13 2468   4.727   5.203   2.954  0.2950  0.0613 -0.4856
   34CHL1   C18 2469   4.594   5.279   2.960 -0.5866 -0.1891  0.2465
   34CHL1  H18A 2470   4.517   5.231   3.024 -0.8435  1.9651  1.6025
   34CHL1  H18B 2471   4.600   5.382   2.999 -1.1195  0.2543 -0.8140
   34CHL1  H18C 2472   4.548   5.284   2.858 -0.2595 -0.1866  0.0998
   34CHL1   C12 2473   4.819   5.285   2.876 -0.1475 -0.1701 -0.4533
   34CHL1  H12A 2474   4.828   5.382   2.930  3.0745 -1.0781  0.7847
   34CHL1  H12B 2475   4.920   5.241   2.891 -0.5863 -1.8096 -2.1798
   34CHL1   C11 2476   4.781   5.296   2.725 -0.2672  0.0577 -0.0064
   34CHL1  H11A 2477   4.688   5.357   2.722  0.1379  0.6880  0.1381
   34CHL1  H11B 2478   4.852   5.353   2.662 -0.0568 -0.0986  0.0905
   34CHL1    C9 2479   4.757   5.155   2.666  0.2442 -0.5153 -0.2067
   34CHL1    H9 2480   4.857   5.107   2.667 -0.1098 -1.2493 -0.2487
   34CHL1   C10 2481   4.716   5.152   2.520  0.0019  0.7864  0.2888
   34CHL1   C19 2482   4.593   5.249   2.499 -1.0874 -0.0531  0.3312
   34CHL1  H19A 2483   4.574   5.255   2.389 -0.6826  1.2852  0.3264
   34CHL1  H19B 2484   4.504   5.217   2.557 -2.1743 -1.9982 -2.2754
   34CHL1  H19C 2485   4.627   5.350   2.527 -0.9349 -0.2578  0.8904
   34CHL1    C1 2486   4.821   5.212   2.429  0.1488  0.0890 -0.0678
   34CHL1   H1A 2487   4.837   5.320   2.452 -1.8400  0.1483  1.1374
   34CHL1   H1B 2488   4.915   5.156   2.447 -0.1473 -0.0617  1.0429
   34CHL1    C2 2489   4.792   5.214   2.277 -0.3622 -0.4005 -0.7159
   34CHL1   H2A 2490   4.880   5.254   2.223 -1.7577  1.1269 -1.9264
   34CHL1   H2B 2491   4.710   5.276   2.234  1.0341  2.3572  0.4813
   34CHL1   C20 2492   4.771   5.271   3.211  0.0121 -0.0400 -0.9239
   34CHL1   H20 2493   4.788   5.368   3.160  0.7319  1.1566  1.5440
   34CHL1   C21 2494   4.902   5.247   3.288  0.3519 -0.0756 -0.2211
   34CHL1  H21A 2495   4.916   5.332   3.359 -0.9861  0.7308 -0.9022
   34CHL1  H21B 2496   4.990   5.246   3.221  2.4276 -1.3161  2.4116
   34CHL1  H21C 2497   4.894   5.146   3.334 -4.5511  0.1210 -0.3946
   34CHL1   C22 2498   4.643   5.290   3.300  0.5913  0.3265  0.4324
   34CHL1  H22A 2499   4.553   5.295   3.236  2.2380  1.0825 -1.8814
   34CHL1  H22B 2500   4.635   5.206   3.372 -1.0924  0.6051  0.5944
   34CHL1   C23 2501   4.644   5.411   3.392  0.0316 -0.4108  0.5566
   34CHL1  H23A 2502   4.734   5.409   3.457 -1.5283 -1.2246  2.7720
   34CHL1  H23B 2503   4.655   5.505   3.334  4.4279 -1.2998 -0.2397
   34CHL1   C24 2504   4.516   5.413   3.479  0.0860 -0.4637 -0.3361
   34CHL1  H24A 2505   4.439   5.443   3.404  0.1501  0.7701  0.0764
   34CHL1  H24B 2506   4.495   5.308   3.508  2.9334 -0.8486  0.5331
   34CHL1   C25 2507   4.537   5.494   3.607  0.2402  0.5255 -0.3657
   34CHL1   H25 2508   4.579   5.591   3.571 -0.1012  1.3073  1.2853
   34CHL1   C26 2509   4.394   5.518   3.664 -0.7491  0.4991 -0.7572
   34CHL1  H26A 2510   4.401   5.569   3.762 -1.6453  0.2088 -0.5365
   34CHL1  H26B 2511   4.331   5.574   3.592 -0.9371 -0.1994 -1.1382
   34CHL1  H26C 2512   4.350   5.420   3.694  1.3020  0.3888  2.0888
   34CHL1   C27 2513   4.626   5.420   3.708 -0.0438  0.2829  0.0533
   34CHL1  H27A 2514   4.577   5.321   3.723  0.8849  0.0215  1.4605
   34CHL1  H27B 2515   4.726   5.401   3.663 -0.1309 -0.2988  0.1046
   34CHL1  H27C 2516   4.638   5.467   3.808 -2.4430 -0.8536  0.9229
   35CHL1    C3 2517   2.458   4.694   2.279  0.0391  0.0448  0.8583
   35CHL1    H3 2518   2.455   4.805   2.270 -0.1295  0.1080  1.7284
   35CHL1    O3 2519   2.457   4.651   2.142 -0.0364  0.3483  0.4671
   35CHL1   H3' 2520   2.444   4.556   2.150 -2.5691  0.5216 -1.0191
   35CHL1    C4 2521   2.590   4.656   2.351  0.0041 -0.0752  0.6791
   35CHL1   H4A 2522   2.591   4.546   2.344  0.7162 -0.1627  1.9011
   35CHL1   H4B 2523   2.669   4.695   2.283 -0.1890 -2.8223 -1.1872
   35CHL1    C5 2524   2.597   4.708   2.487 -0.1721 -0.1855  0.2736
   35CHL1    C6 2525   2.701   4.773   2.538 -0.5242  0.2149  0.1912
   35CHL1    H6 2526   2.797   4.771   2.484 -1.7146 -0.0199 -1.9862
   35CHL1    C7 2527   2.712   4.819   2.681  0.0951 -0.9783 -0.4158
   35CHL1   H7A 2528   2.821   4.819   2.705  0.3528  1.2970 -1.4356
   35CHL1   H7B 2529   2.677   4.924   2.685 -0.5222 -1.2180  0.8091
   35CHL1    C8 2530   2.618   4.737   2.772  0.2625 -0.8477 -0.0947
   35CHL1    H8 2531   2.657   4.633   2.774 -1.7583 -1.6000  0.5980
   35CHL1   C14 2532   2.618   4.801   2.909 -0.0151 -0.7251 -0.3006
   35CHL1   H14 2533   2.573   4.900   2.887  1.5906 -0.3581 -2.2022
   35CHL1   C15 2534   2.752   4.819   2.973  0.3100  0.0202  0.1844
   35CHL1  H15A 2535   2.800   4.719   2.961 -2.9455 -1.2905 -2.9764
   35CHL1  H15B 2536   2.819   4.901   2.941  1.1855 -0.3422  1.0677
   35CHL1   C16 2537   2.727   4.839   3.121  0.0950 -0.2573 -0.3851
   35CHL1  H16A 2538   2.778   4.763   3.185 -0.7955  0.5230  1.2657
   35CHL1  H16B 2539   2.770   4.934   3.159  0.7833 -0.4979 -0.5422
   35CHL1   C17 2540   2.565   4.828   3.132 -0.1322 -0.1508 -0.2294
   35CHL1   H17 2541   2.512   4.924   3.112  0.2941  0.1423  0.0308
   35CHL1   C13 2542   2.529   4.735   3.017  0.2032 -0.0559 -0.8843
   35CHL1   C18 2543   2.577   4.588   3.038 -0.5482 -0.1254 -1.1352
   35CHL1  H18A 2544   2.510   4.531   3.105 -0.2001  1.4028  0.5486
   35CHL1  H18B 2545   2.587   4.529   2.944 -2.1551 -2.2141 -0.0349
   35CHL1  H18C 2546   2.676   4.586   3.088 -0.5549  1.5384 -1.0389
   35CHL1   C12 2547   2.387   4.745   2.964 -0.2477  0.7111  0.5044
   35CHL1  H12A 2548   2.307   4.695   3.024 -1.2097  1.1761 -0.3650
   35CHL1  H12B 2549   2.351   4.850   2.967 -0.6174  0.6443 -1.1219
   35CHL1   C11 2550   2.368   4.693   2.814 -0.2960  0.2921  0.4665
   35CHL1  H11A 2551   2.386   4.584   2.824 -0.7244  0.2562  0.8651
   35CHL1  H11B 2552   2.268   4.721   2.776 -0.2625  0.0305  0.1841
   35CHL1    C9 2553   2.471   4.737   2.709 -0.3619 -0.0923 -0.2914
   35CHL1    H9 2554   2.446   4.843   2.686 -0.4871 -0.1849 -0.5817
   35CHL1   C10 2555   2.474   4.668   2.574 -0.5219 -0.4534 -0.9657
   35CHL1   C19 2556   2.471   4.513   2.601  0.4137  0.7106  0.3790
   35CHL1  H19A 2557   2.548   4.494   2.679  1.3094 -1.5943 -1.0136
   35CHL1  H19B 2558   2.373   4.479   2.643  0.2105  2.0370  1.0117
   35CHL1  H19C 2559   2.499   4.457   2.509  0.4508  0.3502  0.6047
   35CHL1    C1 2560   2.345   4.707   2.498 -0.7884 -0.5702  0.1412
   35CHL1   H1A 2561   2.261   4.664   2.557 -1.7814 -0.6163 -1.2727
   35CHL1   H1B 2562   2.334   4.817   2.500 -1.3942 -0.6579  1.7022
   35CHL1    C2 2563   2.334   4.651   2.356 -0.2031 -0.1324  0.0745
   35CHL1   H2A 2564   2.246   4.690   2.301  1.2010  1.2492 -1.2622
   35CHL1   H2B 2565   2.341   4.541   2.345 -1.4916 -0.0404 -2.0020
   35CHL1   C20 2566   2.519   4.781   3.268 -0.4224 -0.8919  0.0102
   35CHL1   H20 2567   2.583   4.692   3.280  0.9230  0.0473 -0.1076
   35CHL1   C21 2568   2.372   4.725   3.287 -0.2483  0.3588  0.1079
   35CHL1  H21A 2569   2.343   4.692   3.389  0.2099 -0.4766 -0.0294
   35CHL1  H21B 2570   2.357   4.641   3.216 -2.8805  2.4453 -1.9163
   35CHL1  H21C 2571   2.298   4.801   3.252 -0.8521  0.1029  0.8262
   35CHL1   C22 2572   2.549   4.890   3.378 -0.4062  0.4007  0.4354
   35CHL1  H22A 2573   2.595   4.981   3.333 -0.1616  0.4570  0.7985
   35CHL1  H22B 2574   2.449   4.916   3.420 -1.8185 -0.2439 -2.3968
   35CHL1   C23 2575   2.657   4.851   3.478  0.2483 -0.0874  0.3392
   35CHL1  H23A 2576   2.643   4.756   3.536  2.5448 -0.8740 -0.3675
   35CHL1  H23B 2577   2.749   4.833   3.419  0.9083 -1.0265  1.6371
   35CHL1   C24 2578   2.692   4.962   3.567 -0.1001 -0.5959 -0.0109
   35CHL1  H24A 2579   2.745   5.043   3.512  1.1818 -1.3397  0.0964
   35CHL1  H24B 2580   2.605   5.008   3.618  1.0703  0.3498  1.1528
   35CHL1   C25 2581   2.790   4.930   3.684  0.7095 -0.9745 -0.4795
   35CHL1   H25 2582   2.737   4.875   3.765  0.1120  2.2433  1.3815
   35CHL1   C26 2583   2.915   4.859   3.629  0.1795 -0.2994  0.1037
   35CHL1  H26A 2584   2.980   4.817   3.708 -2.2933 -1.9221  1.3312
   35CHL1  H26B 2585   2.879   4.770   3.573 -0.2695  0.5595 -1.0100
   35CHL1  H26C 2586   2.977   4.916   3.556  0.0255 -1.5716 -1.0513
   35CHL1   C27 2587   2.831   5.062   3.760 -0.4689  0.2899 -0.0640
   35CHL1  H27A 2588   2.871   5.136   3.688 -0.6086  0.5612  0.1381
   35CHL1  H27B 2589   2.751   5.112   3.819 -0.6710 -1.0953  0.8484
   35CHL1  H27C 2590   2.913   5.032   3.828 -0.3384 -0.0751 -0.3816
   36CHL1    C3 2591   2.635   1.816   2.213  0.2937 -0.3230 -0.3215
   36CHL1    H3 2592   2.587   1.915   2.201  2.9923  0.9633 -0.9315
   36CHL1    O3 2593   2.625   1.742   2.092 -0.4912  0.0660  0.1667
   36CHL1   H3' 2594   2.592   1.654   2.112  0.9617 -0.8712 -1.4183
   36CHL1    C4 2595   2.788   1.821   2.258  0.2560  0.3463 -0.0826
   36CHL1   H4A 2596   2.836   1.722   2.238 -0.3641  0.0287 -0.0110
   36CHL1   H4B 2597   2.838   1.893   2.188 -0.9662  0.9041 -0.3888
   36CHL1    C5 2598   2.815   1.859   2.396 -0.4008  0.7797  0.0932
   36CHL1    C6 2599   2.904   1.953   2.426 -0.2578 -0.5867 -0.1932
   36CHL1    H6 2600   2.961   2.021   2.361 -0.4397 -0.5888 -0.3558
   36CHL1    C7 2601   2.927   2.000   2.561 -0.2564 -0.6959 -0.1914
   36CHL1   H7A 2602   3.035   2.024   2.565 -0.2991 -0.5498  0.0678
   36CHL1   H7B 2603   2.880   2.101   2.569  1.9426  0.1946  1.9165
   36CHL1    C8 2604   2.890   1.907   2.664 -0.0405  0.2641 -0.1567
   36CHL1    H8 2605   2.965   1.826   2.674  0.5125  0.8677  0.7052
   36CHL1   C14 2606   2.901   1.968   2.800 -0.1757 -0.2806 -0.6992
   36CHL1   H14 2607   2.816   2.040   2.793 -1.5495 -1.7640  0.4348
   36CHL1   C15 2608   3.025   2.048   2.832 -0.2636 -0.3628 -0.1303
   36CHL1  H15A 2609   3.124   1.997   2.826  0.6763  1.4672 -0.4411
   36CHL1  H15B 2610   3.026   2.146   2.780  0.2518 -0.8638 -1.0645
   36CHL1   C16 2611   3.001   2.077   2.986 -0.0935  0.8169 -0.2496
   36CHL1  H16A 2612   3.095   2.045   3.035 -0.9592 -2.9540 -0.9340
   36CHL1  H16B 2613   2.991   2.182   3.021 -2.7540 -0.5222  3.1807
   36CHL1   C17 2614   2.877   1.990   3.033  0.2345  0.1165  0.3611
   36CHL1   H17 2615   2.785   2.052   3.033 -0.2377 -0.5307 -1.7778
   36CHL1   C13 2616   2.863   1.881   2.924 -0.3558  0.4495 -0.2484
   36CHL1   C18 2617   2.967   1.770   2.947 -0.0763  0.1540  1.0734
   36CHL1  H18A 2618   2.950   1.700   3.031  0.4627 -0.5325  0.6178
   36CHL1  H18B 2619   2.983   1.718   2.850 -3.0824  0.0181  0.5969
   36CHL1  H18C 2620   3.062   1.824   2.967  0.2906  0.5752 -1.6414
   36CHL1   C12 2621   2.722   1.818   2.904 -0.4628 -0.3045  0.2618
   36CHL1  H12A 2622   2.692   1.750   2.986  0.7769 -0.2542  0.7730
   36CHL1  H12B 2623   2.645   1.898   2.909  0.0213  0.1038  1.5008
   36CHL1   C11 2624   2.720   1.749   2.765 -0.0962 -0.4618  0.1054
   36CHL1  H11A 2625   2.793   1.666   2.769  0.2416 -0.2264 -1.0581
   36CHL1  H11B 2626   2.621   1.699   2.752  0.1787 -0.8749 -0.3970
   36CHL1    C9 2627   2.750   1.849   2.644  0.1843  0.0892 -0.4742
   36CHL1    H9 2628   2.677   1.932   2.656  0.5764  0.1561  1.7114
   36CHL1   C10 2629   2.728   1.786   2.503 -0.1020  0.6110  0.0611
   36CHL1   C19 2630   2.767   1.631   2.508 -0.5387  0.3301  0.1142
   36CHL1  H19A 2631   2.694   1.570   2.565 -1.0032  0.3977 -0.4035
   36CHL1  H19B 2632   2.781   1.590   2.405 -0.4823  1.7356 -0.4575
   36CHL1  H19C 2633   2.868   1.630   2.555 -0.6301  2.8614  0.4192
   36CHL1    C1 2634   2.579   1.804   2.463 -0.5510  0.3715 -0.9997
   36CHL1   H1A 2635   2.505   1.760   2.533 -0.6242 -0.8759 -1.8529
   36CHL1   H1B 2636   2.549   1.911   2.461  0.6558  0.7765  1.2309
   36CHL1    C2 2637   2.549   1.747   2.318  0.1582 -0.0849  0.5487
   36CHL1   H2A 2638   2.442   1.751   2.289  0.5146  0.9643 -0.6458
   36CHL1   H2B 2639   2.594   1.645   2.318  0.4917  0.0611  1.7342
   36CHL1   C20 2640   2.892   1.941   3.177 -0.7316 -0.1314 -0.3465
   36CHL1   H20 2641   2.988   1.886   3.180 -0.9849 -0.5787 -0.3760
   36CHL1   C21 2642   2.775   1.847   3.214  0.1715  0.8538  0.5834
   36CHL1  H21A 2643   2.789   1.832   3.323 -1.5510 -1.4559  0.5145
   36CHL1  H21B 2644   2.791   1.742   3.183  1.6006  1.3336 -0.3434
   36CHL1  H21C 2645   2.672   1.876   3.181 -0.4872 -0.5411  1.3810
   36CHL1   C22 2646   2.903   2.053   3.266  0.3931  0.0182 -0.0726
   36CHL1  H22A 2647   2.976   2.124   3.222  2.6738 -1.2727  1.5292
   36CHL1  H22B 2648   2.808   2.110   3.278  0.9140  0.6902  0.9109
   36CHL1   C23 2649   2.949   2.034   3.412 -0.2398 -0.6442  0.1693
   36CHL1  H23A 2650   2.867   1.990   3.472  1.0317 -0.4964  2.0356
   36CHL1  H23B 2651   3.040   1.970   3.410  0.2825  0.0973 -0.4429
   36CHL1   C24 2652   2.982   2.169   3.481 -0.1325 -0.4182 -0.3200
   36CHL1  H24A 2653   3.074   2.209   3.434  0.2676 -0.5372  0.3462
   36CHL1  H24B 2654   2.913   2.252   3.455 -0.1958 -0.0161  1.0613
   36CHL1   C25 2655   3.014   2.175   3.633 -1.2028  0.0279 -0.3086
   36CHL1   H25 2656   2.929   2.170   3.704 -0.7342  3.1167  0.5637
   36CHL1   C26 2657   3.117   2.061   3.669 -1.1219  0.5457 -0.4741
   36CHL1  H26A 2658   3.084   1.960   3.637 -1.2828  0.6187 -0.5391
   36CHL1  H26B 2659   3.216   2.078   3.622 -0.5185  0.2731  0.6962
   36CHL1  H26C 2660   3.136   2.060   3.778 -0.8076  1.4513 -0.5093
   36CHL1   C27 2661   3.084   2.315   3.658 -0.9727  0.1014  0.3668
   36CHL1  H27A 2662   3.029   2.406   3.627  1.0455  1.4583  0.6870
   36CHL1  H27B 2663   3.114   2.320   3.765  0.7502 -1.9496  0.0221
   36CHL1  H27C 2664   3.185   2.309   3.612 -0.8012 -3.2566  1.0535
   37CHL1    C3 2665   5.549   4.509   2.160  0.3337  0.0940 -0.4242
   37CHL1    H3 2666   5.537   4.618   2.179 -2.0767 -0.5515  1.9470
   37CHL1    O3 2667   5.543   4.493   2.019 -0.6865  0.4085  0.3141
   37CHL1   H3' 2668   5.609   4.551   1.981 -2.2613  1.7872 -0.3661
   37CHL1    C4 2669   5.681   4.458   2.220 -0.3995 -0.0084  0.1529
   37CHL1   H4A 2670   5.678   4.350   2.193 -0.5423  0.2591 -0.9310
   37CHL1   H4B 2671   5.765   4.510   2.169 -1.3710 -0.6023 -2.1555
   37CHL1    C5 2672   5.677   4.471   2.377 -0.2200 -0.8709 -1.0849
   37CHL1    C6 2673   5.771   4.544   2.444  0.6250 -0.0148  0.2749
   37CHL1    H6 2674   5.858   4.585   2.390  0.8739  0.0267  0.7043
   37CHL1    C7 2675   5.781   4.548   2.594  0.0149 -0.2183  0.4441
   37CHL1   H7A 2676   5.883   4.533   2.635  0.0160  0.3809  0.6697
   37CHL1   H7B 2677   5.760   4.649   2.635 -1.5794  0.2928 -1.5821
   37CHL1    C8 2678   5.686   4.447   2.663 -0.5994  0.0300 -0.1911
   37CHL1    H8 2679   5.736   4.348   2.660 -0.6176 -0.0307  1.2761
   37CHL1   C14 2680   5.662   4.486   2.810  0.5830  0.0307 -0.1410
   37CHL1   H14 2681   5.613   4.585   2.805  0.1308 -0.2809 -2.9475
   37CHL1   C15 2682   5.789   4.505   2.895 -0.3981 -0.5998 -0.4627
   37CHL1  H15A 2683   5.856   4.420   2.867  2.5939  1.3477  0.5014
   37CHL1  H15B 2684   5.840   4.595   2.856 -0.3873 -1.2264 -1.9352
   37CHL1   C16 2685   5.734   4.488   3.039  0.2664 -0.8340  0.2707
   37CHL1  H16A 2686   5.793   4.411   3.093 -0.5351 -1.2429  0.5673
   37CHL1  H16B 2687   5.741   4.587   3.088 -2.1730 -0.7018  0.3972
   37CHL1   C17 2688   5.583   4.449   3.028 -0.2262  0.2464  0.2854
   37CHL1   H17 2689   5.524   4.543   3.029 -1.1937 -0.3507  1.7673
   37CHL1   C13 2690   5.572   4.391   2.889 -0.5655 -0.7111 -0.4116
   37CHL1   C18 2691   5.620   4.244   2.893 -0.5927  0.0382  0.2719
   37CHL1  H18A 2692   5.724   4.233   2.928 -0.0089 -2.6005 -2.0948
   37CHL1  H18B 2693   5.559   4.183   2.962 -1.9832  2.2451  1.0728
   37CHL1  H18C 2694   5.607   4.196   2.793 -1.6512  1.3582 -0.2537
   37CHL1   C12 2695   5.431   4.406   2.825 -0.4629 -0.3117 -0.1784
   37CHL1  H12A 2696   5.355   4.339   2.871 -0.5611 -2.2170 -3.0077
   37CHL1  H12B 2697   5.405   4.514   2.836 -2.4261 -0.5565 -2.0591
   37CHL1   C11 2698   5.436   4.371   2.679  0.2535 -0.5176 -0.0327
   37CHL1  H11A 2699   5.449   4.262   2.666 -0.2941 -0.7781  1.5972
   37CHL1  H11B 2700   5.339   4.385   2.625  1.9722 -2.6757 -3.9019
   37CHL1    C9 2701   5.545   4.446   2.598  0.0786 -0.7970  0.3203
   37CHL1    H9 2702   5.509   4.551   2.586 -0.3697 -0.8250  1.3898
   37CHL1   C10 2703   5.562   4.404   2.446  0.0258  0.5844 -0.2897
   37CHL1   C19 2704   5.590   4.252   2.443 -1.2322  0.5617  0.3470
   37CHL1  H19A 2705   5.678   4.221   2.504 -0.1904 -0.6431 -1.6902
   37CHL1  H19B 2706   5.494   4.202   2.466 -1.1280 -0.0148 -0.4061
   37CHL1  H19C 2707   5.630   4.213   2.346  0.8085 -1.8137  2.0927
   37CHL1    C1 2708   5.431   4.432   2.371 -0.5258  0.3054  0.1843
   37CHL1   H1A 2709   5.351   4.363   2.405  0.5094 -1.2515 -0.5222
   37CHL1   H1B 2710   5.404   4.536   2.401 -1.8737  0.4837 -1.6161
   37CHL1    C2 2711   5.434   4.426   2.222 -0.3474 -0.5001  1.0970
   37CHL1   H2A 2712   5.344   4.472   2.176 -0.0009 -1.5133 -0.6528
   37CHL1   H2B 2713   5.438   4.321   2.186  0.4089  0.0345 -0.4630
   37CHL1   C20 2714   5.538   4.374   3.149 -0.8803  0.0360 -0.4845
   37CHL1   H20 2715   5.576   4.270   3.144 -0.1643  0.2800 -0.1554
   37CHL1   C21 2716   5.384   4.362   3.144  0.4981  0.8888 -0.0775
   37CHL1  H21A 2717   5.334   4.455   3.109  0.0338  0.3119 -0.9799
   37CHL1  H21B 2718   5.348   4.326   3.242 -0.2895  0.8975 -0.3615
   37CHL1  H21C 2719   5.351   4.278   3.080 -0.8974  1.2358  0.1509
   37CHL1   C22 2720   5.574   4.446   3.281 -0.1250 -0.2220  0.5054
   37CHL1  H22A 2721   5.545   4.379   3.365 -0.3301  0.3459  0.8882
   37CHL1  H22B 2722   5.684   4.459   3.289 -0.0509 -0.9730  0.7705
   37CHL1   C23 2723   5.504   4.576   3.310  0.0716 -0.1403 -0.8106
   37CHL1  H23A 2724   5.530   4.662   3.245 -4.0500  0.1740 -2.2088
   37CHL1  H23B 2725   5.396   4.564   3.284 -0.0252 -0.8232 -0.1076
   37CHL1   C24 2726   5.515   4.619   3.456 -0.0630 -0.5579 -0.0513
   37CHL1  H24A 2727   5.495   4.729   3.455 -1.1822 -0.7226  2.0851
   37CHL1  H24B 2728   5.435   4.576   3.519  0.3462  0.0951  0.9218
   37CHL1   C25 2729   5.651   4.605   3.524 -0.1193  0.0117  0.3127
   37CHL1   H25 2730   5.687   4.501   3.536  2.0627  0.7248  0.2678
   37CHL1   C26 2731   5.759   4.690   3.457  0.0155  0.0845  0.2625
   37CHL1  H26A 2732   5.853   4.691   3.516  0.7349  1.4731 -0.8742
   37CHL1  H26B 2733   5.776   4.670   3.350 -2.2394  1.8261 -0.4710
   37CHL1  H26C 2734   5.723   4.795   3.461 -3.3211 -1.0102  0.5339
   37CHL1   C27 2735   5.636   4.658   3.665 -0.4062 -0.5963  0.2746
   37CHL1  H27A 2736   5.608   4.765   3.672  2.2625  0.3170 -1.9768
   37CHL1  H27B 2737   5.557   4.596   3.711 -0.9417 -0.4396 -0.4296
   37CHL1  H27C 2738   5.724   4.644   3.732  0.0656 -0.9496 -0.4115
   38CHL1    C3 2739   2.852   5.315   2.416  0.3755  0.2118  0.4745
   38CHL1    H3 2740   2.778   5.376   2.472  1.1386  0.9281  0.7029
   38CHL1    O3 2741   2.827   5.329   2.277  0.4891  0.0815 -0.1744
   38CHL1   H3' 2742   2.841   5.243   2.237 -0.4332 -0.0030 -0.3326
   38CHL1    C4 2743   2.995   5.360   2.439  0.4306  0.3888  0.2685
   38CHL1   H4A 2744   3.071   5.317   2.370  0.4699  1.5014 -0.4016
   38CHL1   H4B 2745   3.002   5.470   2.423 -1.4174  0.3475 -0.9019
   38CHL1    C5 2746   3.031   5.335   2.585 -0.3216  0.4573 -0.3387
   38CHL1    C6 2747   3.052   5.439   2.668  0.4657 -0.7350 -0.2686
   38CHL1    H6 2748   3.047   5.543   2.632 -1.9499 -1.5413 -2.4923
   38CHL1    C7 2749   3.108   5.425   2.807  0.9256  0.1640 -0.8351
   38CHL1   H7A 2750   3.199   5.489   2.811 -1.2089  3.3698 -2.3002
   38CHL1   H7B 2751   3.043   5.474   2.882  1.0529 -0.5896 -0.2188
   38CHL1    C8 2752   3.146   5.276   2.846 -1.1362 -0.4198  0.9208
   38CHL1    H8 2753   3.244   5.250   2.802 -0.0561  1.1503  2.3528
   38CHL1   C14 2754   3.144   5.255   3.000  0.1421  0.0184 -0.1699
   38CHL1   H14 2755   3.041   5.280   3.031  0.4470  0.4720  0.4594
   38CHL1   C15 2756   3.228   5.343   3.091 -0.1476 -0.5052 -0.6421
   38CHL1  H15A 2757   3.328   5.356   3.045 -0.1511 -1.2266 -0.8534
   38CHL1  H15B 2758   3.178   5.438   3.119  0.2557 -0.4039 -0.2722
   38CHL1   C16 2759   3.247   5.256   3.216  0.4752 -0.6903 -0.0129
   38CHL1  H16A 2760   3.354   5.245   3.243  0.8294  1.3810 -0.5538
   38CHL1  H16B 2761   3.217   5.323   3.299 -0.5041 -0.3639 -0.6183
   38CHL1   C17 2762   3.168   5.127   3.195  0.4146 -0.4457  0.3739
   38CHL1   H17 2763   3.061   5.149   3.216  0.2697 -0.0909 -0.7091
   38CHL1   C13 2764   3.170   5.107   3.040  0.0767  0.9402 -0.2840
   38CHL1   C18 2765   3.317   5.066   2.999 -0.8323  0.1976 -0.7192
   38CHL1  H18A 2766   3.322   5.085   2.889  0.0616 -4.6623 -1.6313
   38CHL1  H18B 2767   3.396   5.126   3.049  0.4472 -1.0913 -1.1761
   38CHL1  H18C 2768   3.332   4.958   3.019 -0.6347  0.2420 -0.6282
   38CHL1   C12 2769   3.068   5.011   2.980  0.2367  0.1829 -0.7178
   38CHL1  H12A 2770   3.078   4.901   2.996 -0.0577 -0.4256 -4.3135
   38CHL1  H12B 2771   2.969   5.043   3.018  0.8511  1.0914  0.1460
   38CHL1   C11 2772   3.060   5.029   2.826 -0.3172 -0.3400  0.3260
   38CHL1  H11A 2773   3.153   4.978   2.796  0.7868  1.8559 -0.0857
   38CHL1  H11B 2774   2.977   4.968   2.784 -0.7617 -1.4056  2.6448
   38CHL1    C9 2775   3.043   5.181   2.784  0.2527 -0.6075  0.1574
   38CHL1    H9 2776   2.951   5.213   2.836 -0.1396 -0.0799 -0.8476
   38CHL1   C10 2777   3.029   5.191   2.624 -0.3249  0.2571 -0.2801
   38CHL1   C19 2778   3.146   5.122   2.559  1.4415  0.2354 -0.5749
   38CHL1  H19A 2779   3.246   5.146   2.601  1.2198 -1.1403  0.7969
   38CHL1  H19B 2780   3.134   5.013   2.574  0.0188  0.6573  1.6735
   38CHL1  H19C 2781   3.145   5.134   2.449 -0.2747 -1.6876 -0.8022
   38CHL1    C1 2782   2.891   5.127   2.579  0.2003 -0.7972 -0.4012
   38CHL1   H1A 2783   2.882   5.017   2.593 -0.4127 -0.8989 -1.5130
   38CHL1   H1B 2784   2.811   5.163   2.646  2.9499 -0.9053  3.0990
   38CHL1    C2 2785   2.844   5.157   2.439  0.0418  0.0070  0.3160
   38CHL1   H2A 2786   2.738   5.126   2.428  0.4289 -1.2319  0.0222
   38CHL1   H2B 2787   2.917   5.110   2.369  0.6899  1.1358  0.2146
   38CHL1   C20 2788   3.219   5.014   3.289 -0.0346 -0.3760 -0.1192
   38CHL1   H20 2789   3.329   5.002   3.275  0.0734  0.5517 -0.1076
   38CHL1   C21 2790   3.143   4.881   3.261  0.8495 -0.2391  0.1997
   38CHL1  H21A 2791   3.151   4.853   3.154  0.0644  0.5672 -0.0768
   38CHL1  H21B 2792   3.038   4.898   3.294  1.0236  4.5317 -1.2442
   38CHL1  H21C 2793   3.181   4.797   3.322  1.3729 -1.1076 -1.2907
   38CHL1   C22 2794   3.214   5.050   3.437 -0.1162  0.2448 -0.7382
   38CHL1  H22A 2795   3.265   5.146   3.457 -3.2971  2.1435 -1.3451
   38CHL1  H22B 2796   3.112   5.063   3.481  0.2447  0.5091  0.0304
   38CHL1   C23 2797   3.299   4.948   3.527  0.2657 -0.0102  0.1599
   38CHL1  H23A 2798   3.236   4.857   3.523 -0.5027  0.4868  0.8142
   38CHL1  H23B 2799   3.393   4.930   3.470  1.3077  3.2027  0.7860
   38CHL1   C24 2800   3.310   4.990   3.671 -0.1925 -0.2061 -0.0147
   38CHL1  H24A 2801   3.392   5.064   3.682 -0.0240 -0.4388  0.3146
   38CHL1  H24B 2802   3.209   5.032   3.689 -1.1489 -1.0573 -3.0986
   38CHL1   C25 2803   3.341   4.871   3.767 -0.4540  0.1712 -0.6681
   38CHL1   H25 2804   3.263   4.793   3.763  0.0316 -0.2539 -3.3572
   38CHL1   C26 2805   3.478   4.814   3.726 -0.5111  0.6285  0.0149
   38CHL1  H26A 2806   3.511   4.738   3.799  0.4252 -0.2870 -1.3266
   38CHL1  H26B 2807   3.461   4.774   3.623  1.4165  0.8868 -0.4315
   38CHL1  H26C 2808   3.565   4.884   3.720  1.2240 -1.3708  1.3022
   38CHL1   C27 2809   3.352   4.917   3.918 -0.2206 -0.6244  0.0178
   38CHL1  H27A 2810   3.281   4.998   3.947  0.4723  0.0927 -0.2457
   38CHL1  H27B 2811   3.336   4.828   3.982  1.5522 -0.1158  1.2231
   38CHL1  H27C 2812   3.459   4.948   3.926 -0.4476 -0.4233  2.7305
   39CHL1    C3 2813   4.472   5.787   2.360  0.2259  0.1445 -0.0906
   39CHL1    H3 2814   4.583   5.781   2.365  0.2648  1.1879  0.2770
   39CHL1    O3 2815   4.438   5.771   2.220 -0.1424 -0.1700  0.2165
   39CHL1   H3' 2816   4.468   5.681   2.202  1.3474  0.5136 -0.7426
   39CHL1    C4 2817   4.421   5.668   2.450 -0.6529  0.0220  0.5100
   39CHL1   H4A 2818   4.312   5.667   2.428 -1.0785 -1.1975  2.5522
   39CHL1   H4B 2819   4.470   5.576   2.410  0.3902  0.3818  0.9457
   39CHL1    C5 2820   4.436   5.684   2.598  0.3421  0.2593  0.5663
   39CHL1    C6 2821   4.483   5.585   2.678  0.1697  0.2185 -0.6959
   39CHL1    H6 2822   4.512   5.492   2.627  0.5793 -0.2080  0.3056
   39CHL1    C7 2823   4.488   5.601   2.832  0.7519  0.4806  0.2274
   39CHL1   H7A 2824   4.464   5.500   2.871  0.7822 -0.0249 -1.0273
   39CHL1   H7B 2825   4.593   5.611   2.867  1.4806  2.2800 -2.3243
   39CHL1    C8 2826   4.406   5.710   2.892  0.5208  0.3494  0.2755
   39CHL1    H8 2827   4.302   5.675   2.879 -0.2591  1.5626  2.9608
   39CHL1   C14 2828   4.441   5.741   3.038  0.3073  0.4264  0.2510
   39CHL1   H14 2829   4.547   5.774   3.026  0.7554 -0.6134  1.3071
   39CHL1   C15 2830   4.446   5.619   3.141  0.0681 -0.1418 -0.5721
   39CHL1  H15A 2831   4.356   5.554   3.134 -1.4825  2.0011 -1.2588
   39CHL1  H15B 2832   4.544   5.569   3.126 -0.9832 -2.2621 -0.6419
   39CHL1   C16 2833   4.437   5.701   3.282  0.9156  0.0700 -0.1082
   39CHL1  H16A 2834   4.344   5.674   3.335  1.7173 -2.1148  0.2403
   39CHL1  H16B 2835   4.527   5.667   3.338  0.7683 -1.3076 -0.6939
   39CHL1   C17 2836   4.424   5.854   3.238  1.2054  1.1113 -0.0996
   39CHL1   H17 2837   4.531   5.882   3.232  1.9783 -1.9014 -1.2181
   39CHL1   C13 2838   4.367   5.852   3.093 -0.0666 -0.1848 -0.5276
   39CHL1   C18 2839   4.219   5.812   3.086 -0.1177  0.4701 -0.1767
   39CHL1  H18A 2840   4.207   5.712   3.133  2.6237  0.8233  1.3781
   39CHL1  H18B 2841   4.154   5.888   3.135  0.2215  1.5486 -1.3758
   39CHL1  H18C 2842   4.189   5.810   2.979 -1.0393  2.6835  0.0049
   39CHL1   C12 2843   4.396   5.985   3.021 -0.5327 -0.0081 -0.2744
   39CHL1  H12A 2844   4.337   6.070   3.061  0.3633  1.2519 -1.5742
   39CHL1  H12B 2845   4.505   6.007   3.029 -0.4903  0.3744 -1.7807
   39CHL1   C11 2846   4.359   5.969   2.871 -0.5860 -1.0532  0.1150
   39CHL1  H11A 2847   4.250   5.978   2.857 -0.4868  2.0890  0.9805
   39CHL1  H11B 2848   4.403   6.060   2.824  0.9353 -0.8595  1.8423
   39CHL1    C9 2849   4.418   5.843   2.804 -0.4164 -0.1675  0.0759
   39CHL1    H9 2850   4.528   5.858   2.808 -0.8367  3.5061 -0.6256
   39CHL1   C10 2851   4.387   5.821   2.653 -0.2142  0.4187 -0.7629
   39CHL1   C19 2852   4.235   5.826   2.636  0.4727 -0.4545  0.3197
   39CHL1  H19A 2853   4.195   5.809   2.533 -1.6215  2.2553  0.6385
   39CHL1  H19B 2854   4.182   5.750   2.697  1.8244 -0.6596  1.2661
   39CHL1  H19C 2855   4.202   5.930   2.655 -1.1724 -1.1155  1.2068
   39CHL1    C1 2856   4.459   5.931   2.573  0.0077 -0.4250 -0.1017
   39CHL1   H1A 2857   4.426   6.032   2.608 -0.5931 -0.8115  0.4571
   39CHL1   H1B 2858   4.568   5.925   2.597 -0.3373 -0.5917  1.5137
   39CHL1    C2 2859   4.443   5.928   2.421  0.3832  0.0197 -0.5247
   39CHL1   H2A 2860   4.497   6.010   2.368 -0.5352  0.7800 -0.2937
   39CHL1   H2B 2861   4.339   5.962   2.403  0.0145 -0.3867  0.8517
   39CHL1   C20 2862   4.351   5.942   3.342 -0.4282  0.0522 -0.1721
   39CHL1   H20 2863   4.322   6.033   3.285  0.6901 -0.0850 -0.9681
   39CHL1   C21 2864   4.445   5.980   3.453  0.1395 -0.5592  0.0503
   39CHL1  H21A 2865   4.476   5.896   3.519 -0.1105  1.2079  2.4779
   39CHL1  H21B 2866   4.398   6.056   3.519 -2.4207 -1.3158 -0.8210
   39CHL1  H21C 2867   4.535   6.037   3.422  0.0204 -0.7484 -0.6576
   39CHL1   C22 2868   4.220   5.883   3.402  0.0608  0.3679 -0.1237
   39CHL1  H22A 2869   4.162   5.818   3.334  0.4591 -1.6662  1.4258
   39CHL1  H22B 2870   4.248   5.811   3.482 -0.0370  0.7982  0.3019
   39CHL1   C23 2871   4.127   5.989   3.472 -0.3462  0.4226 -0.3040
   39CHL1  H23A 2872   4.177   6.035   3.560  0.1927 -1.0114  0.1534
   39CHL1  H23B 2873   4.120   6.074   3.401  0.7630 -0.3335 -1.3464
   39CHL1   C24 2874   3.993   5.921   3.518 -1.3848 -0.0716  0.4184
   39CHL1  H24A 2875   3.950   5.855   3.440 -1.2847  1.1653 -0.6938
   39CHL1  H24B 2876   4.018   5.862   3.609  1.3048 -0.5694 -0.5839
   39CHL1   C25 2877   3.880   6.021   3.555  0.3259 -0.2085 -0.2944
   39CHL1   H25 2878   3.872   6.094   3.471 -0.9493 -0.5944 -0.5198
   39CHL1   C26 2879   3.739   5.970   3.571 -0.2852  0.0528  0.1246
   39CHL1  H26A 2880   3.707   5.933   3.472  3.2939  1.7834 -1.7465
   39CHL1  H26B 2881   3.734   5.895   3.653  1.8395  1.1902  1.3344
   39CHL1  H26C 2882   3.674   6.057   3.594 -0.7228 -0.1662 -0.2593
   39CHL1   C27 2883   3.903   6.096   3.689 -0.1185  0.0597 -0.3555
   39CHL1  H27A 2884   3.823   6.173   3.688  0.0480  0.2348 -0.0349
   39CHL1  H27B 2885   3.887   6.025   3.773  0.9279  1.6260  1.1728
   39CHL1  H27C 2886   4.002   6.146   3.696  0.5790 -1.3525  0.1332
   40CHL1    C3 2887   5.781   2.527   2.373 -0.0302 -0.9612 -0.0139
   40CHL1    H3 2888   5.875   2.534   2.431 -0.3342  0.8725  0.2950
   40CHL1    O3 2889   5.798   2.540   2.230 -0.1288 -0.0201  0.5181
   40CHL1   H3' 2890   5.875   2.484   2.220  0.9322  1.7610 -1.5444
   40CHL1    C4 2891   5.733   2.383   2.409  0.3874  0.2378 -0.4919
   40CHL1   H4A 2892   5.648   2.361   2.342 -0.1295  0.8337 -0.0366
   40CHL1   H4B 2893   5.809   2.310   2.375 -0.3596 -1.3410  1.1730
   40CHL1    C5 2894   5.687   2.367   2.554  0.2761  0.1075 -0.3262
   40CHL1    C6 2895   5.728   2.258   2.628  0.7563  0.0638 -0.7370
   40CHL1    H6 2896   5.786   2.170   2.594  0.0327 -0.1553 -1.4109
   40CHL1    C7 2897   5.683   2.243   2.771  0.0852 -0.1167 -0.1504
   40CHL1   H7A 2898   5.635   2.143   2.781  0.3693 -0.7261 -4.1606
   40CHL1   H7B 2899   5.769   2.267   2.838 -0.8796 -0.0406  1.0729
   40CHL1    C8 2900   5.572   2.339   2.824  0.0517  0.2458  0.5174
   40CHL1    H8 2901   5.478   2.296   2.784  1.2226 -1.9457  0.0587
   40CHL1   C14 2902   5.578   2.344   2.973 -0.0942  0.5208 -0.3496
   40CHL1   H14 2903   5.671   2.399   2.998  2.6180 -2.5272 -3.2051
   40CHL1   C15 2904   5.585   2.207   3.043 -0.3440  0.1940  0.4879
   40CHL1  H15A 2905   5.519   2.137   2.987  2.2087  0.4195 -2.9034
   40CHL1  H15B 2906   5.688   2.166   3.042  0.1492  1.3879 -2.6220
   40CHL1   C16 2907   5.544   2.252   3.183  0.0291  0.5586  0.1573
   40CHL1  H16A 2908   5.458   2.194   3.222 -2.3213  2.6298 -1.7167
   40CHL1  H16B 2909   5.639   2.243   3.239 -1.3038  1.8964  2.7070
   40CHL1   C17 2910   5.502   2.399   3.179 -0.7253 -0.8808 -0.9454
   40CHL1   H17 2911   5.585   2.473   3.190  1.7790 -3.7619  0.1217
   40CHL1   C13 2912   5.464   2.422   3.033 -0.0381 -0.2302  0.2769
   40CHL1   C18 2913   5.323   2.356   2.999  0.6058 -0.5113 -0.7286
   40CHL1  H18A 2914   5.316   2.320   2.894 -3.6319 -2.7581  0.2240
   40CHL1  H18B 2915   5.313   2.271   3.070  0.9072 -1.2445 -1.5664
   40CHL1  H18C 2916   5.246   2.433   3.019 -0.2403 -1.5082 -0.1055
   40CHL1   C12 2917   5.468   2.565   2.972 -0.1538 -0.3775  0.2329
   40CHL1  H12A 2918   5.382   2.617   3.019  0.2173 -2.2871  3.1502
   40CHL1  H12B 2919   5.567   2.603   3.005 -0.6335  2.3948 -1.3871
   40CHL1   C11 2920   5.467   2.565   2.821 -0.0952  0.0265  0.8347
   40CHL1  H11A 2921   5.370   2.522   2.786  1.7025 -4.4037  0.8760
   40CHL1  H11B 2922   5.478   2.672   2.794 -0.5197  0.1859  1.2761
   40CHL1    C9 2923   5.576   2.479   2.762  0.4896  0.6453  0.2012
   40CHL1    H9 2924   5.677   2.517   2.789  0.2181  0.6391  1.2447
   40CHL1   C10 2925   5.586   2.470   2.605 -0.3613 -0.1068  0.3092
   40CHL1   C19 2926   5.451   2.450   2.530 -0.0874  0.3682 -0.3335
   40CHL1  H19A 2927   5.455   2.437   2.419  0.7513 -2.9720  0.0243
   40CHL1  H19B 2928   5.419   2.348   2.560  2.2404  0.3833  2.3334
   40CHL1  H19C 2929   5.366   2.516   2.556  0.4458  0.7745  0.3963
   40CHL1    C1 2930   5.642   2.617   2.560 -0.3691  0.0182 -0.2941
   40CHL1   H1A 2931   5.562   2.689   2.587 -1.0747 -0.3659 -1.3172
   40CHL1   H1B 2932   5.730   2.637   2.623 -0.9417  2.6100 -0.2578
   40CHL1    C2 2933   5.684   2.637   2.418 -0.1677  0.3168  0.6490
   40CHL1   H2A 2934   5.732   2.736   2.404  0.3022 -0.0306 -0.2453
   40CHL1   H2B 2935   5.591   2.652   2.359  0.0755 -0.8470 -0.0608
   40CHL1   C20 2936   5.397   2.434   3.295 -0.0088  0.1809  0.6015
   40CHL1   H20 2937   5.303   2.379   3.272  0.3973 -0.3046  0.1130
   40CHL1   C21 2938   5.375   2.582   3.299  0.1369  0.6383  0.1081
   40CHL1  H21A 2939   5.473   2.634   3.303  1.0642 -1.0253 -0.6904
   40CHL1  H21B 2940   5.309   2.614   3.383 -0.2249 -0.1849  0.1377
   40CHL1  H21C 2941   5.323   2.621   3.208 -1.7070  2.4301  1.8572
   40CHL1   C22 2942   5.454   2.396   3.436  0.4648  0.0040  0.8271
   40CHL1  H22A 2943   5.480   2.288   3.443  0.0962 -0.0447  1.4682
   40CHL1  H22B 2944   5.545   2.459   3.448 -1.0416  2.3123  0.3790
   40CHL1   C23 2945   5.349   2.425   3.542 -0.3776 -0.1411 -0.0046
   40CHL1  H23A 2946   5.322   2.532   3.553  1.8905  0.3133  1.4949
   40CHL1  H23B 2947   5.252   2.372   3.533 -0.5058 -0.0656  0.8787
   40CHL1   C24 2948   5.400   2.391   3.684 -0.1570  0.0673  0.1932
   40CHL1  H24A 2949   5.463   2.300   3.687 -1.7650 -1.0708  0.4829
   40CHL1  H24B 2950   5.470   2.472   3.712 -0.0726 -0.3812  1.3022
   40CHL1   C25 2951   5.288   2.372   3.792 -0.4443  0.4736 -0.3972
   40CHL1   H25 2952   5.205   2.313   3.749  0.2038  1.0028 -2.4206
   40CHL1   C26 2953   5.346   2.292   3.920 -0.4463  0.1954 -0.6139
   40CHL1  H26A 2954   5.401   2.200   3.891  0.0471  0.6309 -1.0896
   40CHL1  H26B 2955   5.413   2.361   3.976 -0.8945 -0.2537  0.4831
   40CHL1  H26C 2956   5.270   2.259   3.994  2.0645 -0.9267  1.5361
   40CHL1   C27 2957   5.241   2.503   3.857  1.1387  0.3003  0.0179
   40CHL1  H27A 2958   5.173   2.486   3.943  1.8627  1.2110  0.7737
   40CHL1  H27B 2959   5.333   2.558   3.885  1.2745 -0.0360  0.2304
   40CHL1  H27C 2960   5.176   2.559   3.785  1.0917 -1.6243 -1.4785
   41CHL1    C3 2961   4.923   5.756   2.270  0.1325 -0.3649  0.2993
   41CHL1    H3 2962   4.866   5.850   2.287 -0.5266 -1.0137  1.9140
   41CHL1    O3 2963   4.932   5.743   2.131 -0.1573 -0.2951  0.1551
   41CHL1   H3' 2964   4.999   5.676   2.117 -1.4948 -2.0977  2.0550
   41CHL1    C4 2965   5.063   5.763   2.331  0.6457 -0.4855 -0.3539
   41CHL1   H4A 2966   5.118   5.669   2.312  0.4868 -0.8834  1.1061
   41CHL1   H4B 2967   5.111   5.854   2.291 -0.1851  1.5222  2.9897
   41CHL1    C5 2968   5.054   5.779   2.480  0.9159 -0.3137  0.0322
   41CHL1    C6 2969   5.112   5.889   2.536  0.9652  0.1907 -0.1463
   41CHL1    H6 2970   5.166   5.957   2.467  0.6739 -1.4718 -2.0554
   41CHL1    C7 2971   5.107   5.933   2.677 -0.6241 -0.7849  0.3764
   41CHL1   H7A 2972   5.212   5.954   2.708 -0.3839  0.2557 -1.0893
   41CHL1   H7B 2973   5.059   6.033   2.681  0.5154 -0.2510  1.5152
   41CHL1    C8 2974   5.038   5.831   2.773 -0.6360  0.4893 -0.1300
   41CHL1    H8 2975   5.112   5.756   2.806 -1.1944 -0.3548 -0.7678
   41CHL1   C14 2976   4.995   5.898   2.903 -0.2083 -0.4267 -0.5143
   41CHL1   H14 2977   4.913   5.962   2.866 -1.3954 -2.8884 -2.2653
   41CHL1   C15 2978   5.093   5.995   2.975  0.3792  0.4834 -0.1227
   41CHL1  H15A 2979   5.197   5.957   2.966  0.0180 -0.5615  0.0942
   41CHL1  H15B 2980   5.095   6.095   2.926 -0.8038  0.0408 -1.0864
   41CHL1   C16 2981   5.036   5.996   3.120 -0.1627  0.4286  0.3232
   41CHL1  H16A 2982   5.115   5.978   3.196 -2.1428 -0.6435  2.1764
   41CHL1  H16B 2983   4.987   6.094   3.142  1.2519  0.7286  2.2236
   41CHL1   C17 2984   4.919   5.895   3.129  0.2557 -0.1202  0.1857
   41CHL1   H17 2985   4.828   5.952   3.101  0.1016  0.1033  1.1316
   41CHL1   C13 2986   4.949   5.798   3.008  0.0522 -0.0748 -0.0963
   41CHL1   C18 2987   5.058   5.708   3.059 -0.0929 -0.5320 -0.0151
   41CHL1  H18A 2988   5.129   5.679   2.979  0.8820  1.4035  0.1529
   41CHL1  H18B 2989   5.120   5.761   3.134 -1.5908  1.3629 -0.0804
   41CHL1  H18C 2990   5.030   5.615   3.114 -0.0608 -0.0869  0.7604
   41CHL1   C12 2991   4.826   5.726   2.947  0.1759 -0.2245 -0.4003
   41CHL1  H12A 2992   4.784   5.651   3.018  1.6496 -0.6991 -0.0040
   41CHL1  H12B 2993   4.748   5.803   2.931 -0.6984 -1.3763 -1.7841
   41CHL1   C11 2994   4.859   5.660   2.810 -0.2365  0.0255 -0.3486
   41CHL1  H11A 2995   4.933   5.582   2.837  0.0437  1.0606  2.0876
   41CHL1  H11B 2996   4.764   5.619   2.768 -0.9393  2.0634 -0.8113
   41CHL1    C9 2997   4.921   5.754   2.705 -0.6397  0.9386  0.1117
   41CHL1    H9 2998   4.841   5.826   2.675 -0.5238  1.0533  0.0773
   41CHL1   C10 2999   4.962   5.681   2.565 -0.9106  0.3074 -0.2714
   41CHL1   C19 3000   5.062   5.568   2.581 -0.3525 -0.0889  0.0349
   41CHL1  H19A 3001   5.157   5.602   2.629 -2.5615  2.4196  2.7919
   41CHL1  H19B 3002   5.018   5.498   2.655 -0.6259 -0.2734 -0.3002
   41CHL1  H19C 3003   5.072   5.514   2.484 -3.6354  2.0392 -1.5783
   41CHL1    C1 3004   4.834   5.642   2.484  0.8172  0.4878 -0.4259
   41CHL1   H1A 3005   4.796   5.541   2.511  1.4179  0.0005 -1.3967
   41CHL1   H1B 3006   4.756   5.715   2.514  2.6117  2.0930  0.3880
   41CHL1    C2 3007   4.848   5.632   2.330 -0.0762 -0.0605 -0.3716
   41CHL1   H2A 3008   4.743   5.616   2.297 -1.0729  0.7687  2.3083
   41CHL1   H2B 3009   4.908   5.544   2.298 -0.7154 -0.1429 -1.3652
   41CHL1   C20 3010   4.912   5.828   3.266  0.0996 -0.1480  0.6713
   41CHL1   H20 3011   5.007   5.773   3.289  1.6556  1.8462 -0.8063
   41CHL1   C21 3012   4.795   5.728   3.272 -0.1116 -0.2144  0.1404
   41CHL1  H21A 3013   4.768   5.722   3.379 -1.1678  0.1238 -0.1037
   41CHL1  H21B 3014   4.830   5.633   3.227 -1.7904 -0.0731 -1.5483
   41CHL1  H21C 3015   4.714   5.765   3.205  0.5580 -0.0612 -0.5894
   41CHL1   C22 3016   4.892   5.942   3.375  0.2870  0.9912  1.0609
   41CHL1  H22A 3017   4.957   6.028   3.349 -0.8372  1.2410 -0.9810
   41CHL1  H22B 3018   4.786   5.973   3.376 -0.4054 -1.3231  1.1286
   41CHL1   C23 3019   4.921   5.897   3.522 -0.0837  0.4802  1.0031
   41CHL1  H23A 3020   4.851   5.813   3.541  2.0605 -1.1098  2.0785
   41CHL1  H23B 3021   5.027   5.866   3.521  1.1816  4.5057 -0.7897
   41CHL1   C24 3022   4.889   6.005   3.633  0.2157 -0.0204 -0.3158
   41CHL1  H24A 3023   4.962   6.085   3.608  0.8596  0.0378  1.6805
   41CHL1  H24B 3024   4.782   6.032   3.622  0.8334  2.6504 -0.0642
   41CHL1   C25 3025   4.904   5.956   3.778  0.0714 -0.5223  0.1341
   41CHL1   H25 3026   4.993   5.890   3.788  0.8338  0.0221 -2.5509
   41CHL1   C26 3027   4.920   6.071   3.880 -0.1187  0.1591  0.3569
   41CHL1  H26A 3028   4.836   6.142   3.871  0.3498  0.7456  0.6188
   41CHL1  H26B 3029   4.918   6.038   3.986 -0.6274  3.8895  1.5861
   41CHL1  H26C 3030   5.018   6.120   3.859  0.5141 -0.7531  1.1416
   41CHL1   C27 3031   4.778   5.872   3.816 -0.0366  0.6616 -0.9410
   41CHL1  H27A 3032   4.738   5.811   3.732 -1.9742 -0.1767  0.5442
   41CHL1  H27B 3033   4.798   5.808   3.905 -0.7827  1.2934 -0.3161
   41CHL1  H27C 3034   4.699   5.944   3.847 -0.2630  0.6092 -1.4018
   42CHL1    C3 3035   6.275   4.942   2.325 -0.0871 -0.4306  1.0502
   42CHL1    H3 3036   6.354   5.014   2.355 -0.0865  0.1695 -0.3641
   42CHL1    O3 3037   6.278   4.920   2.181  0.0793  0.8512  0.2292
   42CHL1   H3' 3038   6.363   4.874   2.178 -1.2006 -1.5391 -1.1347
   42CHL1    C4 3039   6.301   4.806   2.390 -0.1811  0.6830 -0.6148
   42CHL1   H4A 3040   6.222   4.734   2.359  2.7806 -1.9171 -2.4723
   42CHL1   H4B 3041   6.394   4.758   2.352 -1.5488 -1.0955 -1.7802
   42CHL1    C5 3042   6.299   4.834   2.541 -0.4743 -0.4339  0.1921
   42CHL1    C6 3043   6.414   4.833   2.616  0.5216  0.2113 -0.2289
   42CHL1    H6 3044   6.507   4.794   2.573 -0.4040 -1.0324 -1.1650
   42CHL1    C7 3045   6.412   4.851   2.765 -0.5594 -0.0188  0.1097
   42CHL1   H7A 3046   6.475   4.776   2.817  0.6235  0.4991 -0.5586
   42CHL1   H7B 3047   6.452   4.952   2.788  0.1308 -1.0272  3.5545
   42CHL1    C8 3048   6.273   4.838   2.833  0.1636 -0.9614 -0.0175
   42CHL1    H8 3049   6.242   4.732   2.825 -2.0877 -0.2571 -1.0294
   42CHL1   C14 3050   6.287   4.891   2.974  0.5241  0.6310 -0.0588
   42CHL1   H14 3051   6.323   4.996   2.967 -2.5954  1.7364 -0.2712
   42CHL1   C15 3052   6.378   4.817   3.066  0.2606 -0.4527  0.2857
   42CHL1  H15A 3053   6.348   4.710   3.069 -0.9271 -0.2154 -2.0760
   42CHL1  H15B 3054   6.485   4.809   3.036 -0.4518  0.4859 -2.5800
   42CHL1   C16 3055   6.354   4.870   3.206  0.2296  0.0655  0.2741
   42CHL1  H16A 3056   6.345   4.795   3.288 -0.1435  1.1242  1.2081
   42CHL1  H16B 3057   6.432   4.938   3.247 -0.4900  1.2849 -0.3533
   42CHL1   C17 3058   6.227   4.964   3.182  0.4632 -1.0420 -0.2498
   42CHL1   H17 3059   6.270   5.060   3.149  0.3846 -2.3392 -4.3353
   42CHL1   C13 3060   6.156   4.911   3.052 -0.2460  0.1236  0.1864
   42CHL1   C18 3061   6.087   4.778   3.067 -0.8370 -0.0234 -0.4270
   42CHL1  H18A 3062   6.067   4.737   2.966  0.3582 -1.7090 -0.0118
   42CHL1  H18B 3063   6.145   4.704   3.126  0.6468  0.7269 -0.9101
   42CHL1  H18C 3064   5.988   4.800   3.112  0.6381  1.4572  2.2196
   42CHL1   C12 3065   6.072   5.007   2.964  0.6707 -0.2489 -0.1413
   42CHL1  H12A 3066   5.979   5.042   3.013  1.2304  1.1177 -0.0323
   42CHL1  H12B 3067   6.131   5.101   2.956 -2.0107  1.5684  0.7973
   42CHL1   C11 3068   6.043   4.960   2.823 -0.2189  0.0064  0.4160
   42CHL1  H11A 3069   5.988   4.864   2.826 -0.7873  0.3594  2.0566
   42CHL1  H11B 3070   5.976   5.030   2.769 -0.4013  0.2554  0.9581
   42CHL1    C9 3071   6.175   4.931   2.743  0.1047 -0.4340  0.2032
   42CHL1    H9 3072   6.232   5.027   2.746  0.6760 -0.8054  2.5616
   42CHL1   C10 3073   6.164   4.892   2.590  1.1512  0.1558 -0.1721
   42CHL1   C19 3074   6.046   4.792   2.589 -0.0830  0.3645 -0.1854
   42CHL1  H19A 3075   6.030   4.750   2.488 -0.3224  2.0950 -0.8818
   42CHL1  H19B 3076   6.062   4.707   2.659  0.1585 -0.3934 -1.1557
   42CHL1  H19C 3077   5.953   4.843   2.622  0.3773  1.1499 -0.1086
   42CHL1    C1 3078   6.126   5.016   2.510  0.1089 -0.5527  0.1585
   42CHL1   H1A 3079   6.029   5.062   2.540  0.0452 -1.7964  1.9167
   42CHL1   H1B 3080   6.196   5.094   2.546  0.6712 -1.2102  0.5051
   42CHL1    C2 3081   6.142   5.006   2.360 -0.0252  0.1833  0.8352
   42CHL1   H2A 3082   6.136   5.105   2.310  1.2014  0.5330  1.3481
   42CHL1   H2B 3083   6.058   4.942   2.326 -0.2464  1.3021 -0.7769
   42CHL1   C20 3084   6.145   4.977   3.314  0.8055 -0.0756 -0.5606
   42CHL1   H20 3085   6.109   4.876   3.341  1.4292 -0.2296 -0.2919
   42CHL1   C21 3086   6.019   5.062   3.310  0.5387 -0.8275 -0.5403
   42CHL1  H21A 3087   5.947   5.036   3.230 -1.1752  1.9683  0.0211
   42CHL1  H21B 3088   6.058   5.166   3.302 -1.9651  0.8814  6.2924
   42CHL1  H21C 3089   5.961   5.047   3.404 -0.8835 -0.3496 -1.3255
   42CHL1   C22 3090   6.229   5.014   3.440  0.1970 -0.3443  0.4121
   42CHL1  H22A 3091   6.334   4.978   3.428  0.2965 -0.6872  2.1988
   42CHL1  H22B 3092   6.235   5.124   3.449  0.4682 -0.2495 -0.7962
   42CHL1   C23 3093   6.175   4.954   3.573  0.8478 -0.1078 -0.4379
   42CHL1  H23A 3094   6.225   5.014   3.652  1.7514 -0.0490 -1.0475
   42CHL1  H23B 3095   6.065   4.964   3.590  0.8808  0.5888 -0.6069
   42CHL1   C24 3096   6.212   4.804   3.587  0.3808  0.0093  0.0669
   42CHL1  H24A 3097   6.149   4.747   3.516 -2.0686 -1.1287  3.0400
   42CHL1  H24B 3098   6.321   4.793   3.568  0.1704 -1.0750 -0.5145
   42CHL1   C25 3099   6.191   4.739   3.731  0.6647  0.4126 -0.9091
   42CHL1   H25 3100   6.235   4.803   3.811 -0.3497 -0.6943  0.5739
   42CHL1   C26 3101   6.038   4.736   3.779 -0.8355 -0.0019  0.5481
   42CHL1  H26A 3102   6.041   4.696   3.882  1.3625  2.4663  1.5108
   42CHL1  H26B 3103   6.018   4.846   3.781 -0.1214  0.1314  0.3906
   42CHL1  H26C 3104   5.976   4.671   3.714 -0.6409  0.6109 -0.2660
   42CHL1   C27 3105   6.238   4.596   3.746  0.1568  0.3948 -0.7071
   42CHL1  H27A 3106   6.173   4.541   3.675  0.3166 -1.9754  0.9294
   42CHL1  H27B 3107   6.344   4.582   3.716 -0.9531  0.2247 -4.8651
   42CHL1  H27C 3108   6.226   4.559   3.850  0.7587  1.0860 -0.3903
   43CHL1    C3 3109   2.636   5.662   2.297  0.0066  0.0310  0.1859
   43CHL1    H3 3110   2.608   5.555   2.297  1.4203 -0.3624  1.3961
   43CHL1    O3 3111   2.670   5.701   2.170  0.4387  0.5942  0.1062
   43CHL1   H3' 3112   2.694   5.794   2.166 -1.3901  0.9948 -2.9134
   43CHL1    C4 3113   2.517   5.751   2.342  0.0927 -0.2997 -0.4741
   43CHL1   H4A 3114   2.526   5.858   2.316 -3.0490  0.2221  0.3473
   43CHL1   H4B 3115   2.430   5.718   2.281 -0.2974 -1.8086  0.8588
   43CHL1    C5 3116   2.483   5.738   2.487  0.5136 -0.2267  0.2826
   43CHL1    C6 3117   2.359   5.710   2.534 -0.1433 -0.0052  0.2377
   43CHL1    H6 3118   2.280   5.680   2.463  1.5227  0.4506 -1.8523
   43CHL1    C7 3119   2.317   5.720   2.679 -0.1899 -0.0835  0.1802
   43CHL1   H7A 3120   2.219   5.771   2.685  0.4483  1.4209 -1.6612
   43CHL1   H7B 3121   2.306   5.621   2.727 -1.2567  0.0704  0.2545
   43CHL1    C8 3122   2.427   5.795   2.762 -0.1246  0.4814 -0.2834
   43CHL1    H8 3123   2.434   5.905   2.749  0.5556  0.4580 -0.1620
   43CHL1   C14 3124   2.403   5.783   2.910 -0.7545  0.0783  0.3762
   43CHL1   H14 3125   2.387   5.675   2.929  1.7547  0.0059  2.2526
   43CHL1   C15 3126   2.273   5.840   2.958  0.3172 -0.0167 -1.0334
   43CHL1  H15A 3127   2.279   5.942   2.916 -0.8221  0.0669 -1.0068
   43CHL1  H15B 3128   2.180   5.786   2.932  0.3367 -1.2038  1.1492
   43CHL1   C16 3129   2.287   5.849   3.106 -0.0889  0.1061 -0.1263
   43CHL1  H16A 3130   2.263   5.951   3.144  0.9302 -0.3258  1.7441
   43CHL1  H16B 3131   2.218   5.776   3.154 -0.8705 -0.9074 -2.6937
   43CHL1   C17 3132   2.436   5.810   3.145  0.1417 -0.3822 -0.1440
   43CHL1   H17 3133   2.431   5.702   3.172  0.5690 -0.1555  0.8341
   43CHL1   C13 3134   2.516   5.832   3.016 -0.6765 -0.7474  0.5727
   43CHL1   C18 3135   2.547   5.976   2.996 -0.2150  0.3508  0.4695
   43CHL1  H18A 3136   2.640   5.999   3.053 -0.5665  1.2180  0.6973
   43CHL1  H18B 3137   2.565   6.012   2.893  0.5855  2.4352  1.3237
   43CHL1  H18C 3138   2.462   6.033   3.040 -1.0368  0.1136 -0.7929
   43CHL1   C12 3139   2.635   5.742   2.984 -0.5146 -0.4877  0.7691
   43CHL1  H12A 3140   2.722   5.781   3.041  0.3868  0.7267 -1.3312
   43CHL1  H12B 3141   2.623   5.635   3.009 -0.4402 -0.6733  0.0351
   43CHL1   C11 3142   2.678   5.770   2.841  0.3284 -0.1446 -0.2040
   43CHL1  H11A 3143   2.706   5.878   2.833  0.1056 -0.0721 -0.0114
   43CHL1  H11B 3144   2.767   5.708   2.819  0.1178 -0.5700  0.1609
   43CHL1    C9 3145   2.567   5.738   2.729  0.1411  0.5323  0.0426
   43CHL1    H9 3146   2.555   5.628   2.741  0.8515  0.6937  2.7171
   43CHL1   C10 3147   2.602   5.768   2.583  0.4123  0.5970  0.1084
   43CHL1   C19 3148   2.632   5.918   2.565  0.5932 -0.3193  0.1684
   43CHL1  H19A 3149   2.720   5.946   2.627 -1.8640  1.0822  3.1843
   43CHL1  H19B 3150   2.636   5.951   2.459 -0.6509  0.9350  0.4986
   43CHL1  H19C 3151   2.551   5.984   2.604  1.5058  1.2719 -0.5650
   43CHL1    C1 3152   2.725   5.685   2.539  0.1471 -0.2227  0.7033
   43CHL1   H1A 3153   2.816   5.719   2.594 -0.1878  2.9064 -0.5706
   43CHL1   H1B 3154   2.692   5.587   2.578 -1.3688  0.3017  0.7455
   43CHL1    C2 3155   2.764   5.688   2.391 -0.2427  0.8788 -0.4035
   43CHL1   H2A 3156   2.840   5.610   2.375  0.7163  1.7406 -0.0904
   43CHL1   H2B 3157   2.818   5.783   2.371 -3.9617  3.3137  0.4162
   43CHL1   C20 3158   2.502   5.865   3.276  0.0112 -0.4335 -0.6351
   43CHL1   H20 3159   2.518   5.975   3.285 -0.6037 -0.4796  1.2147
   43CHL1   C21 3160   2.633   5.791   3.311 -0.0284  0.2215  0.3191
   43CHL1  H21A 3161   2.625   5.681   3.298 -1.2823  0.3732 -0.2625
   43CHL1  H21B 3162   2.665   5.818   3.413  0.3769  0.6876  0.0731
   43CHL1  H21C 3163   2.713   5.825   3.241  0.1599  0.0161  0.4343
   43CHL1   C22 3164   2.408   5.835   3.388  0.2504 -0.5695 -0.8989
   43CHL1  H22A 3165   2.300   5.847   3.363  0.1282  1.2646  0.4202
   43CHL1  H22B 3166   2.408   5.724   3.390 -0.8388 -0.5654  0.3517
   43CHL1   C23 3167   2.432   5.915   3.519 -0.2662 -0.2553  0.2930
   43CHL1  H23A 3168   2.479   5.858   3.602 -1.4793  0.3545  1.4128
   43CHL1  H23B 3169   2.495   6.002   3.491 -0.8267 -0.9564 -3.4086
   43CHL1   C24 3170   2.304   5.986   3.574 -0.1199  0.6214  0.4285
   43CHL1  H24A 3171   2.342   6.053   3.654 -1.2387 -0.4418  1.8709
   43CHL1  H24B 3172   2.257   6.043   3.490  1.5870 -0.0442 -1.0167
   43CHL1   C25 3173   2.195   5.893   3.631 -0.4936 -0.3198  0.3881
   43CHL1   H25 3174   2.169   5.805   3.568 -0.9707 -0.4679  0.7857
   43CHL1   C26 3175   2.244   5.848   3.773  0.2175  0.5937  0.1858
   43CHL1  H26A 3176   2.339   5.792   3.757  0.0250  0.7755 -1.7102
   43CHL1  H26B 3177   2.245   5.928   3.849  2.7123  0.6407  0.1467
   43CHL1  H26C 3178   2.174   5.771   3.813  0.7216 -0.9678 -1.8465
   43CHL1   C27 3179   2.062   5.968   3.644 -0.4236 -0.4361 -0.2174
   43CHL1  H27A 3180   1.979   5.911   3.691  1.5268 -1.4873  2.0373
   43CHL1  H27B 3181   2.076   6.066   3.696 -0.7769 -1.7718  2.4638
   43CHL1  H27C 3182   2.032   5.985   3.539 -1.5835  1.3902  0.3863
   44CHL1    C3 3183   5.850   5.555   2.219 -0.3202  0.1310 -0.8361
   44CHL1    H3 3184   5.829   5.663   2.234  0.1426 -0.0771  1.3451
   44CHL1    O3 3185   5.862   5.520   2.082 -0.0494  0.2081  0.0163
   44CHL1   H3' 3186   5.781   5.546   2.038  0.2698  2.4290  0.6835
   44CHL1    C4 3187   5.984   5.523   2.290 -0.4565  0.0381  1.0808
   44CHL1   H4A 3188   6.007   5.417   2.265 -0.4932  0.1138  0.7156
   44CHL1   H4B 3189   6.060   5.591   2.245 -2.5534  1.8356  0.1150
   44CHL1    C5 3190   5.970   5.552   2.445  0.2155 -0.0531 -0.4710
   44CHL1    C6 3191   6.056   5.634   2.510  0.0981 -0.3028 -0.2629
   44CHL1    H6 3192   6.140   5.677   2.454 -1.1441 -2.5618 -4.0138
   44CHL1    C7 3193   6.064   5.641   2.665 -0.9600  0.7125 -0.0658
   44CHL1   H7A 3194   6.170   5.617   2.689 -0.8779 -0.1444 -1.2456
   44CHL1   H7B 3195   6.039   5.745   2.697 -2.1363  1.0753 -2.0588
   44CHL1    C8 3196   5.976   5.542   2.728 -1.1531  0.5206 -0.7610
   44CHL1    H8 3197   6.021   5.440   2.729 -0.8815  0.6442  0.6125
   44CHL1   C14 3198   5.959   5.575   2.878 -0.2101  0.2818 -0.2537
   44CHL1   H14 3199   5.903   5.671   2.884  0.5219  0.7245 -0.4142
   44CHL1   C15 3200   6.084   5.609   2.961 -0.1971  0.7323 -0.6805
   44CHL1  H15A 3201   6.163   5.536   2.930 -0.6551 -0.0963  0.0574
   44CHL1  H15B 3202   6.120   5.712   2.944  2.4534 -0.0583 -0.1832
   44CHL1   C16 3203   6.037   5.594   3.112  0.5127  0.1695 -0.3747
   44CHL1  H16A 3204   6.106   5.518   3.153  1.0502 -0.1877 -1.9194
   44CHL1  H16B 3205   6.031   5.687   3.174  0.1796 -1.4552  2.0956
   44CHL1   C17 3206   5.890   5.539   3.101 -0.3733 -0.1836 -0.1413
   44CHL1   H17 3207   5.833   5.634   3.093  1.4947  1.0085  0.2383
   44CHL1   C13 3208   5.881   5.475   2.960 -0.1931 -0.2214 -0.3460
   44CHL1   C18 3209   5.951   5.335   2.967 -0.2087 -0.1129 -0.0778
   44CHL1  H18A 3210   5.970   5.301   2.862  2.2903  0.7985  0.0527
   44CHL1  H18B 3211   6.047   5.337   3.022 -0.0577  2.2775 -0.3954
   44CHL1  H18C 3212   5.882   5.265   3.018  0.7963 -1.8460 -1.0438
   44CHL1   C12 3213   5.743   5.473   2.897 -0.6729 -0.0066  0.2172
   44CHL1  H12A 3214   5.675   5.397   2.940  0.6455 -0.8552  0.8539
   44CHL1  H12B 3215   5.701   5.576   2.893  1.3340  0.8076 -1.5331
   44CHL1   C11 3216   5.736   5.439   2.746 -0.7782 -0.0640 -0.4227
   44CHL1  H11A 3217   5.775   5.335   2.742  0.4141  0.3440  0.6505
   44CHL1  H11B 3218   5.638   5.436   2.692 -0.1815  0.1977 -1.5488
   44CHL1    C9 3219   5.842   5.524   2.657  0.2778  0.1080 -0.0680
   44CHL1    H9 3220   5.789   5.622   2.656 -0.7192 -0.3265  3.7394
   44CHL1   C10 3221   5.859   5.469   2.515  0.0524 -0.5307  0.7634
   44CHL1   C19 3222   5.900   5.317   2.513  0.2213  0.0144 -0.2581
   44CHL1  H19A 3223   5.996   5.312   2.568  0.9626  0.8463 -1.4431
   44CHL1  H19B 3224   5.823   5.255   2.564  2.7029 -2.3533  0.7911
   44CHL1  H19C 3225   5.920   5.273   2.412 -1.4862 -0.4838 -0.3939
   44CHL1    C1 3226   5.725   5.487   2.432 -0.0034  0.0497 -0.0232
   44CHL1   H1A 3227   5.653   5.406   2.459 -1.2698  0.6061 -1.6285
   44CHL1   H1B 3228   5.686   5.588   2.454  0.1990 -0.2044  1.5542
   44CHL1    C2 3229   5.739   5.472   2.282  0.4560  0.5029  0.1502
   44CHL1   H2A 3230   5.643   5.503   2.235 -0.0180 -0.0736  0.7340
   44CHL1   H2B 3231   5.765   5.366   2.264  1.4119  0.8039 -0.3060
   44CHL1   C20 3232   5.848   5.457   3.225  0.3568 -0.1312 -0.5062
   44CHL1   H20 3233   5.891   5.356   3.212  3.3122  0.9254  0.3910
   44CHL1   C21 3234   5.691   5.441   3.214 -0.7062 -0.1457 -0.5355
   44CHL1  H21A 3235   5.655   5.422   3.318 -0.4869 -1.5992 -0.7231
   44CHL1  H21B 3236   5.658   5.354   3.153  3.1880 -1.1551 -1.3823
   44CHL1  H21C 3237   5.650   5.537   3.178  0.1321  0.1974 -0.5921
   44CHL1   C22 3238   5.883   5.509   3.367 -0.1700 -0.0442 -0.4108
   44CHL1  H22A 3239   5.991   5.530   3.381 -0.4038 -0.4017  2.3000
   44CHL1  H22B 3240   5.831   5.606   3.382 -1.3281 -0.7931  0.5584
   44CHL1   C23 3241   5.858   5.414   3.481  0.8683  0.3702  0.5722
   44CHL1  H23A 3242   5.752   5.384   3.497  0.3761  0.9317 -1.4266
   44CHL1  H23B 3243   5.910   5.316   3.479 -3.6075 -2.1152  0.5204
   44CHL1   C24 3244   5.920   5.480   3.606 -0.0723  0.0266 -0.3333
   44CHL1  H24A 3245   6.029   5.498   3.604  0.0573 -0.7752 -0.6535
   44CHL1  H24B 3246   5.872   5.579   3.621 -0.4537 -0.2614  0.3747
   44CHL1   C25 3247   5.882   5.397   3.737  0.7086 -0.1664 -0.2920
   44CHL1   H25 3248   5.773   5.379   3.724  0.3441 -0.8052  3.1353
   44CHL1   C26 3249   5.957   5.262   3.748 -0.1986  0.0713  0.3000
   44CHL1  H26A 3250   5.916   5.184   3.680  0.5972  1.1342 -1.4362
   44CHL1  H26B 3251   6.060   5.279   3.709 -0.1721  2.0229  1.1449
   44CHL1  H26C 3252   5.962   5.237   3.856 -2.6417 -1.3099  0.1105
   44CHL1   C27 3253   5.897   5.491   3.859  0.0568 -0.2441  0.5453
   44CHL1  H27A 3254   6.005   5.507   3.880  0.3472  2.4505 -2.5808
   44CHL1  H27B 3255   5.855   5.591   3.834 -0.1874 -1.1636 -2.9545
   44CHL1  H27C 3256   5.848   5.445   3.948 -0.0575  0.6141  0.9287
   45CHL1    C3 3257   1.079   4.778   2.292 -0.4276 -0.1484 -0.0935
   45CHL1    H3 3258   1.136   4.703   2.351  1.0269 -0.3347 -1.7231
   45CHL1    O3 3259   1.048   4.729   2.164 -0.0684 -0.3368  0.0843
   45CHL1   H3' 3260   1.126   4.702   2.115  0.8087  1.6499  0.3684
   45CHL1    C4 3261   0.954   4.819   2.369 -0.9949 -0.3751 -0.2100
   45CHL1   H4A 3262   0.904   4.899   2.311 -0.7180  0.0478  0.1348
   45CHL1   H4B 3263   0.896   4.726   2.384 -0.0003 -0.5181  3.2954
   45CHL1    C5 3264   0.994   4.884   2.500  0.2961 -0.0520 -0.4038
   45CHL1    C6 3265   0.945   4.835   2.621 -0.3756  0.0104 -0.4305
   45CHL1    H6 3266   0.880   4.747   2.616 -0.6229  0.1806 -0.1993
   45CHL1    C7 3267   0.970   4.890   2.753 -0.2845  1.0027  0.5611
   45CHL1   H7A 3268   0.881   4.896   2.820  0.7736 -1.5484  2.2884
   45CHL1   H7B 3269   1.049   4.827   2.800 -0.6229  1.8262  2.3095
   45CHL1    C8 3270   1.024   5.037   2.749  0.0534  0.5863 -0.6423
   45CHL1    H8 3271   0.932   5.094   2.722 -1.0584  0.0474  1.8559
   45CHL1   C14 3272   1.062   5.083   2.888 -0.1121 -0.2079  0.0857
   45CHL1   H14 3273   1.150   5.020   2.915  0.2585 -0.2315 -1.1122
   45CHL1   C15 3274   0.975   5.072   3.010  0.0875 -0.4999  0.4651
   45CHL1  H15A 3275   0.868   5.100   2.995 -0.2495 -2.3035 -0.6238
   45CHL1  H15B 3276   0.986   4.967   3.043 -1.3680 -0.2878  1.7093
   45CHL1   C16 3277   1.046   5.162   3.103  0.0748 -0.0383  0.3714
   45CHL1  H16A 3278   0.966   5.230   3.139 -0.0678 -0.5359  0.9919
   45CHL1  H16B 3279   1.092   5.110   3.189 -0.8570 -1.2271  0.1594
   45CHL1   C17 3280   1.153   5.253   3.027 -0.1820  0.2889  0.0567
   45CHL1   H17 3281   1.256   5.213   3.045 -0.5373  1.1506  4.8179
   45CHL1   C13 3282   1.110   5.231   2.882 -0.4991 -0.3083  0.1164
   45CHL1   C18 3283   0.997   5.333   2.847 -0.3569 -0.3313  0.3416
   45CHL1  H18A 3284   1.018   5.442   2.852  0.4686 -0.5227  1.0987
   45CHL1  H18B 3285   0.960   5.314   2.744 -0.1484 -4.3587  0.9221
   45CHL1  H18C 3286   0.915   5.318   2.920 -0.6492  0.1417  0.1166
   45CHL1   C12 3287   1.225   5.234   2.783  0.0138  0.6039  0.4304
   45CHL1  H12A 3288   1.279   5.330   2.801  2.3477 -0.3523 -1.2213
   45CHL1  H12B 3289   1.308   5.162   2.799 -0.1484  0.2909 -0.1355
   45CHL1   C11 3290   1.187   5.199   2.642  0.3638  0.2631  0.7389
   45CHL1  H11A 3291   1.120   5.276   2.597 -0.6510 -1.3846 -0.6435
   45CHL1  H11B 3292   1.279   5.192   2.581 -0.5509 -1.5140 -0.4855
   45CHL1    C9 3293   1.129   5.057   2.638  0.4776  0.2607  0.0465
   45CHL1    H9 3294   1.214   4.994   2.670 -0.5480 -2.1343 -1.7679
   45CHL1   C10 3295   1.082   5.010   2.489 -0.7187  0.0751 -0.4114
   45CHL1   C19 3296   1.003   5.126   2.426 -0.5637  0.3333 -0.7651
   45CHL1  H19A 3297   1.071   5.212   2.410 -0.4616  0.4063  0.0243
   45CHL1  H19B 3298   0.956   5.098   2.330 -3.5216 -2.3715  1.3539
   45CHL1  H19C 3299   0.922   5.156   2.496 -0.2161  0.2138 -0.3114
   45CHL1    C1 3300   1.206   4.965   2.410 -0.1012 -0.1173 -0.4985
   45CHL1   H1A 3301   1.269   5.056   2.394  0.7508 -0.5869  0.1406
   45CHL1   H1B 3302   1.269   4.896   2.470  2.2401  1.2464 -1.3189
   45CHL1    C2 3303   1.174   4.897   2.272 -0.4965  0.0990 -0.1935
   45CHL1   H2A 3304   1.270   4.864   2.226 -0.0353 -1.5554  1.8527
   45CHL1   H2B 3305   1.129   4.981   2.215  2.1428  1.0448 -0.9939
   45CHL1   C20 3306   1.155   5.396   3.098  0.6742  0.3233  0.8391
   45CHL1   H20 3307   1.055   5.441   3.081  0.9837  0.8144  0.3211
   45CHL1   C21 3308   1.266   5.481   3.030 -0.3939 -0.6827  0.0726
   45CHL1  H21A 3309   1.365   5.431   3.044 -0.4725 -0.9459 -0.3191
   45CHL1  H21B 3310   1.263   5.576   3.088 -1.0168 -0.9553  0.4941
   45CHL1  H21C 3311   1.259   5.513   2.924 -0.2037  0.9674  0.5416
   45CHL1   C22 3312   1.170   5.397   3.251 -0.7304  0.5146  0.4828
   45CHL1  H22A 3313   1.127   5.307   3.301  0.5743 -0.1231  0.4887
   45CHL1  H22B 3314   1.279   5.386   3.271 -0.4926 -1.0119 -1.4784
   45CHL1   C23 3315   1.090   5.516   3.306 -0.3040 -0.1164 -0.1390
   45CHL1  H23A 3316   1.126   5.605   3.251  0.7836 -0.4799 -0.0180
   45CHL1  H23B 3317   0.983   5.507   3.278 -1.4829 -1.7032  4.3668
   45CHL1   C24 3318   1.111   5.528   3.458 -0.0864  0.8547 -0.1582
   45CHL1  H24A 3319   1.067   5.444   3.517 -0.1996 -0.4433 -2.0278
   45CHL1  H24B 3320   1.218   5.503   3.477 -0.5360 -0.6991  0.4118
   45CHL1   C25 3321   1.072   5.655   3.533 -0.4010  0.4337 -0.5248
   45CHL1   H25 3322   1.105   5.747   3.479  2.0563 -0.8199 -1.2179
   45CHL1   C26 3323   0.920   5.655   3.541 -0.1093  0.5488 -0.4170
   45CHL1  H26A 3324   0.889   5.747   3.596 -1.5949 -0.6086  0.7446
   45CHL1  H26B 3325   0.862   5.652   3.447 -3.0927  1.1233  1.3272
   45CHL1  H26C 3326   0.896   5.560   3.594 -1.6318  1.8994  1.3922
   45CHL1   C27 3327   1.128   5.660   3.682  0.1310 -0.3278 -0.2262
   45CHL1  H27A 3328   1.133   5.766   3.716 -1.5406 -0.0221 -0.8938
   45CHL1  H27B 3329   1.068   5.604   3.757 -1.3021 -1.4136 -2.1378
   45CHL1  H27C 3330   1.232   5.622   3.695 -0.5583 -1.4893  2.2880
   46CHL1    C3 3331   4.787   6.313   2.210 -0.4455  0.2096 -0.7228
   46CHL1    H3 3332   4.676   6.317   2.206 -0.3696  0.1467 -3.0274
   46CHL1    O3 3333   4.843   6.300   2.081 -1.0396  0.8281  0.2622
   46CHL1   H3' 3334   4.936   6.285   2.098 -0.4862  3.2543 -0.4763
   46CHL1    C4 3335   4.856   6.440   2.262  0.3080 -0.0461  0.2806
   46CHL1   H4A 3336   4.965   6.423   2.256 -0.0141 -2.2341 -0.0825
   46CHL1   H4B 3337   4.846   6.532   2.200 -0.2708 -0.3118 -0.0277
   46CHL1    C5 3338   4.802   6.460   2.403 -0.0515  0.4303  0.0782
   46CHL1    C6 3339   4.733   6.569   2.436 -0.3885  1.0681 -0.2876
   46CHL1    H6 3340   4.719   6.651   2.364  1.2740  1.9453  0.3505
   46CHL1    C7 3341   4.686   6.591   2.573 -0.8607 -0.0375 -0.4374
   46CHL1   H7A 3342   4.694   6.699   2.597  0.4053  0.0643 -1.2575
   46CHL1   H7B 3343   4.580   6.561   2.584 -0.9737  0.6869  0.4903
   46CHL1    C8 3344   4.758   6.501   2.683  0.2200 -0.3068  0.4408
   46CHL1    H8 3345   4.861   6.542   2.696 -0.4341  1.1635  1.0691
   46CHL1   C14 3346   4.688   6.517   2.815 -0.6628 -0.1931 -0.2649
   46CHL1   H14 3347   4.584   6.479   2.800 -1.3840 -0.3563  4.2726
   46CHL1   C15 3348   4.674   6.662   2.869 -0.3190 -0.1091  1.0383
   46CHL1  H15A 3349   4.777   6.701   2.863 -1.0087  1.4713 -1.2912
   46CHL1  H15B 3350   4.606   6.724   2.807  2.0507 -0.9666 -2.6493
   46CHL1   C16 3351   4.643   6.636   3.020  0.1640  0.9776 -0.1867
   46CHL1  H16A 3352   4.713   6.698   3.080  2.7596 -2.6842  0.6965
   46CHL1  H16B 3353   4.537   6.667   3.032 -0.2023 -0.2702 -0.1259
   46CHL1   C17 3354   4.652   6.480   3.048  0.4231 -0.4688 -0.3644
   46CHL1   H17 3355   4.550   6.438   3.034  0.3225  0.4439 -2.5576
   46CHL1   C13 3356   4.742   6.434   2.926  0.3147 -0.8540  0.4832
   46CHL1   C18 3357   4.897   6.467   2.969  0.9519 -0.0892  0.1061
   46CHL1  H18A 3358   4.960   6.490   2.880  0.0598  1.8304 -0.0371
   46CHL1  H18B 3359   4.903   6.551   3.041 -0.1133  0.1238 -0.0444
   46CHL1  H18C 3360   4.937   6.374   3.015  1.4913  0.9406  1.7338
   46CHL1   C12 3361   4.716   6.288   2.876 -0.3613  0.2195  0.6575
   46CHL1  H12A 3362   4.733   6.219   2.961  1.9392  0.0669  0.0953
   46CHL1  H12B 3363   4.612   6.281   2.838  1.0178 -0.9259 -3.2397
   46CHL1   C11 3364   4.782   6.255   2.743 -0.1420  0.2147  0.3819
   46CHL1  H11A 3365   4.893   6.256   2.757  0.1370 -0.3971 -1.6265
   46CHL1  H11B 3366   4.750   6.153   2.713 -0.5743  0.6314 -0.5924
   46CHL1    C9 3367   4.749   6.362   2.636  0.1944 -0.1780 -0.5393
   46CHL1    H9 3368   4.640   6.364   2.616  0.1688  0.1985 -0.3556
   46CHL1   C10 3369   4.829   6.342   2.499 -0.1430 -0.0020 -0.2571
   46CHL1   C19 3370   4.978   6.330   2.527 -0.1072  0.2646  0.6511
   46CHL1  H19A 3371   5.041   6.316   2.437  1.1547 -0.1433  1.5861
   46CHL1  H19B 3372   5.022   6.400   2.601  0.0684  1.4349 -0.5346
   46CHL1  H19C 3373   4.993   6.232   2.577 -1.4349  0.5083  1.5418
   46CHL1    C1 3374   4.786   6.214   2.438  0.1524 -0.6184 -0.4899
   46CHL1   H1A 3375   4.817   6.127   2.499 -0.2109 -0.2802  0.1746
   46CHL1   H1B 3376   4.676   6.196   2.434  0.1788 -0.5205 -2.1089
   46CHL1    C2 3377   4.834   6.190   2.289  1.4310  0.5284 -1.2996
   46CHL1   H2A 3378   4.783   6.100   2.250  4.6670 -0.3734 -3.7091
   46CHL1   H2B 3379   4.945   6.181   2.292  1.2961 -0.5072  1.0220
   46CHL1   C20 3380   4.697   6.445   3.193 -0.5373  0.1211 -0.1329
   46CHL1   H20 3381   4.796   6.494   3.205 -0.3303 -0.1985 -0.5279
   46CHL1   C21 3382   4.722   6.292   3.215 -0.2440 -0.1313  0.0740
   46CHL1  H21A 3383   4.636   6.230   3.182 -0.6514  0.5836 -0.1968
   46CHL1  H21B 3384   4.757   6.269   3.318  0.5937 -2.8926 -0.7855
   46CHL1  H21C 3385   4.819   6.256   3.174 -0.4038 -0.8266  0.2978
   46CHL1   C22 3386   4.604   6.505   3.314 -0.3208  0.3631  0.0503
   46CHL1  H22A 3387   4.651   6.495   3.415 -0.0654  0.7564 -0.0247
   46CHL1  H22B 3388   4.596   6.614   3.295 -0.8021  0.0897 -1.3720
   46CHL1   C23 3389   4.470   6.429   3.324  0.3862 -0.2511 -0.9928
   46CHL1  H23A 3390   4.418   6.437   3.226 -1.4580  3.9312  0.2255
   46CHL1  H23B 3391   4.506   6.327   3.351 -1.6664 -0.8267 -0.3628
   46CHL1   C24 3392   4.378   6.486   3.432  0.2920 -0.0894 -0.6449
   46CHL1  H24A 3393   4.421   6.467   3.533 -3.4949 -1.1435  0.8689
   46CHL1  H24B 3394   4.365   6.595   3.415  0.5509  0.1559  0.6879
   46CHL1   C25 3395   4.247   6.402   3.441 -0.0949  0.0503 -0.0595
   46CHL1   H25 3396   4.276   6.302   3.480  0.5224  0.1507 -0.2541
   46CHL1   C26 3397   4.166   6.467   3.552 -0.0618  0.0161  0.0015
   46CHL1  H26A 3398   4.067   6.422   3.573 -1.0429  2.0951 -0.0187
   46CHL1  H26B 3399   4.222   6.472   3.648 -0.8003  2.4354  0.3455
   46CHL1  H26C 3400   4.150   6.567   3.506 -1.7746 -0.9047 -1.4640
   46CHL1   C27 3401   4.174   6.382   3.314 -0.2668 -0.5041 -0.3962
   46CHL1  H27A 3402   4.249   6.324   3.255  1.8443  0.3009  1.4395
   46CHL1  H27B 3403   4.084   6.317   3.317  1.4623 -3.0160 -0.5693
   46CHL1  H27C 3404   4.142   6.476   3.265 -0.9670 -0.4447  0.1748
   47CHL1    C3 3405   1.314   1.374   2.220 -0.0974  0.0446  0.5888
   47CHL1    H3 3406   1.289   1.277   2.266  0.2150 -0.6800 -0.7407
   47CHL1    O3 3407   1.314   1.363   2.078  0.2134  0.0351  0.2800
   47CHL1   H3' 3408   1.399   1.324   2.060 -0.0193 -0.4611  0.2387
   47CHL1    C4 3409   1.193   1.464   2.252  0.1848 -0.0697  0.1260
   47CHL1   H4A 3410   1.223   1.563   2.212 -0.5246  0.2005  0.2728
   47CHL1   H4B 3411   1.101   1.431   2.199  0.1696  0.3210 -0.0846
   47CHL1    C5 3412   1.171   1.480   2.401 -0.2837 -0.3207  0.2436
   47CHL1    C6 3413   1.056   1.454   2.463  0.2817  0.2091  0.6769
   47CHL1    H6 3414   0.971   1.423   2.400  0.7486  1.4715 -0.5837
   47CHL1    C7 3415   1.043   1.476   2.613  0.3296 -0.0996  0.9205
   47CHL1   H7A 3416   0.956   1.545   2.623 -1.9897 -2.5180 -1.6896
   47CHL1   H7B 3417   1.025   1.383   2.670 -0.0799  0.3142  1.4761
   47CHL1    C8 3418   1.158   1.554   2.688 -0.9275 -0.7288  0.6749
   47CHL1    H8 3419   1.150   1.664   2.670  2.4767 -0.5169  0.2616
   47CHL1   C14 3420   1.157   1.522   2.834  0.7071  0.1687 -0.2764
   47CHL1   H14 3421   1.179   1.413   2.835  0.2449  0.0818  0.8452
   47CHL1   C15 3422   1.028   1.542   2.916 -0.3792 -0.2410 -0.3787
   47CHL1  H15A 3423   0.983   1.638   2.884  0.1280 -0.4317 -1.6836
   47CHL1  H15B 3424   0.961   1.456   2.894 -1.4493  0.4440  0.1776
   47CHL1   C16 3425   1.077   1.557   3.063  0.6565  0.6633  0.3041
   47CHL1  H16A 3426   1.053   1.662   3.092  0.3291  1.4020 -2.4967
   47CHL1  H16B 3427   1.028   1.486   3.133  1.5865 -0.5296 -0.2554
   47CHL1   C17 3428   1.232   1.545   3.055 -0.6627  0.0563 -0.4923
   47CHL1   H17 3429   1.244   1.435   3.061 -0.2068  0.1904  1.4731
   47CHL1   C13 3430   1.271   1.592   2.908 -0.1705 -0.0768  0.1761
   47CHL1   C18 3431   1.264   1.744   2.910  0.1066  0.3630  0.4083
   47CHL1  H18A 3432   1.276   1.787   2.808  1.7958  0.3647  0.5996
   47CHL1  H18B 3433   1.166   1.783   2.945  0.9559  1.0519  2.0501
   47CHL1  H18C 3434   1.337   1.788   2.981  1.1072 -0.6431  0.0146
   47CHL1   C12 3435   1.410   1.557   2.847  0.3077 -0.0806  0.6673
   47CHL1  H12A 3436   1.495   1.613   2.892  1.9701 -1.8156 -0.2458
   47CHL1  H12B 3437   1.429   1.450   2.868 -0.0216 -0.1068  0.8403
   47CHL1   C11 3438   1.416   1.569   2.697 -0.2302  0.5663  0.2768
   47CHL1  H11A 3439   1.411   1.678   2.680 -1.2954  0.0268 -3.1270
   47CHL1  H11B 3440   1.512   1.522   2.667 -0.7084  1.2303 -2.3516
   47CHL1    C9 3441   1.292   1.513   2.629  0.1860  0.2487  0.7429
   47CHL1    H9 3442   1.296   1.403   2.646  0.3043 -0.0157 -0.9312
   47CHL1   C10 3443   1.302   1.524   2.474 -0.4959 -0.1292 -0.1795
   47CHL1   C19 3444   1.324   1.673   2.439  0.4569  0.1536 -0.6779
   47CHL1  H19A 3445   1.423   1.696   2.483  2.1117 -2.6081 -2.8365
   47CHL1  H19B 3446   1.335   1.701   2.332  1.6725  2.5643  0.0389
   47CHL1  H19C 3447   1.245   1.733   2.490  0.0967 -0.2807 -0.7134
   47CHL1    C1 3448   1.419   1.435   2.423 -0.3753  0.0363  0.4669
   47CHL1   H1A 3449   1.519   1.474   2.453 -0.0080  1.0204 -1.9804
   47CHL1   H1B 3450   1.397   1.327   2.439 -1.4850  0.0363 -0.9939
   47CHL1    C2 3451   1.442   1.432   2.274 -0.2527 -0.6669  0.2230
   47CHL1   H2A 3452   1.527   1.363   2.259  1.9419  1.6455  1.5789
   47CHL1   H2B 3453   1.478   1.524   2.224 -0.1002 -0.3861  0.8494
   47CHL1   C20 3454   1.317   1.589   3.182 -0.0337  0.3562 -0.0844
   47CHL1   H20 3455   1.327   1.699   3.187  0.6940  0.2712  0.3483
   47CHL1   C21 3456   1.455   1.526   3.177  0.1144 -0.6367 -0.1927
   47CHL1  H21A 3457   1.449   1.420   3.210 -1.2869 -1.1501 -1.9510
   47CHL1  H21B 3458   1.519   1.578   3.251  0.9177 -1.1127 -0.5433
   47CHL1  H21C 3459   1.509   1.535   3.080  0.6747 -1.7271  0.0186
   47CHL1   C22 3460   1.247   1.559   3.314  0.2750  0.8714  0.4274
   47CHL1  H22A 3461   1.152   1.615   3.308  0.2564  0.6653 -1.3991
   47CHL1  H22B 3462   1.226   1.451   3.328 -3.0945  1.6023  1.3471
   47CHL1   C23 3463   1.328   1.599   3.439 -0.8281  0.2643 -0.7206
   47CHL1  H23A 3464   1.413   1.527   3.433  0.3800  1.7192 -1.3580
   47CHL1  H23B 3465   1.366   1.703   3.436  3.8827 -1.3560 -0.8885
   47CHL1   C24 3466   1.251   1.577   3.568 -1.0348 -0.3113 -0.2037
   47CHL1  H24A 3467   1.154   1.632   3.569 -0.6539  0.3961 -1.0912
   47CHL1  H24B 3468   1.228   1.469   3.579 -0.1710 -0.3731  1.1728
   47CHL1   C25 3469   1.337   1.618   3.691  0.8116 -0.2682  0.0404
   47CHL1   H25 3470   1.380   1.719   3.674  2.2549 -0.7481  0.7346
   47CHL1   C26 3471   1.253   1.617   3.817  0.1171  0.8084 -0.8155
   47CHL1  H26A 3472   1.213   1.515   3.832  0.5701  1.0339  2.1820
   47CHL1  H26B 3473   1.308   1.648   3.909  1.1376 -0.2415 -1.0601
   47CHL1  H26C 3474   1.170   1.685   3.789  0.5071  0.7867 -2.0460
   47CHL1   C27 3475   1.453   1.531   3.718  0.3577  0.0597  0.1083
   47CHL1  H27A 3476   1.516   1.510   3.629 -0.0116  2.6854 -0.8235
   47CHL1  H27B 3477   1.524   1.574   3.792  0.3512 -0.1736  0.2494
   47CHL1  H27C 3478   1.420   1.430   3.749 -0.1974  0.3216  0.3894
   48CHL1    C3 3479   6.196   2.209   2.392 -0.2434 -0.5617 -0.7075
   48CHL1    H3 3480   6.154   2.302   2.435 -0.1121 -0.8831  0.1207
   48CHL1    O3 3481   6.214   2.220   2.250 -0.0613  0.3365 -0.0689
   48CHL1   H3' 3482   6.297   2.269   2.245  0.0682  0.4322  2.3923
   48CHL1    C4 3483   6.330   2.186   2.463 -0.1479 -0.4827 -0.3408
   48CHL1   H4A 3484   6.373   2.098   2.412  0.2068  0.2702 -1.3570
   48CHL1   H4B 3485   6.398   2.268   2.430 -3.2615  2.5433  0.4029
   48CHL1    C5 3486   6.321   2.180   2.616 -0.3090  0.3251 -0.2961
   48CHL1    C6 3487   6.393   2.271   2.691  0.1904  0.1241 -0.2324
   48CHL1    H6 3488   6.449   2.346   2.633  1.2351 -0.1955  0.3582
   48CHL1    C7 3489   6.386   2.280   2.836  0.1618  0.5223  0.3497
   48CHL1   H7A 3490   6.490   2.291   2.875  0.0600 -1.0226  1.0893
   48CHL1   H7B 3491   6.333   2.374   2.863 -1.5396 -0.1600 -0.5377
   48CHL1    C8 3492   6.320   2.146   2.892  0.4133 -0.2578 -0.3622
   48CHL1    H8 3493   6.391   2.061   2.879  0.8985  0.3473 -1.8376
   48CHL1   C14 3494   6.283   2.174   3.041  0.0546 -0.6868 -0.1703
   48CHL1   H14 3495   6.211   2.259   3.038  1.1550  0.3274  1.5551
   48CHL1   C15 3496   6.391   2.211   3.127  0.4368  0.2613 -1.2478
   48CHL1  H15A 3497   6.479   2.144   3.112  0.5768  0.1679 -0.0754
   48CHL1  H15B 3498   6.436   2.309   3.102  2.5360  0.2779  2.2299
   48CHL1   C16 3499   6.339   2.196   3.270 -0.1115  0.3835  0.2113
   48CHL1  H16A 3500   6.414   2.163   3.345 -0.4939  2.1553  1.4024
   48CHL1  H16B 3501   6.296   2.292   3.306 -1.8800 -0.1910 -0.3179
   48CHL1   C17 3502   6.215   2.102   3.260  0.3411  0.6388 -1.1591
   48CHL1   H17 3503   6.129   2.168   3.284  1.3842  1.0155  1.7890
   48CHL1   C13 3504   6.219   2.051   3.113  0.0026 -0.3222  0.1976
   48CHL1   C18 3505   6.311   1.930   3.111 -0.0431 -0.0711 -0.4256
   48CHL1  H18A 3506   6.410   1.943   3.160  0.3496  2.1902 -1.7944
   48CHL1  H18B 3507   6.259   1.838   3.146  0.9778 -0.4097  0.2252
   48CHL1  H18C 3508   6.344   1.904   3.008  2.1056 -2.6865  0.8518
   48CHL1   C12 3509   6.081   2.012   3.044 -0.0390 -0.1783 -1.0037
   48CHL1  H12A 3510   6.034   1.921   3.087  0.5166 -1.1250 -2.3645
   48CHL1  H12B 3511   6.004   2.092   3.048  0.7190  0.5507 -0.8567
   48CHL1   C11 3512   6.116   1.996   2.901 -0.5347 -0.5397  0.5685
   48CHL1  H11A 3513   6.167   1.897   2.896  0.0636 -0.1846 -0.4363
   48CHL1  H11B 3514   6.025   1.980   2.838 -2.0939  2.8358  1.8507
   48CHL1    C9 3515   6.193   2.108   2.822  0.0605  0.3673  0.4435
   48CHL1    H9 3516   6.121   2.193   2.822 -0.0465  0.2810  1.1748
   48CHL1   C10 3517   6.221   2.074   2.670  0.8408  0.2774  0.1769
   48CHL1   C19 3518   6.280   1.923   2.660  0.0716  0.1453 -0.0358
   48CHL1  H19A 3519   6.319   1.909   2.557 -0.6190 -0.7319 -0.1752
   48CHL1  H19B 3520   6.365   1.906   2.730  1.4738 -0.5173 -1.8570
   48CHL1  H19C 3521   6.197   1.851   2.669 -0.1075  0.7299  3.6170
   48CHL1    C1 3522   6.096   2.070   2.576 -1.0482  0.3064  0.2440
   48CHL1   H1A 3523   6.036   1.981   2.605  2.6908 -2.1071  1.0109
   48CHL1   H1B 3524   6.038   2.158   2.610 -0.2534  0.4151  1.3709
   48CHL1    C2 3525   6.115   2.089   2.423 -0.2449  0.1961 -0.2897
   48CHL1   H2A 3526   6.007   2.090   2.398 -0.7607 -0.3440  1.7785
   48CHL1   H2B 3527   6.173   2.005   2.379 -0.9760 -0.4110 -0.1111
   48CHL1   C20 3528   6.224   1.989   3.371  0.3621  1.0435  0.2231
   48CHL1   H20 3529   6.308   1.917   3.360 -0.2620  0.2320  0.6987
   48CHL1   C21 3530   6.091   1.911   3.381 -0.3917  0.4999  0.1267
   48CHL1  H21A 3531   6.053   1.855   3.293 -1.9331  3.1100 -0.9303
   48CHL1  H21B 3532   6.016   1.993   3.387 -0.1355  0.6882  0.8709
   48CHL1  H21C 3533   6.087   1.845   3.471 -2.2662  0.7342  0.2424
   48CHL1   C22 3534   6.252   2.032   3.522  0.7442  0.0529  0.2348
   48CHL1  H22A 3535   6.247   1.944   3.589 -0.1410 -0.4652 -0.5062
   48CHL1  H22B 3536   6.356   2.072   3.532  0.5432  0.3178  1.2772
   48CHL1   C23 3537   6.156   2.148   3.580  0.1993  0.7522 -0.1506
   48CHL1  H23A 3538   6.180   2.239   3.519 -1.1525  1.5461  0.4851
   48CHL1  H23B 3539   6.053   2.116   3.553 -0.1390  0.2217  1.7345
   48CHL1   C24 3540   6.160   2.177   3.728 -0.1256 -0.2310 -0.0551
   48CHL1  H24A 3541   6.088   2.256   3.757  1.1648  1.3908 -1.1727
   48CHL1  H24B 3542   6.131   2.083   3.781 -3.0070  1.7165  1.9976
   48CHL1   C25 3543   6.296   2.217   3.783  0.4617 -0.3003 -0.1925
   48CHL1   H25 3544   6.365   2.132   3.762  0.8653 -0.0688  0.1846
   48CHL1   C26 3545   6.344   2.345   3.717 -0.6024 -0.5480 -0.0248
   48CHL1  H26A 3546   6.444   2.377   3.752 -0.2208 -0.6892 -0.9700
   48CHL1  H26B 3547   6.345   2.332   3.606  0.3587 -0.9155  0.0255
   48CHL1  H26C 3548   6.264   2.419   3.738  0.4058  0.8866 -1.0977
   48CHL1   C27 3549   6.277   2.244   3.937 -0.6591  0.0096 -0.2135
   48CHL1  H27A 3550   6.375   2.257   3.988 -1.1902  1.4854  0.4539
   48CHL1  H27B 3551   6.215   2.334   3.954  0.5639  0.9123 -0.4756
   48CHL1  H27C 3552   6.219   2.155   3.971  0.9679 -2.2647 -3.0874
   49CHL1    C3 3553   0.958   6.330   2.244 -0.1755 -0.1215  0.5127
   49CHL1    H3 3554   1.069   6.339   2.249 -0.1279 -1.3303  2.1427
   49CHL1    O3 3555   0.911   6.386   2.118 -0.5078  0.5455  0.8512
   49CHL1   H3' 3556   0.817   6.380   2.134 -0.3924 -1.8526  0.7335
   49CHL1    C4 3557   0.909   6.182   2.248 -0.0612  0.3040 -0.5937
   49CHL1   H4A 3558   0.799   6.187   2.239 -0.5240 -4.0378  1.7368
   49CHL1   H4B 3559   0.935   6.122   2.158 -3.0986 -0.7655 -0.8069
   49CHL1    C5 3560   0.926   6.106   2.376 -0.0613  0.2766 -0.4836
   49CHL1    C6 3561   0.982   5.980   2.390  0.2651 -0.4153  0.9562
   49CHL1    H6 3562   1.030   5.928   2.306 -0.7026  0.8892 -0.4325
   49CHL1    C7 3563   0.990   5.916   2.525  0.5783  0.5872  0.9380
   49CHL1   H7A 3564   0.984   5.807   2.505 -1.0136  0.9537 -0.6934
   49CHL1   H7B 3565   1.097   5.931   2.553  1.3878  3.7301 -3.3604
   49CHL1    C8 3566   0.894   5.974   2.632 -0.2080  0.3485 -0.3743
   49CHL1    H8 3567   0.793   5.936   2.606 -0.2594  1.0680 -1.2476
   49CHL1   C14 3568   0.930   5.914   2.762 -0.1345  0.1248  0.6828
   49CHL1   H14 3569   1.026   5.965   2.786 -1.7902  1.6029  4.4132
   49CHL1   C15 3570   0.964   5.762   2.776  0.9051 -0.5499 -0.0935
   49CHL1  H15A 3571   0.890   5.696   2.725  0.9529  0.4525 -1.4876
   49CHL1  H15B 3572   1.059   5.733   2.727 -0.5747 -0.4294 -3.1676
   49CHL1   C16 3573   0.957   5.734   2.930  0.2747 -0.7013 -0.4877
   49CHL1  H16A 3574   0.879   5.657   2.944  1.3274 -1.9303 -1.2642
   49CHL1  H16B 3575   1.053   5.706   2.979 -0.1240 -0.0939  0.6518
   49CHL1   C17 3576   0.913   5.870   2.993 -0.0178 -0.3945  0.4611
   49CHL1   H17 3577   1.013   5.916   3.009 -0.5779  0.8803  0.3033
   49CHL1   C13 3578   0.842   5.946   2.880  0.3378 -0.5019 -0.8437
   49CHL1   C18 3579   0.693   5.897   2.856 -0.7526 -0.0654  0.2085
   49CHL1  H18A 3580   0.627   5.918   2.943 -1.3310  0.3534 -0.3219
   49CHL1  H18B 3581   0.646   5.944   2.767 -1.0942 -0.1953  0.3198
   49CHL1  H18C 3582   0.684   5.788   2.836  4.7096 -1.1202  2.7890
   49CHL1   C12 3583   0.849   6.102   2.898  0.3395 -0.6481  0.1538
   49CHL1  H12A 3584   0.781   6.137   2.979 -2.1081 -1.2225 -1.5984
   49CHL1  H12B 3585   0.954   6.136   2.916 -0.2248  0.3501  1.6907
   49CHL1   C11 3586   0.813   6.180   2.765  0.0058  0.3352 -0.4468
   49CHL1  H11A 3587   0.705   6.156   2.755 -0.5539  1.8676  1.6945
   49CHL1  H11B 3588   0.816   6.290   2.777 -1.5040  0.3658 -0.2629
   49CHL1    C9 3589   0.896   6.126   2.642 -0.2066  0.1112 -0.6411
   49CHL1    H9 3590   1.001   6.155   2.662  0.3402 -1.6320 -0.8899
   49CHL1   C10 3591   0.857   6.185   2.500  0.2832  0.1658  0.0314
   49CHL1   C19 3592   0.702   6.187   2.495 -0.4968 -0.4763  0.0145
   49CHL1  H19A 3593   0.662   6.263   2.566 -2.5221 -1.0432 -0.4933
   49CHL1  H19B 3594   0.668   6.218   2.394 -1.8474  0.7883  0.8316
   49CHL1  H19C 3595   0.655   6.089   2.518 -1.6547  0.4419  1.6747
   49CHL1    C1 3596   0.919   6.325   2.488 -0.5132 -0.5318  0.1275
   49CHL1   H1A 3597   0.877   6.387   2.571 -0.6282 -2.6158  1.6593
   49CHL1   H1B 3598   1.027   6.315   2.513 -0.4717 -2.0027 -0.6307
   49CHL1    C2 3599   0.890   6.405   2.359 -0.2362 -0.0732 -0.0951
   49CHL1   H2A 3600   0.926   6.510   2.347  1.4866 -0.7940 -1.2795
   49CHL1   H2B 3601   0.779   6.408   2.350 -0.1224 -1.4295 -2.2367
   49CHL1   C20 3602   0.843   5.871   3.130  0.0810 -0.3203  0.1587
   49CHL1   H20 3603   0.779   5.962   3.131  1.5754  0.7589 -0.1478
   49CHL1   C21 3604   0.955   5.880   3.244  0.7281 -0.2335 -0.7549
   49CHL1  H21A 3605   1.018   5.790   3.226 -1.8481 -2.4095  0.6429
   49CHL1  H21B 3606   0.924   5.888   3.350  4.0748  2.7974  0.0534
   49CHL1  H21C 3607   1.019   5.967   3.221  0.4425  0.7857  2.1245
   49CHL1   C22 3608   0.755   5.752   3.152 -0.2943  0.1324  0.3141
   49CHL1  H22A 3609   0.683   5.751   3.067  1.3073  0.7280 -1.0847
   49CHL1  H22B 3610   0.807   5.654   3.160 -0.9321 -0.1402  1.1338
   49CHL1   C23 3611   0.662   5.783   3.271 -0.0982 -0.4559  0.2824
   49CHL1  H23A 3612   0.721   5.778   3.364  1.2422 -3.0106 -0.6538
   49CHL1  H23B 3613   0.631   5.890   3.263 -1.1758 -0.6755  1.3012
   49CHL1   C24 3614   0.538   5.695   3.267 -0.5688  0.3955 -0.2227
   49CHL1  H24A 3615   0.488   5.720   3.171  2.1352 -0.8509 -2.0326
   49CHL1  H24B 3616   0.570   5.589   3.274  0.1200  0.6618  0.8106
   49CHL1   C25 3617   0.450   5.754   3.376 -0.0267  1.1374  0.1704
   49CHL1   H25 3618   0.438   5.864   3.370  1.1432  1.2065 -1.2525
   49CHL1   C26 3619   0.316   5.679   3.365 -0.3427  0.0228  0.3901
   49CHL1  H26A 3620   0.250   5.702   3.452  0.8754 -2.5652  2.0679
   49CHL1  H26B 3621   0.261   5.697   3.270 -0.0913 -2.3358 -0.2231
   49CHL1  H26C 3622   0.330   5.570   3.353  1.0509  0.3381 -0.9464
   49CHL1   C27 3623   0.498   5.718   3.516 -0.2929  0.3524  0.5087
   49CHL1  H27A 3624   0.424   5.752   3.591 -2.1853  1.3877 -1.7383
   49CHL1  H27B 3625   0.506   5.608   3.526 -0.7423  0.2230 -0.4934
   49CHL1  H27C 3626   0.600   5.757   3.534 -0.3806  0.5153  0.6526
   50CHL1    C3 3627   5.232   6.777   2.261  0.3546  0.0261  0.1420
   50CHL1    H3 3628   5.187   6.878   2.271 -0.7060  0.0759 -4.1584
   50CHL1    O3 3629   5.251   6.733   2.124 -0.0776 -0.0970 -0.7873
   50CHL1   H3' 3630   5.275   6.640   2.132 -1.1783 -0.5077 -2.1951
   50CHL1    C4 3631   5.369   6.774   2.328 -0.8929 -0.1517  0.2541
   50CHL1   H4A 3632   5.404   6.669   2.332  0.8310  0.4014  0.4356
   50CHL1   H4B 3633   5.450   6.831   2.277 -1.7826 -0.6302 -1.7665
   50CHL1    C5 3634   5.349   6.815   2.472 -0.0924 -0.7740  0.0385
   50CHL1    C6 3635   5.424   6.918   2.524  0.2539  0.7090  0.2673
   50CHL1    H6 3636   5.506   6.965   2.469 -0.1162  2.0450  0.8296
   50CHL1    C7 3637   5.420   6.952   2.672  0.2109 -0.2262 -0.3730
   50CHL1   H7A 3638   5.520   6.977   2.715 -0.0585  0.9538 -0.4308
   50CHL1   H7B 3639   5.368   7.048   2.685 -0.3514 -0.4117 -1.2126
   50CHL1    C8 3640   5.344   6.852   2.755 -0.2584  0.0413  0.2614
   50CHL1    H8 3641   5.406   6.761   2.773  0.0485  0.3587  0.8081
   50CHL1   C14 3642   5.294   6.909   2.882 -0.3828  0.2351 -0.5855
   50CHL1   H14 3643   5.236   6.997   2.847  0.8742  1.0338 -0.7223
   50CHL1   C15 3644   5.396   6.971   2.975 -0.3810 -0.2677 -0.6959
   50CHL1  H15A 3645   5.477   6.896   2.988 -0.7598 -0.2371  2.1338
   50CHL1  H15B 3646   5.443   7.058   2.925 -2.2933  0.8530 -0.5575
   50CHL1   C16 3647   5.326   7.004   3.105 -0.2762 -0.1562 -0.4256
   50CHL1  H16A 3648   5.393   6.978   3.190 -1.0072 -0.2053  0.1430
   50CHL1  H16B 3649   5.312   7.112   3.129 -0.7524  0.0397 -1.5782
   50CHL1   C17 3650   5.184   6.920   3.100 -0.3831 -0.7881 -0.3687
   50CHL1   H17 3651   5.115   6.997   3.058  0.0435 -0.3472 -0.2718
   50CHL1   C13 3652   5.204   6.829   2.971  0.5143 -0.5267 -0.0044
   50CHL1   C18 3653   5.284   6.708   3.022  0.2386 -0.2993  0.3627
   50CHL1  H18A 3654   5.355   6.738   3.102 -0.1826  1.5025  0.0934
   50CHL1  H18B 3655   5.217   6.627   3.059  0.6894 -1.3139 -0.9899
   50CHL1  H18C 3656   5.328   6.657   2.934  0.0226  0.0195  0.0650
   50CHL1   C12 3657   5.072   6.792   2.899 -0.0896 -0.0197  0.5158
   50CHL1  H12A 3658   5.018   6.725   2.969 -0.0396 -0.2625  0.3225
   50CHL1  H12B 3659   5.016   6.885   2.875 -1.4103 -0.5255  1.5960
   50CHL1   C11 3660   5.118   6.718   2.776 -0.2237 -0.3062 -0.6295
   50CHL1  H11A 3661   5.145   6.614   2.802  0.4448  0.3339  1.3382
   50CHL1  H11B 3662   5.028   6.705   2.712  0.1852 -2.8742 -0.7399
   50CHL1    C9 3663   5.211   6.804   2.685  0.8225 -0.3044  0.1753
   50CHL1    H9 3664   5.153   6.894   2.656  1.5003  0.0278 -0.1657
   50CHL1   C10 3665   5.240   6.732   2.551  0.5532 -0.5409 -0.0523
   50CHL1   C19 3666   5.296   6.593   2.570  0.0361  0.3879  0.4938
   50CHL1  H19A 3667   5.226   6.537   2.636 -1.8004  2.1112  0.0202
   50CHL1  H19B 3668   5.316   6.548   2.471  1.6558  1.4616  0.3107
   50CHL1  H19C 3669   5.390   6.589   2.630 -2.1204  1.4743  4.1242
   50CHL1    C1 3670   5.108   6.717   2.471 -0.6677  0.2464  0.2297
   50CHL1   H1A 3671   5.049   6.632   2.512 -0.2704 -0.7770 -1.2826
   50CHL1   H1B 3672   5.048   6.808   2.495 -0.7001  0.5004 -0.8207
   50CHL1    C2 3673   5.127   6.681   2.321  0.1855  0.3629 -0.1448
   50CHL1   H2A 3674   5.030   6.688   2.267  0.3615  2.6079 -0.2087
   50CHL1   H2B 3675   5.161   6.576   2.307 -1.8197 -0.5710  1.7242
   50CHL1   C20 3676   5.136   6.864   3.234 -0.4398  0.5696  0.5737
   50CHL1   H20 3677   5.215   6.802   3.282  0.4168  1.3154  0.1510
   50CHL1   C21 3678   5.012   6.781   3.222 -0.4925  0.0622 -0.1064
   50CHL1  H21A 3679   4.985   6.743   3.323  0.9264  0.0430  0.2834
   50CHL1  H21B 3680   5.054   6.686   3.181  0.2777  0.0611  0.6601
   50CHL1  H21C 3681   4.921   6.812   3.167  0.0591 -1.0502 -1.6723
   50CHL1   C22 3682   5.107   6.974   3.337  0.3942  0.6485  0.3152
   50CHL1  H22A 3683   5.200   7.036   3.343  0.9110  0.4176 -3.9112
   50CHL1  H22B 3684   5.018   7.033   3.307 -1.2837 -1.0924  1.8040
   50CHL1   C23 3685   5.086   6.919   3.480 -0.0722  0.0143  0.0009
   50CHL1  H23A 3686   4.996   6.855   3.486  0.0338 -0.2722 -1.3335
   50CHL1  H23B 3687   5.180   6.864   3.504 -1.3201 -3.0145 -1.8181
   50CHL1   C24 3688   5.070   7.028   3.592 -0.2542  0.7728  0.5241
   50CHL1  H24A 3689   5.170   7.075   3.597 -0.0155  0.8481 -3.2275
   50CHL1  H24B 3690   4.996   7.103   3.556 -0.0693 -0.1025 -1.7908
   50CHL1   C25 3691   5.017   6.968   3.724  0.3128 -0.5640  0.7374
   50CHL1   H25 3692   4.926   6.910   3.698  1.2735 -2.5843  1.7614
   50CHL1   C26 3693   5.116   6.871   3.784  0.2105 -0.0477  0.1487
   50CHL1  H26A 3694   5.074   6.809   3.866 -1.0275 -0.0205 -0.4489
   50CHL1  H26B 3695   5.145   6.793   3.710  2.5987  1.6754 -0.7645
   50CHL1  H26C 3696   5.206   6.918   3.828  1.0324 -0.7040 -0.8081
   50CHL1   C27 3697   4.989   7.077   3.831 -0.7907  0.0106  0.6049
   50CHL1  H27A 3698   4.922   7.161   3.802  1.0464  1.0291 -0.8133
   50CHL1  H27B 3699   4.954   7.024   3.922  1.9458 -1.7510  0.6806
   50CHL1  H27C 3700   5.084   7.128   3.860 -0.8081  0.9113 -0.8564
   51CHL1    C3 3701   1.112   7.019   2.339  0.8775 -0.7326  0.2247
   51CHL1    H3 3702   1.180   7.103   2.362  1.4328 -0.5443 -1.9813
   51CHL1    O3 3703   1.075   7.013   2.201  0.2013  0.1765  0.3049
   51CHL1   H3' 3704   1.007   6.946   2.195 -1.1561  0.9708  4.7294
   51CHL1    C4 3705   1.183   6.888   2.376  0.2719  0.1911  0.3527
   51CHL1   H4A 3706   1.115   6.805   2.346  0.8196 -1.0125  2.3076
   51CHL1   H4B 3707   1.277   6.878   2.319  0.9887 -1.8223  1.8261
   51CHL1    C5 3708   1.212   6.881   2.522 -0.0164  0.2014  0.4528
   51CHL1    C6 3709   1.336   6.867   2.560  0.0914 -0.0991 -0.6141
   51CHL1    H6 3710   1.407   6.855   2.476  1.0272  0.7131  0.0496
   51CHL1    C7 3711   1.382   6.867   2.700  0.5346 -0.8193 -0.2159
   51CHL1   H7A 3712   1.445   6.778   2.720 -1.1586 -1.8865  0.4390
   51CHL1   H7B 3713   1.453   6.953   2.706 -0.8506  0.2595  1.2308
   51CHL1    C8 3714   1.265   6.861   2.801  0.0641 -0.5240 -0.0931
   51CHL1    H8 3715   1.235   6.755   2.813 -0.4035 -0.1740  2.1190
   51CHL1   C14 3716   1.304   6.907   2.940 -0.1613 -0.4093  0.7306
   51CHL1   H14 3717   1.313   7.017   2.949 -1.7550 -0.3116  1.3848
   51CHL1   C15 3718   1.434   6.853   3.001 -0.3100 -0.7082 -0.5695
   51CHL1  H15A 3719   1.432   6.744   2.978 -0.3958 -1.7232  3.7151
   51CHL1  H15B 3720   1.515   6.910   2.951  0.4164 -1.4284 -0.2223
   51CHL1   C16 3721   1.423   6.889   3.156  0.5482  0.6526 -0.2075
   51CHL1  H16A 3722   1.437   6.796   3.215  0.7528  1.9414  1.8346
   51CHL1  H16B 3723   1.498   6.964   3.190 -1.3734  2.8058 -0.5407
   51CHL1   C17 3724   1.278   6.942   3.179 -0.2846  0.3765  0.7894
   51CHL1   H17 3725   1.284   7.052   3.162 -3.8412  0.1293 -2.8201
   51CHL1   C13 3726   1.203   6.892   3.053  0.2011 -0.6886 -0.6229
   51CHL1   C18 3727   1.147   6.748   3.078 -0.7403  0.1114  0.3184
   51CHL1  H18A 3728   1.231   6.690   3.119 -1.3980  0.6209  2.4570
   51CHL1  H18B 3729   1.062   6.745   3.150  0.7237  1.0601  2.1076
   51CHL1  H18C 3730   1.118   6.703   2.980  0.9648 -0.7365  0.1843
   51CHL1   C12 3731   1.081   6.979   3.009  0.0856  0.8703  0.6763
   51CHL1  H12A 3732   1.002   6.952   3.082 -0.0178  1.6174  0.8499
   51CHL1  H12B 3733   1.118   7.083   3.022  4.1572 -0.5904  1.4002
   51CHL1   C11 3734   1.027   6.945   2.870 -0.1191 -0.1436  0.2185
   51CHL1  H11A 3735   0.977   6.846   2.876  1.1530 -0.6657  3.3808
   51CHL1  H11B 3736   0.944   7.014   2.844 -0.7027 -0.9107  0.0515
   51CHL1    C9 3737   1.140   6.933   2.757  0.1367  0.1834  0.1719
   51CHL1    H9 3738   1.182   7.036   2.747 -0.5928  0.4190 -0.5607
   51CHL1   C10 3739   1.089   6.908   2.608 -0.4807 -0.3631 -1.0547
   51CHL1   C19 3740   1.006   6.782   2.602  0.1371  0.1431 -0.4703
   51CHL1  H19A 3741   0.980   6.750   2.499 -1.5867  0.0063  0.0079
   51CHL1  H19B 3742   1.055   6.689   2.640 -1.9990  0.2519  2.6924
   51CHL1  H19C 3743   0.913   6.802   2.659 -0.1103  0.3632 -0.9540
   51CHL1    C1 3744   1.006   7.032   2.569  0.2251 -0.4227  0.2593
   51CHL1   H1A 3745   0.909   7.045   2.621  0.6794 -1.9899  1.5192
   51CHL1   H1B 3746   1.068   7.123   2.589 -1.4928  1.4836 -2.6033
   51CHL1    C2 3747   0.985   7.027   2.419  0.3217 -1.0732  0.3618
   51CHL1   H2A 3748   0.910   7.106   2.396  0.9907  0.1870  2.3545
   51CHL1   H2B 3749   0.926   6.936   2.395 -2.3052  0.9282 -1.1645
   51CHL1   C20 3750   1.234   6.908   3.320 -0.5696 -0.7097  0.4065
   51CHL1   H20 3751   1.197   6.807   3.346 -2.4930 -0.7527 -2.3113
   51CHL1   C21 3752   1.111   7.002   3.346 -0.3883  0.1740 -0.4332
   51CHL1  H21A 3753   1.082   6.998   3.453 -0.4968 -0.5132 -0.4817
   51CHL1  H21B 3754   1.023   6.959   3.294 -0.2746 -0.5650 -0.0294
   51CHL1  H21C 3755   1.133   7.100   3.298  2.0014 -0.0411  0.1187
   51CHL1   C22 3756   1.355   6.921   3.425  0.3359  0.1154  0.6792
   51CHL1  H22A 3757   1.424   6.835   3.411 -3.3384 -2.7700 -0.2908
   51CHL1  H22B 3758   1.410   7.016   3.404  0.1693  0.4526  1.7335
   51CHL1   C23 3759   1.310   6.908   3.573  0.6762  0.4593  0.2589
   51CHL1  H23A 3760   1.255   7.000   3.604 -0.5482  0.2562 -1.2434
   51CHL1  H23B 3761   1.236   6.825   3.579  1.6439 -0.4590 -0.3235
   51CHL1   C24 3762   1.419   6.874   3.677  0.2166 -0.4135 -1.1044
   51CHL1  H24A 3763   1.472   6.784   3.640  2.2396  1.0378 -1.8276
   51CHL1  H24B 3764   1.489   6.959   3.691 -0.4855 -0.3085  2.3440
   51CHL1   C25 3765   1.364   6.830   3.815 -1.0555  0.3617  0.5884
   51CHL1   H25 3766   1.313   6.733   3.794 -0.9009 -0.1198  2.3314
   51CHL1   C26 3767   1.480   6.798   3.916  0.8514  0.5344  0.2111
   51CHL1  H26A 3768   1.530   6.895   3.937  1.0169  0.1525  1.6243
   51CHL1  H26B 3769   1.444   6.753   4.011 -1.0849  0.5175 -0.4983
   51CHL1  H26C 3770   1.542   6.723   3.864  0.2010  1.1205 -1.4421
   51CHL1   C27 3771   1.277   6.930   3.896  0.8275 -0.3840 -0.1620
   51CHL1  H27A 3772   1.244   6.881   3.990 -0.4526  1.1190  0.1816
   51CHL1  H27B 3773   1.333   7.020   3.928 -1.8608  1.0744  0.6037
   51CHL1  H27C 3774   1.197   6.953   3.822 -0.1629 -0.2620  0.9177
   52CHL1    C3 3775   6.563   0.551   2.269  0.9054 -0.4955 -0.8331
   52CHL1    H3 3776   6.559   0.440   2.268  1.3131 -0.5211 -0.3048
   52CHL1    O3 3777   6.578   0.581   2.133 -0.2865  0.1305  0.1108
   52CHL1   H3' 3778   6.594   0.676   2.134 -0.7664  0.2111  0.3906
   52CHL1    C4 3779   6.425   0.605   2.318  0.1555 -0.6995 -0.3134
   52CHL1   H4A 3780   6.434   0.715   2.304  2.1780 -1.1175 -2.7587
   52CHL1   H4B 3781   6.344   0.570   2.251  1.8787 -1.7162 -1.8987
   52CHL1    C5 3782   6.406   0.568   2.459  0.6438 -0.6625  0.4147
   52CHL1    C6 3783   6.296   0.504   2.494  0.2275 -0.6121  0.3689
   52CHL1    H6 3784   6.219   0.491   2.416 -0.0815 -1.4156  0.8033
   52CHL1    C7 3785   6.254   0.468   2.636  0.0147 -0.2873  0.5851
   52CHL1   H7A 3786   6.153   0.504   2.667  0.3983  0.4771  0.9475
   52CHL1   H7B 3787   6.266   0.358   2.640  0.9838 -0.2249 -0.2441
   52CHL1    C8 3788   6.349   0.535   2.739 -0.1811 -0.4282 -0.4497
   52CHL1    H8 3789   6.324   0.643   2.742  0.2148 -0.3541  0.3651
   52CHL1   C14 3790   6.332   0.469   2.877 -0.1597 -0.5606  0.4718
   52CHL1   H14 3791   6.375   0.370   2.850 -1.2777 -1.4487  1.9023
   52CHL1   C15 3792   6.190   0.450   2.927 -0.8986  0.0468  0.2021
   52CHL1  H15A 3793   6.113   0.526   2.901 -0.8301 -0.2814 -0.9853
   52CHL1  H15B 3794   6.152   0.362   2.872 -2.0952  0.8022 -0.2117
   52CHL1   C16 3795   6.205   0.428   3.084 -0.9049 -0.3362 -0.3507
   52CHL1  H16A 3796   6.146   0.506   3.136 -1.2905  0.6398 -2.1987
   52CHL1  H16B 3797   6.185   0.324   3.119 -0.4016 -0.4018 -0.2453
   52CHL1   C17 3798   6.365   0.448   3.109 -0.5318 -0.7847  0.1001
   52CHL1   H17 3799   6.395   0.342   3.117 -0.4380 -0.5777  2.9107
   52CHL1   C13 3800   6.414   0.527   2.990  0.0330 -0.8127  0.1847
   52CHL1   C18 3801   6.374   0.676   3.019  0.8766 -0.1787  0.3148
   52CHL1  H18A 3802   6.400   0.749   2.939 -2.9086  2.4020  1.2911
   52CHL1  H18B 3803   6.264   0.679   3.034  0.8610  0.1919  0.1201
   52CHL1  H18C 3804   6.437   0.709   3.105  0.0004 -1.0946  1.3251
   52CHL1   C12 3805   6.565   0.513   2.956 -0.4926 -0.2258  0.0596
   52CHL1  H12A 3806   6.615   0.563   3.042 -1.3198  1.4970 -0.4311
   52CHL1  H12B 3807   6.585   0.404   2.946 -0.2616 -0.0493 -1.5497
   52CHL1   C11 3808   6.592   0.586   2.818  0.2240  0.2681 -0.4772
   52CHL1  H11A 3809   6.556   0.691   2.827  1.5085  0.7123 -0.4838
   52CHL1  H11B 3810   6.699   0.585   2.789 -0.3755  2.5146 -3.0009
   52CHL1    C9 3811   6.501   0.529   2.703 -0.5675 -0.5012  0.2589
   52CHL1    H9 3812   6.536   0.427   2.678  0.4300 -0.0476 -0.2342
   52CHL1   C10 3813   6.526   0.603   2.560  0.4020 -0.0491 -0.5693
   52CHL1   C19 3814   6.527   0.758   2.574 -0.3752 -0.4732  0.3241
   52CHL1  H19A 3815   6.613   0.782   2.641  0.4015 -0.1681 -0.7499
   52CHL1  H19B 3816   6.553   0.819   2.485  0.6342  0.5949  1.3173
   52CHL1  H19C 3817   6.438   0.809   2.616 -0.4651  0.6614 -1.1771
   52CHL1    C1 3818   6.657   0.558   2.501  0.0273 -0.3245  0.2762
   52CHL1   H1A 3819   6.741   0.601   2.559  0.0835  0.0580 -0.0865
   52CHL1   H1B 3820   6.661   0.448   2.512 -0.6764 -0.3614  0.2089
   52CHL1    C2 3821   6.685   0.597   2.354 -0.5784  1.1883 -0.0456
   52CHL1   H2A 3822   6.774   0.543   2.315  0.3079  2.1089  0.6820
   52CHL1   H2B 3823   6.690   0.708   2.351  1.3720  1.3013  4.2687
   52CHL1   C20 3824   6.390   0.493   3.257  0.9495  0.3828 -0.1991
   52CHL1   H20 3825   6.363   0.601   3.264 -2.8474 -0.5679  0.5473
   52CHL1   C21 3826   6.550   0.478   3.284  0.2732 -0.4645  0.4371
   52CHL1  H21A 3827   6.576   0.379   3.240  2.7595 -0.0111  0.8028
   52CHL1  H21B 3828   6.575   0.480   3.392  0.2468 -1.7409  0.4762
   52CHL1  H21C 3829   6.611   0.557   3.235  2.0708 -1.4971  0.9601
   52CHL1   C22 3830   6.303   0.419   3.362  0.6518  0.0602  0.6299
   52CHL1  H22A 3831   6.195   0.443   3.351  0.3181 -0.9740  1.6141
   52CHL1  H22B 3832   6.297   0.310   3.337 -1.1328  0.2388  0.1875
   52CHL1   C23 3833   6.345   0.439   3.503  0.5523 -0.7221 -0.5018
   52CHL1  H23A 3834   6.444   0.388   3.508  0.1174 -1.5239 -0.0060
   52CHL1  H23B 3835   6.366   0.547   3.520 -0.1906 -0.6203 -0.1980
   52CHL1   C24 3836   6.249   0.386   3.608 -0.2372  0.1689 -0.5676
   52CHL1  H24A 3837   6.151   0.428   3.575  0.3666  2.5778  0.6064
   52CHL1  H24B 3838   6.246   0.275   3.595  1.0069 -0.2231  2.0694
   52CHL1   C25 3839   6.274   0.424   3.755  0.3664  0.2795 -0.5635
   52CHL1   H25 3840   6.252   0.532   3.763  0.1699  0.3061 -1.3962
   52CHL1   C26 3841   6.178   0.353   3.847  1.2586  0.1642  0.3636
   52CHL1  H26A 3842   6.075   0.366   3.808  0.3248 -2.3523  1.8881
   52CHL1  H26B 3843   6.189   0.244   3.860  0.9870  0.2318  1.1441
   52CHL1  H26C 3844   6.192   0.406   3.944  1.1382  1.9049 -0.5370
   52CHL1   C27 3845   6.419   0.402   3.806 -0.4334 -0.5560  0.4597
   52CHL1  H27A 3846   6.460   0.305   3.771  1.1159  0.3272 -0.2293
   52CHL1  H27B 3847   6.484   0.478   3.758 -0.2992  0.8704  2.7874
   52CHL1  H27C 3848   6.423   0.411   3.917 -0.2519  2.0104  0.2659
   53CHL1    C3 3849   1.744   7.134   2.372 -0.4863 -0.4588 -0.3808
   53CHL1    H3 3850   1.642   7.176   2.356  0.7238  3.2558  0.9356
   53CHL1    O3 3851   1.789   7.088   2.246 -0.0539  0.0012  0.1617
   53CHL1   H3' 3852   1.843   7.015   2.276  1.6826  0.3649 -1.9762
   53CHL1    C4 3853   1.841   7.246   2.429 -0.7151  0.3248 -0.6055
   53CHL1   H4A 3854   1.940   7.194   2.428 -0.0194  1.6288 -0.1405
   53CHL1   H4B 3855   1.852   7.329   2.357  0.2490 -0.9277 -1.9535
   53CHL1    C5 3856   1.817   7.290   2.569  0.3810  0.3053  0.6728
   53CHL1    C6 3857   1.796   7.417   2.603  0.6208 -0.1271 -0.6129
   53CHL1    H6 3858   1.799   7.493   2.523 -0.6617  2.9252  2.1393
   53CHL1    C7 3859   1.773   7.452   2.747  0.2822 -0.9785 -0.0683
   53CHL1   H7A 3860   1.834   7.542   2.767 -0.5623 -0.4013 -0.0825
   53CHL1   H7B 3861   1.669   7.482   2.770  0.6571 -0.2205  0.6505
   53CHL1    C8 3862   1.823   7.342   2.849  0.4022 -0.1868  0.3876
   53CHL1    H8 3863   1.933   7.335   2.835  0.2540 -3.3101  0.4340
   53CHL1   C14 3864   1.782   7.373   2.993 -0.4447  0.2982  0.1847
   53CHL1   H14 3865   1.673   7.393   2.990 -0.4941 -0.0399 -0.2987
   53CHL1   C15 3866   1.834   7.504   3.050  0.2328 -0.0116  0.1458
   53CHL1  H15A 3867   1.943   7.505   3.030  0.2638 -1.0781  0.2041
   53CHL1  H15B 3868   1.784   7.592   3.004  0.7150 -0.2729 -0.8983
   53CHL1   C16 3869   1.817   7.480   3.203 -0.1001 -0.6154  0.3738
   53CHL1  H16A 3870   1.915   7.483   3.254  0.6958 -1.4523 -1.0447
   53CHL1  H16B 3871   1.741   7.543   3.253 -3.9301 -3.0530 -2.0526
   53CHL1   C17 3872   1.761   7.334   3.231  0.4609 -0.1401 -0.6328
   53CHL1   H17 3873   1.652   7.349   3.219  0.4225 -0.5243 -0.7699
   53CHL1   C13 3874   1.809   7.265   3.102  0.6809  0.3853  1.2973
   53CHL1   C18 3875   1.964   7.241   3.103 -0.0686  0.1305 -0.7166
   53CHL1  H18A 3876   2.019   7.326   3.149 -2.5837  1.5360 -0.2169
   53CHL1  H18B 3877   1.984   7.148   3.161  0.8446  1.2011  0.7211
   53CHL1  H18C 3878   2.010   7.220   3.004  1.8876  1.2695 -0.0761
   53CHL1   C12 3879   1.728   7.139   3.056 -0.0293  0.8973  0.1569
   53CHL1  H12A 3880   1.744   7.049   3.120 -0.4671  0.9907  0.4005
   53CHL1  H12B 3881   1.619   7.164   3.055  0.1002  1.7407  3.1389
   53CHL1   C11 3882   1.781   7.098   2.919 -0.5325  0.3420 -0.3998
   53CHL1  H11A 3883   1.886   7.063   2.928 -1.5502 -2.6994  0.2666
   53CHL1  H11B 3884   1.720   7.008   2.896 -0.5414 -0.3861  2.3601
   53CHL1    C9 3885   1.764   7.206   2.808  0.5203  0.4232 -0.2318
   53CHL1    H9 3886   1.654   7.222   2.804  0.4531  0.1341  0.3692
   53CHL1   C10 3887   1.807   7.168   2.667 -0.0354 -0.0296 -0.2614
   53CHL1   C19 3888   1.937   7.084   2.678 -0.4582 -0.2388  0.4135
   53CHL1  H19A 3889   2.012   7.142   2.737  0.8147 -0.7209 -0.7207
   53CHL1  H19B 3890   1.907   6.986   2.722 -0.6584 -0.4730 -0.2356
   53CHL1  H19C 3891   1.977   7.067   2.576 -3.7915  0.0548 -0.9934
   53CHL1    C1 3892   1.694   7.060   2.609  0.0407 -0.3630  0.2064
   53CHL1   H1A 3893   1.690   6.968   2.671 -0.9523 -1.1954 -1.0467
   53CHL1   H1B 3894   1.599   7.117   2.617 -0.6428 -1.3212 -0.8361
   53CHL1    C2 3895   1.729   7.012   2.464  0.1268  0.3791  0.5052
   53CHL1   H2A 3896   1.648   6.949   2.423 -1.4184  1.4544  1.8600
   53CHL1   H2B 3897   1.822   6.951   2.474 -0.0227 -0.1382 -1.1497
   53CHL1   C20 3898   1.803   7.280   3.369 -0.0013 -0.3757 -0.7005
   53CHL1   H20 3899   1.905   7.236   3.364 -0.2604 -0.9045 -1.3467
   53CHL1   C21 3900   1.698   7.168   3.400  0.6694  0.2305 -0.2224
   53CHL1  H21A 3901   1.745   7.122   3.489  0.0223 -0.6634 -0.3361
   53CHL1  H21B 3902   1.695   7.087   3.324  1.1360 -0.8016  0.8505
   53CHL1  H21C 3903   1.596   7.213   3.407  0.2814 -0.7343  0.4620
   53CHL1   C22 3904   1.794   7.384   3.488 -0.5452  0.3954  0.1249
   53CHL1  H22A 3905   1.854   7.473   3.462  1.1485 -0.4145  1.1640
   53CHL1  H22B 3906   1.686   7.408   3.495 -0.2466  2.0740 -0.7285
   53CHL1   C23 3907   1.857   7.336   3.621 -0.0491  0.6143 -0.1837
   53CHL1  H23A 3908   1.785   7.263   3.663 -0.1534 -0.2696 -1.8522
   53CHL1  H23B 3909   1.953   7.285   3.600  0.4599  0.3536  2.6735
   53CHL1   C24 3910   1.874   7.448   3.721  0.9369 -0.2859 -0.3418
   53CHL1  H24A 3911   1.961   7.515   3.702  1.1848 -0.8324 -1.1677
   53CHL1  H24B 3912   1.790   7.521   3.708 -2.3452 -4.0931 -1.5763
   53CHL1   C25 3913   1.873   7.407   3.868 -0.7184 -0.2615 -0.7155
   53CHL1   H25 3914   1.785   7.340   3.878  0.4338 -1.6341  0.4387
   53CHL1   C26 3915   1.997   7.331   3.919  0.2324 -0.3139  0.6723
   53CHL1  H26A 3916   2.087   7.393   3.896  0.3702 -0.4115  0.9447
   53CHL1  H26B 3917   2.005   7.312   4.028 -0.6987 -0.7182  0.6717
   53CHL1  H26C 3918   2.005   7.235   3.863 -0.0245  0.3881 -0.5763
   53CHL1   C27 3919   1.843   7.527   3.955  0.7190 -0.1291  0.0565
   53CHL1  H27A 3920   1.833   7.504   4.063  1.2969  1.7715  0.5321
   53CHL1  H27B 3921   1.922   7.603   3.936  1.0811 -0.6401 -0.4922
   53CHL1  H27C 3922   1.745   7.571   3.927  0.5675  0.3419  1.2859
   54CHL1    C3 3923   0.615   6.812   2.327 -0.0214  0.1575 -0.4774
   54CHL1    H3 3924   0.717   6.770   2.342 -0.4160 -1.5979 -2.5639
   54CHL1    O3 3925   0.586   6.835   2.194  0.0665 -0.0237  0.3098
   54CHL1   H3' 3926   0.508   6.890   2.193  0.6821  0.8669  0.5033
   54CHL1    C4 3927   0.516   6.708   2.380  0.9217 -0.4858 -0.2615
   54CHL1   H4A 3928   0.417   6.759   2.380  0.3799 -1.5324 -0.4090
   54CHL1   H4B 3929   0.516   6.625   2.307 -0.6439 -0.5096 -0.2492
   54CHL1    C5 3930   0.553   6.675   2.521 -0.1039 -0.4179 -0.4895
   54CHL1    C6 3931   0.575   6.552   2.561 -0.0631 -0.0405  0.1563
   54CHL1    H6 3932   0.576   6.468   2.490 -1.1119  0.6483 -0.6769
   54CHL1    C7 3933   0.603   6.507   2.705 -0.6176  0.5819 -0.2306
   54CHL1   H7A 3934   0.525   6.430   2.726 -0.7568 -0.1784 -3.2512
   54CHL1   H7B 3935   0.709   6.476   2.711 -0.5081  1.2419  1.5047
   54CHL1    C8 3936   0.579   6.619   2.807 -0.1907 -0.1771  0.0746
   54CHL1    H8 3937   0.469   6.631   2.813  0.1068  2.2390  1.0437
   54CHL1   C14 3938   0.646   6.576   2.936 -0.2388 -0.0789 -0.3271
   54CHL1   H14 3939   0.754   6.567   2.915  0.0095  1.1245  0.4081
   54CHL1   C15 3940   0.603   6.444   2.993  0.2163  0.5004  0.3323
   54CHL1  H15A 3941   0.494   6.424   2.993  0.2152  0.4221 -1.5227
   54CHL1  H15B 3942   0.649   6.356   2.944  0.9591  0.8742  0.3409
   54CHL1   C16 3943   0.666   6.465   3.132  0.5795 -0.2345 -0.0823
   54CHL1  H16A 3944   0.592   6.437   3.211  0.1726  1.5528  0.1995
   54CHL1  H16B 3945   0.754   6.400   3.150  1.8112  1.3690 -0.2273
   54CHL1   C17 3946   0.716   6.612   3.154 -0.2628  0.1593 -0.8862
   54CHL1   H17 3947   0.825   6.612   3.134 -0.4481  1.4712 -1.9075
   54CHL1   C13 3948   0.634   6.681   3.045 -0.3190 -0.1494 -0.1366
   54CHL1   C18 3949   0.486   6.693   3.087  0.0569  0.2180  1.3601
   54CHL1  H18A 3950   0.417   6.731   3.007  0.2393 -0.8445  0.6905
   54CHL1  H18B 3951   0.451   6.600   3.136 -1.2166  1.0834  2.1291
   54CHL1  H18C 3952   0.474   6.768   3.168 -1.3842  1.3431  0.1564
   54CHL1   C12 3953   0.693   6.815   2.993  0.3464 -0.8930  0.4040
   54CHL1  H12A 3954   0.679   6.906   3.055  0.0892 -1.7291  1.5812
   54CHL1  H12B 3955   0.803   6.807   2.984  0.1662 -2.2200 -0.7909
   54CHL1   C11 3956   0.622   6.858   2.861  0.9646 -0.2699  0.2592
   54CHL1  H11A 3957   0.516   6.875   2.888  0.6052 -1.0668 -0.6357
   54CHL1  H11B 3958   0.672   6.948   2.820  1.0629  0.1889  1.3520
   54CHL1    C9 3959   0.627   6.750   2.749  0.7827  0.0861 -0.2089
   54CHL1    H9 3960   0.734   6.727   2.733  0.8428 -0.2222  0.6219
   54CHL1   C10 3961   0.555   6.795   2.616  0.2645 -0.3662 -0.1521
   54CHL1   C19 3962   0.409   6.842   2.650  0.4151 -0.5156 -0.1178
   54CHL1  H19A 3963   0.350   6.756   2.689 -0.3500  0.5344  1.0743
   54CHL1  H19B 3964   0.409   6.931   2.716  0.3019 -1.3051  0.9767
   54CHL1  H19C 3965   0.352   6.880   2.562 -0.0100  1.7258  1.0868
   54CHL1    C1 3966   0.626   6.922   2.554 -0.2163  0.0976 -0.2811
   54CHL1   H1A 3967   0.585   7.009   2.610 -1.4112  0.6561 -1.9658
   54CHL1   H1B 3968   0.734   6.910   2.574 -0.5637 -0.1464  1.5470
   54CHL1    C2 3969   0.605   6.948   2.405 -0.2312 -0.1811  0.9062
   54CHL1   H2A 3970   0.687   7.016   2.373  0.6719 -2.1971 -1.1588
   54CHL1   H2B 3971   0.509   7.005   2.399  0.4952  1.0494  0.7189
   54CHL1   C20 3972   0.693   6.665   3.299  0.3039 -0.1167 -0.1354
   54CHL1   H20 3973   0.585   6.654   3.323 -0.3469 -0.1894 -2.8852
   54CHL1   C21 3974   0.727   6.815   3.317  0.0635  0.1593  0.4882
   54CHL1  H21A 3975   0.829   6.830   3.275 -0.5555  1.3357 -0.6446
   54CHL1  H21B 3976   0.725   6.834   3.426  0.4903 -2.1185  0.9155
   54CHL1  H21C 3977   0.660   6.879   3.256  0.0047 -1.1615 -0.8747
   54CHL1   C22 3978   0.765   6.565   3.394  0.0197 -0.2415 -0.1407
   54CHL1  H22A 3979   0.739   6.459   3.373  3.7896 -1.1940 -0.2908
   54CHL1  H22B 3980   0.872   6.566   3.364  0.8630 -0.8476  2.7396
   54CHL1   C23 3981   0.752   6.601   3.546  0.6313  0.2532  0.6134
   54CHL1  H23A 3982   0.809   6.693   3.573 -1.1309  1.8372 -0.9028
   54CHL1  H23B 3983   0.650   6.624   3.583 -0.2473 -0.6829 -1.1512
   54CHL1   C24 3984   0.826   6.491   3.620 -1.3179 -0.0862 -0.2050
   54CHL1  H24A 3985   0.787   6.393   3.588 -0.0783 -0.4097 -0.7553
   54CHL1  H24B 3986   0.933   6.507   3.593 -1.7271  1.8304 -0.7775
   54CHL1   C25 3987   0.828   6.491   3.777  0.1684 -0.7058 -0.2765
   54CHL1   H25 3988   0.858   6.591   3.816 -1.6244 -0.8382  1.5381
   54CHL1   C26 3989   0.691   6.452   3.833  0.4720 -0.6553 -0.4333
   54CHL1  H26A 3990   0.615   6.525   3.796  1.4389  0.2382 -0.6597
   54CHL1  H26B 3991   0.661   6.347   3.813  0.0428 -0.5435 -0.3855
   54CHL1  H26C 3992   0.677   6.467   3.942  0.0792 -0.5867 -0.4905
   54CHL1   C27 3993   0.939   6.399   3.824  0.5108 -0.5357  0.4789
   54CHL1  H27A 3994   0.920   6.292   3.801 -1.6162 -0.4801  1.8784
   54CHL1  H27B 3995   1.039   6.428   3.783  0.6842 -2.6563 -0.6209
   54CHL1  H27C 3996   0.964   6.407   3.932 -0.4134 -0.7853  0.7093
   55CHL1    C3 3997   6.727   6.589   2.278 -0.3040  0.2959 -0.0089
   55CHL1    H3 3998   6.623   6.625   2.294 -0.0795  0.0477  2.1043
   55CHL1    O3 3999   6.754   6.580   2.142  0.0573  0.3886  0.0427
   55CHL1   H3' 4000   6.816   6.508   2.131 -0.5470  0.0333 -1.1774
   55CHL1    C4 4001   6.821   6.693   2.349 -0.0902 -0.3039  0.1668
   55CHL1   H4A 4002   6.927   6.673   2.322  0.3000 -0.4834  1.7746
   55CHL1   H4B 4003   6.799   6.789   2.298  0.4688 -0.3645 -0.1954
   55CHL1    C5 4004   6.777   6.693   2.496 -1.1123  0.0838 -0.1978
   55CHL1    C6 4005   6.720   6.798   2.553  0.2281  0.6602  0.8224
   55CHL1    H6 4006   6.693   6.887   2.495  0.7103  0.9224  0.9996
   55CHL1    C7 4007   6.676   6.802   2.699  0.0575 -0.9442  0.6577
   55CHL1   H7A 4008   6.693   6.906   2.734 -0.1035 -0.3003 -1.0887
   55CHL1   H7B 4009   6.566   6.786   2.710 -0.6430  2.6803 -0.3688
   55CHL1    C8 4010   6.753   6.701   2.783 -0.4359  0.2281  0.0479
   55CHL1    H8 4011   6.861   6.727   2.781  0.0981 -1.9127 -0.1506
   55CHL1   C14 4012   6.710   6.701   2.925 -0.1185 -0.1832 -0.0218
   55CHL1   H14 4013   6.602   6.674   2.922 -0.4239  0.8885  1.0735
   55CHL1   C15 4014   6.711   6.839   2.994  0.4026 -0.3754 -0.5537
   55CHL1  H15A 4015   6.803   6.900   2.981 -0.3851  0.7270 -1.0091
   55CHL1  H15B 4016   6.631   6.912   2.970  1.0838  1.3619  2.2658
   55CHL1   C16 4017   6.711   6.807   3.145  0.2153 -0.0019 -0.9987
   55CHL1  H16A 4018   6.783   6.876   3.194  0.2500 -0.6279 -0.1549
   55CHL1  H16B 4019   6.607   6.819   3.182 -0.0478 -0.9686 -1.4043
   55CHL1   C17 4020   6.729   6.650   3.159  0.3083  0.3645  0.0591
   55CHL1   H17 4021   6.624   6.614   3.157  0.4345 -0.0338  0.6448
   55CHL1   C13 4022   6.787   6.610   3.021 -0.1221  0.0902  0.6019
   55CHL1   C18 4023   6.936   6.636   3.024  0.4402  0.1147 -0.0898
   55CHL1  H18A 4024   6.989   6.611   2.931 -0.4891 -1.2079 -0.2748
   55CHL1  H18B 4025   6.966   6.738   3.058  3.8037 -0.6872 -0.5415
   55CHL1  H18C 4026   6.978   6.567   3.100  2.3184  1.3203 -0.0028
   55CHL1   C12 4027   6.761   6.459   2.974  0.9307 -0.4899 -0.1635
   55CHL1  H12A 4028   6.820   6.384   3.030 -1.1450 -0.6108  1.9379
   55CHL1  H12B 4029   6.654   6.439   2.996  1.3228 -1.5157  0.8651
   55CHL1   C11 4030   6.786   6.446   2.820  0.2155  0.1772 -0.2651
   55CHL1  H11A 4031   6.893   6.426   2.800  0.0250 -0.8171 -0.3157
   55CHL1  H11B 4032   6.730   6.359   2.779  1.0474  0.0130 -1.0795
   55CHL1    C9 4033   6.742   6.566   2.720  0.1111 -0.3502  0.8120
   55CHL1    H9 4034   6.633   6.550   2.727  0.2478 -1.1027  1.2102
   55CHL1   C10 4035   6.802   6.563   2.576  0.4378 -0.5200  0.4546
   55CHL1   C19 4036   6.952   6.532   2.585 -0.6546 -0.2169  0.2202
   55CHL1  H19A 4037   7.000   6.602   2.657  0.8521 -0.0856 -0.8925
   55CHL1  H19B 4038   6.975   6.426   2.607 -0.3986 -0.4113 -0.9502
   55CHL1  H19C 4039   6.996   6.555   2.486  0.1682  0.0254  0.6412
   55CHL1    C1 4040   6.721   6.452   2.496 -0.1566 -0.2839 -0.4493
   55CHL1   H1A 4041   6.750   6.354   2.539  2.0505  0.1125 -0.9949
   55CHL1   H1B 4042   6.612   6.472   2.508  0.1197  1.8864 -1.2034
   55CHL1    C2 4043   6.751   6.449   2.352 -0.2639 -0.4867  0.1669
   55CHL1   H2A 4044   6.685   6.370   2.309  2.7943 -1.1436 -3.6134
   55CHL1   H2B 4045   6.855   6.413   2.337  0.1023  0.6349 -0.0193
   55CHL1   C20 4046   6.801   6.616   3.292 -0.8955  0.0948 -0.3744
   55CHL1   H20 4047   6.908   6.647   3.289 -0.6501 -0.8088 -1.1832
   55CHL1   C21 4048   6.795   6.467   3.313 -0.1752  0.2525 -0.1839
   55CHL1  H21A 4049   6.847   6.413   3.231 -0.9335  0.9553 -1.1359
   55CHL1  H21B 4050   6.687   6.442   3.310  0.1252 -1.2913  1.0030
   55CHL1  H21C 4051   6.835   6.434   3.411 -1.5085 -1.2179 -0.1183
   55CHL1   C22 4052   6.733   6.681   3.412 -0.2905 -0.2523  0.2777
   55CHL1  H22A 4053   6.787   6.654   3.505  0.6517 -1.4608 -0.6018
   55CHL1  H22B 4054   6.734   6.789   3.389  1.7438 -0.5767 -1.2039
   55CHL1   C23 4055   6.588   6.639   3.436  0.4985 -1.1822  0.7376
   55CHL1  H23A 4056   6.551   6.611   3.335  1.5511 -0.6406  0.1948
   55CHL1  H23B 4057   6.590   6.555   3.509  0.1230 -0.0299  2.0631
   55CHL1   C24 4058   6.514   6.746   3.516 -0.3779 -0.5662  0.0224
   55CHL1  H24A 4059   6.579   6.758   3.605  3.3965  1.6620 -2.8791
   55CHL1  H24B 4060   6.514   6.848   3.473  0.1814  0.6650  2.8061
   55CHL1   C25 4061   6.371   6.715   3.558 -0.6253  0.1836  0.2663
   55CHL1   H25 4062   6.378   6.627   3.625  1.3724  1.2219  1.4930
   55CHL1   C26 4063   6.310   6.834   3.631 -1.1263  0.0933  0.3486
   55CHL1  H26A 4064   6.310   6.919   3.559  0.5929 -0.9059 -0.8582
   55CHL1  H26B 4065   6.209   6.796   3.656 -1.1200  0.0006  0.2301
   55CHL1  H26C 4066   6.368   6.862   3.722 -1.4333  0.0800  0.5484
   55CHL1   C27 4067   6.271   6.680   3.441 -0.0492  0.0713  0.7306
   55CHL1  H27A 4068   6.227   6.764   3.383 -2.2446 -1.4087  0.1921
   55CHL1  H27B 4069   6.317   6.611   3.367 -0.2596  0.3266  0.3586
   55CHL1  H27C 4070   6.184   6.626   3.485  0.1121  0.3013  1.3328
   56CHL1    C3 4071   7.152   0.428   2.319  0.7316  0.3879 -1.1437
   56CHL1    H3 4072   7.206   0.332   2.333  1.6061  0.9951 -0.3202
   56CHL1    O3 4073   7.140   0.473   2.188  0.2839  0.0861 -0.0037
   56CHL1   H3' 4074   7.124   0.567   2.186 -0.1207 -0.0013 -1.0177
   56CHL1    C4 4075   7.011   0.425   2.385 -0.0726 -0.1806 -0.0093
   56CHL1   H4A 4076   6.969   0.527   2.374  0.6752  0.1763  0.4078
   56CHL1   H4B 4077   6.945   0.358   2.326 -0.8068 -0.1520  0.7775
   56CHL1    C5 4078   7.021   0.395   2.531  0.5452 -0.0289 -0.1404
   56CHL1    C6 4079   6.962   0.291   2.590  0.0657 -0.7875  0.3652
   56CHL1    H6 4080   6.894   0.223   2.535 -1.2192  1.8846 -1.4368
   56CHL1    C7 4081   6.974   0.259   2.735  0.5598  0.1509  0.0005
   56CHL1   H7A 4082   6.875   0.218   2.767  1.2286 -2.0526 -0.6499
   56CHL1   H7B 4083   7.045   0.174   2.748 -1.1451 -1.1746  1.0160
   56CHL1    C8 4084   7.014   0.383   2.819 -0.2066  0.7597 -0.6154
   56CHL1    H8 4085   6.935   0.461   2.817 -0.4510  0.5748  1.1945
   56CHL1   C14 4086   7.037   0.340   2.967 -0.0943 -0.0874 -0.5512
   56CHL1   H14 4087   7.121   0.268   2.957 -0.2630 -0.3084 -0.4136
   56CHL1   C15 4088   6.924   0.267   3.040 -0.1915 -0.3823 -0.0177
   56CHL1  H15A 4089   6.820   0.302   3.026  0.0145  0.1019 -0.3649
   56CHL1  H15B 4090   6.927   0.163   3.001  1.4875 -0.0089 -0.9605
   56CHL1   C16 4091   6.962   0.283   3.190 -0.5494 -0.2310 -0.6092
   56CHL1  H16A 4092   6.890   0.350   3.242 -1.3494 -0.1215 -1.8367
   56CHL1  H16B 4093   6.973   0.192   3.253  1.4293 -0.0889 -0.7358
   56CHL1   C17 4094   7.089   0.360   3.192 -0.1158 -0.3440 -0.2366
   56CHL1   H17 4095   7.163   0.280   3.173  1.2297  0.8965 -0.2955
   56CHL1   C13 4096   7.093   0.444   3.063  0.8268 -0.5550 -0.2451
   56CHL1   C18 4097   6.999   0.577   3.079 -0.9749  0.2721  0.3135
   56CHL1  H18A 4098   6.935   0.563   3.168 -1.7461 -1.8084 -0.5335
   56CHL1  H18B 4099   7.064   0.667   3.089 -2.3148  1.5395 -1.7886
   56CHL1  H18C 4100   6.939   0.588   2.985  0.2792 -3.1511 -0.9377
   56CHL1   C12 4101   7.222   0.485   3.003 -0.5243 -0.6653  0.4361
   56CHL1  H12A 4102   7.269   0.567   3.060 -1.7758  0.0368  0.4736
   56CHL1  H12B 4103   7.292   0.399   2.992  1.9092  1.4097 -0.5913
   56CHL1   C11 4104   7.197   0.540   2.860  0.0410 -0.0398 -0.1273
   56CHL1  H11A 4105   7.134   0.631   2.877  1.4188  1.0004 -0.4745
   56CHL1  H11B 4106   7.292   0.585   2.823  1.0299 -1.6190  0.4367
   56CHL1    C9 4107   7.140   0.441   2.763  0.2072 -0.2751  0.0318
   56CHL1    H9 4108   7.218   0.362   2.751  1.6574  1.3374 -1.4068
   56CHL1   C10 4109   7.119   0.495   2.609  0.6481 -0.2479 -0.0371
   56CHL1   C19 4110   7.063   0.639   2.615 -1.0387  0.1298  0.2529
   56CHL1  H19A 4111   6.972   0.642   2.679 -1.0139  0.0000  0.2944
   56CHL1  H19B 4112   7.138   0.708   2.659 -1.9126  0.9635  0.4684
   56CHL1  H19C 4113   7.039   0.684   2.516 -1.1468  0.8491  0.6007
   56CHL1    C1 4114   7.260   0.510   2.543  0.3243 -0.4835  0.8900
   56CHL1   H1A 4115   7.309   0.599   2.588 -1.4695 -0.2022  2.3745
   56CHL1   H1B 4116   7.324   0.421   2.564  0.8888 -0.3925 -0.4275
   56CHL1    C2 4117   7.244   0.528   2.390 -0.1713  0.8858 -0.2588
   56CHL1   H2A 4118   7.345   0.515   2.346 -0.9144 -0.0276 -1.7369
   56CHL1   H2B 4119   7.201   0.627   2.364  0.5474  0.8803 -1.4903
   56CHL1   C20 4120   7.128   0.427   3.323  0.6128  0.4356 -0.1120
   56CHL1   H20 4121   7.072   0.521   3.343  0.3936  0.1661  0.5458
   56CHL1   C21 4122   7.273   0.469   3.318 -0.4801 -0.6460 -0.1817
   56CHL1  H21A 4123   7.320   0.477   3.418  1.1622  3.3523 -1.1875
   56CHL1  H21B 4124   7.280   0.575   3.285  2.8995 -0.6308  0.4838
   56CHL1  H21C 4125   7.336   0.402   3.256  0.2626 -0.5116  0.4270
   56CHL1   C22 4126   7.090   0.347   3.447 -0.0889 -0.6118 -0.1033
   56CHL1  H22A 4127   6.985   0.311   3.435 -0.9636  0.9122  2.4563
   56CHL1  H22B 4128   7.150   0.254   3.441  0.7699  0.0821 -2.7504
   56CHL1   C23 4129   7.096   0.415   3.582  0.1380 -0.0955 -0.8198
   56CHL1  H23A 4130   7.204   0.424   3.605  0.0885  0.4472 -0.8144
   56CHL1  H23B 4131   7.053   0.517   3.573  1.2881  0.3692 -1.1762
   56CHL1   C24 4132   7.031   0.331   3.691 -0.4757 -0.2563 -0.1636
   56CHL1  H24A 4133   6.923   0.334   3.665 -0.3154 -0.3950 -0.8741
   56CHL1  H24B 4134   7.069   0.228   3.680 -2.4332 -0.9787 -0.2363
   56CHL1   C25 4135   7.053   0.384   3.837 -0.2995 -0.2758 -0.0859
   56CHL1   H25 4136   7.162   0.407   3.845 -0.6127  0.5450  2.2211
   56CHL1   C26 4137   6.984   0.519   3.862 -0.3349  0.5643  0.2367
   56CHL1  H26A 4138   6.873   0.514   3.864 -0.3542  1.0241  3.2310
   56CHL1  H26B 4139   7.011   0.561   3.961  0.2079  1.2294 -0.1960
   56CHL1  H26C 4140   7.009   0.600   3.791  2.4243  0.1583  0.6999
   56CHL1   C27 4141   7.018   0.282   3.941  0.0285  0.1459  0.3382
   56CHL1  H27A 4142   7.027   0.312   4.047 -0.1117  1.7016 -0.0860
   56CHL1  H27B 4143   6.920   0.232   3.924  0.7774 -0.4893 -2.3659
   56CHL1  H27C 4144   7.088   0.196   3.941  0.7376  0.7236  1.8673
   57SAPC     N 4145   4.198   3.269   6.204  0.3496 -0.1699 -0.2101
   57SAPC   C12 4146   4.330   3.330   6.159 -0.2478  0.0296  0.0925
   57SAPC  H12A 4147   4.354   3.408   6.230  3.4508 -0.5012 -0.4614
   57SAPC  H12B 4148   4.318   3.383   6.066 -0.5141  0.6787  0.4988
   57SAPC   C13 4149   4.208   3.191   6.334 -0.2733 -0.2340 -0.9677
   57SAPC  H13A 4150   4.277   3.108   6.328  0.5072  0.4395 -1.4373
   57SAPC  H13B 4151   4.228   3.261   6.414  1.1257  1.6405 -2.8901
   57SAPC  H13C 4152   4.113   3.145   6.356 -0.1480  0.7124  1.8483
   57SAPC   C14 4153   4.088   3.380   6.222  0.8365 -0.3208 -0.0606
   57SAPC  H14A 4154   4.060   3.426   6.128  1.7945  0.6715  0.1246
   57SAPC  H14B 4155   4.006   3.338   6.279  1.0332 -0.1418  0.3631
   57SAPC  H14C 4156   4.108   3.457   6.296  0.6349  0.5565 -0.9014
   57SAPC   C15 4157   4.149   3.175   6.104 -0.1088 -0.5476  0.3526
   57SAPC  H15A 4158   4.092   3.100   6.157 -1.5249  1.5343  1.9093
   57SAPC  H15B 4159   4.091   3.219   6.025  0.9453 -1.7408 -1.0975
   57SAPC  H15C 4160   4.240   3.132   6.067 -0.3667 -0.8406  0.0630
   57SAPC   C11 4161   4.449   3.238   6.139 -0.1843 -0.3080 -0.1712
   57SAPC  H11A 4162   4.462   3.185   6.236  1.0619  0.9829  0.3838
   57SAPC  H11B 4163   4.544   3.294   6.123 -0.5399 -0.0062 -1.2775
   57SAPC     P 4164   4.450   3.175   5.883 -0.5549 -0.0053 -0.1695
   57SAPC   O13 4165   4.394   3.063   5.807 -0.5444  0.1441 -0.0383
   57SAPC   O14 4166   4.395   3.306   5.856  0.1660 -0.3130 -0.6898
   57SAPC   O12 4167   4.423   3.138   6.038  0.3846 -0.5400 -0.6376
   57SAPC   O11 4168   4.611   3.184   5.885 -0.0041 -0.4853 -0.0093
   57SAPC    C1 4169   4.689   3.119   5.790 -0.4206  0.3531  0.0083
   57SAPC    HA 4170   4.778   3.077   5.841 -0.8307 -0.2158  0.2558
   57SAPC    HB 4171   4.649   3.030   5.738  0.7798 -2.2347  3.3591
   57SAPC    C2 4172   4.754   3.223   5.691  0.4688 -0.1951  0.0677
   57SAPC    HS 4173   4.800   3.291   5.765  1.4160  0.9678 -1.5593
   57SAPC   O21 4174   4.642   3.282   5.617  0.1767  0.5189 -0.1773
   57SAPC   C21 4175   4.615   3.405   5.657 -0.2635 -0.5712 -0.2157
   57SAPC   O22 4176   4.668   3.470   5.748  0.2192 -0.1476  0.4061
   57SAPC   C22 4177   4.503   3.469   5.574  0.3592 -0.8803  0.0531
   57SAPC   H2R 4178   4.465   3.384   5.514 -1.7917 -0.8490  1.3125
   57SAPC   H2S 4179   4.416   3.492   5.638  0.3760  1.4468 -0.7064
   57SAPC    C3 4180   4.863   3.151   5.607  0.7274  0.3827 -0.1860
   57SAPC    HX 4181   4.917   3.085   5.678  1.4165 -0.2698 -1.2983
   57SAPC    HY 4182   4.931   3.231   5.572  0.0286  1.3991  0.7388
   57SAPC   O31 4183   4.802   3.062   5.503 -0.3126  0.2081  0.2300
   57SAPC   C31 4184   4.780   3.124   5.383 -0.5460 -0.0717  0.0004
   57SAPC   O32 4185   4.823   3.233   5.349 -0.4479  0.0060  0.6569
   57SAPC   C32 4186   4.689   3.032   5.307 -0.1443  0.7201 -0.0684
   57SAPC   H2X 4187   4.630   2.967   5.375  0.0361  0.5388 -0.0861
   57SAPC   H2Y 4188   4.756   2.976   5.240 -1.7370  0.3056 -1.3520
   57SAPC   C23 4189   4.532   3.588   5.492  0.2286  0.2204  0.0237
   57SAPC   H3R 4190   4.575   3.677   5.541  1.3349 -0.4413  0.2664
   57SAPC   H3S 4191   4.439   3.626   5.443  0.1837  1.5450  1.1305
   57SAPC   C24 4192   4.636   3.541   5.381  0.1175 -0.4996 -0.0518
   57SAPC   H4R 4193   4.590   3.472   5.306 -3.1088  1.2985  0.1928
   57SAPC   H4S 4194   4.724   3.493   5.429  2.7509  1.0832 -3.1067
   57SAPC   C25 4195   4.686   3.666   5.312 -1.0289  0.5642 -0.1223
   57SAPC   H5R 4196   4.732   3.736   5.384 -1.7868  0.0468  0.8813
   57SAPC   C26 4197   4.678   3.702   5.183  0.2801 -0.5171  0.0503
   57SAPC   H6R 4198   4.695   3.805   5.148  1.5611 -0.5679  0.5041
   57SAPC   C27 4199   4.619   3.607   5.079  0.0900  1.0284 -0.0054
   57SAPC   H7R 4200   4.591   3.658   4.984  1.4051  0.4903 -0.6860
   57SAPC   H7S 4201   4.520   3.579   5.123  0.6377 -1.2615 -0.1654
   57SAPC   C28 4202   4.711   3.490   5.051  0.2409  0.2243  0.3078
   57SAPC   H8R 4203   4.758   3.450   5.142  1.7688  0.3532 -0.4154
   57SAPC   C29 4204   4.732   3.421   4.937  0.5715 -0.5274  0.7819
   57SAPC   H9R 4205   4.772   3.319   4.945 -1.3126 -1.2952  0.5402
   57SAPC  C210 4206   4.666   3.454   4.804  0.4601  0.1542 -0.0514
   57SAPC  H10R 4207   4.585   3.528   4.821 -0.1677 -0.3421 -0.8014
   57SAPC  H10S 4208   4.625   3.361   4.760 -2.9631  1.5155  0.1313
   57SAPC  C211 4209   4.747   3.524   4.698 -0.2567  0.2290  0.4642
   57SAPC  H11R 4210   4.855   3.516   4.718  0.2074 -0.2522 -1.9656
   57SAPC  C212 4211   4.702   3.567   4.581  0.2104 -0.6396 -0.2816
   57SAPC  H12R 4212   4.780   3.588   4.506  0.4457  1.0324  0.3972
   57SAPC  C213 4213   4.555   3.574   4.529 -0.0904  1.3677 -0.8380
   57SAPC  H13R 4214   4.487   3.571   4.616 -1.7653  0.8892 -2.1444
   57SAPC  H13S 4215   4.528   3.487   4.465 -4.6084  3.2416 -1.6334
   57SAPC  C214 4216   4.519   3.693   4.444 -0.1599  0.3757  0.2907
   57SAPC  H14R 4217   4.494   3.780   4.507 -2.0076  0.5754 -0.6928
   57SAPC  C215 4218   4.540   3.720   4.310 -0.2720  0.2238 -0.0032
   57SAPC  H15R 4219   4.509   3.821   4.277 -0.4843  0.2353  0.2318
   57SAPC  C216 4220   4.594   3.629   4.204 -0.2102  0.2256 -0.1711
   57SAPC  H16R 4221   4.536   3.656   4.113  0.6285 -1.5875 -1.2911
   57SAPC  H16S 4222   4.571   3.524   4.231  1.4933 -0.5809 -1.6990
   57SAPC  C217 4223   4.744   3.665   4.169 -0.8690 -0.0605  0.5082
   57SAPC  H17R 4224   4.808   3.648   4.258 -1.5224  0.5845  1.1122
   57SAPC  H17S 4225   4.751   3.774   4.150 -0.8269 -0.3957 -1.5844
   57SAPC  C218 4226   4.777   3.590   4.040  0.4421  0.0165 -0.1190
   57SAPC  H18R 4227   4.732   3.641   3.952 -2.9733 -0.6478  1.1689
   57SAPC  H18S 4228   4.732   3.488   4.045  0.0856  0.2683  3.0255
   57SAPC  C219 4229   4.927   3.566   4.033 -0.3003 -0.5789  0.3100
   57SAPC  H19R 4230   4.945   3.513   3.937  0.3941  0.2161 -0.0047
   57SAPC  H19S 4231   4.958   3.494   4.112 -1.6843 -1.8978 -0.3220
   57SAPC  C220 4232   5.012   3.692   4.044  0.2645 -0.4153  0.0456
   57SAPC  H20R 4233   5.116   3.675   4.007 -0.8433 -1.3364 -2.8356
   57SAPC  H20S 4234   5.004   3.731   4.147 -0.1955  0.5158 -0.3378
   57SAPC  H20T 4235   4.966   3.765   3.974  0.5447 -0.7094 -0.4482
   57SAPC   C33 4236   4.583   3.103   5.209  0.8611  0.0098  0.1369
   57SAPC   H3X 4237   4.548   3.020   5.144  0.8356 -1.4238  1.9336
   57SAPC   H3Y 4238   4.642   3.177   5.150 -0.8965  1.6234  0.3617
   57SAPC   C34 4239   4.459   3.180   5.267 -0.3169  0.1749 -0.0706
   57SAPC   H4X 4240   4.495   3.281   5.297 -0.4718  0.1839  0.0860
   57SAPC   H4Y 4241   4.417   3.133   5.358  0.5486 -0.1549  0.1682
   57SAPC   C35 4242   4.340   3.203   5.171  0.7460  0.4833  0.1198
   57SAPC   H5X 4243   4.262   3.268   5.216  0.9696 -0.3393  1.7381
   57SAPC   H5Y 4244   4.287   3.108   5.150 -0.1009  0.9785  0.0067
   57SAPC   C36 4245   4.366   3.268   5.031 -0.2075  0.1272 -0.0272
   57SAPC   H6X 4246   4.462   3.228   4.991 -1.7677  1.2617 -5.3873
   57SAPC   H6Y 4247   4.377   3.378   5.045 -0.1921  0.2268 -0.7554
   57SAPC   C37 4248   4.253   3.239   4.929  0.2077  0.0177 -0.5887
   57SAPC   H7X 4249   4.153   3.265   4.970 -0.0270  0.9009 -1.6982
   57SAPC   H7Y 4250   4.244   3.130   4.909 -2.0375  0.2189 -0.7203
   57SAPC   C38 4251   4.258   3.316   4.799 -0.4061  0.5125 -0.1545
   57SAPC   H8X 4252   4.349   3.279   4.748 -0.2177  0.7228  0.0277
   57SAPC   H8Y 4253   4.285   3.423   4.814 -2.7658  0.7166  3.3768
   57SAPC   C39 4254   4.119   3.311   4.719 -0.7057  0.6780  0.9576
   57SAPC   H9X 4255   4.035   3.347   4.781 -0.2799  0.3962  1.7071
   57SAPC   H9Y 4256   4.109   3.201   4.708  0.1974  0.7999 -1.3343
   57SAPC  C310 4257   4.132   3.380   4.582  0.1174 -0.0409 -0.6324
   57SAPC  H10X 4258   4.205   3.313   4.532  1.9908  0.9320  0.6908
   57SAPC  H10Y 4259   4.177   3.482   4.591 -0.5952  0.2207  0.0211
   57SAPC  C311 4260   4.010   3.387   4.493  0.2738  0.4208 -0.5709
   57SAPC  H11X 4261   3.946   3.461   4.546  3.5394  2.5345  0.6070
   57SAPC  H11Y 4262   3.956   3.290   4.496  2.2032 -0.6555  0.3064
   57SAPC  C312 4263   4.033   3.438   4.352  0.1594 -0.5338 -0.3120
   57SAPC  H12X 4264   3.939   3.442   4.294 -0.7540  3.1548  1.2491
   57SAPC  H12Y 4265   4.075   3.355   4.291 -0.9798 -1.8797  0.6889
   57SAPC  C313 4266   4.114   3.567   4.336 -0.2169 -0.3147 -0.1680
   57SAPC  H13X 4267   4.216   3.563   4.381 -0.9137  0.7575  1.5590
   57SAPC  H13Y 4268   4.069   3.651   4.394  2.0089  0.3122  0.7319
   57SAPC  C314 4269   4.132   3.603   4.188 -0.2275  0.5390 -0.2181
   57SAPC  H14X 4270   4.046   3.574   4.124 -0.4226  0.8496 -0.0991
   57SAPC  H14Y 4271   4.215   3.550   4.136 -0.7443  0.8909 -1.4220
   57SAPC  C315 4272   4.176   3.752   4.172 -0.1394  0.7479 -0.0149
   57SAPC  H15X 4273   4.206   3.768   4.067  2.4881 -0.9831  0.4218
   57SAPC  H15Y 4274   4.264   3.769   4.238  1.0567  1.1934 -1.7004
   57SAPC  C316 4275   4.061   3.851   4.220  0.3483  0.4817  0.1694
   57SAPC  H16X 4276   4.033   3.838   4.327 -2.1254  0.9748 -0.3929
   57SAPC  H16Y 4277   3.982   3.804   4.158  0.1828  0.9380  0.0315
   57SAPC  C317 4278   4.075   3.998   4.171 -0.2069  0.3865 -0.7942
   57SAPC  H17X 4279   3.998   4.052   4.231 -0.8295 -2.0375  0.6487
   57SAPC  H17Y 4280   4.056   3.998   4.061  1.1056  1.1626 -1.0302
   57SAPC  C318 4281   4.214   4.062   4.188  0.1565  0.1002  0.2726
   57SAPC  H18X 4282   4.281   4.008   4.116 -1.5484 -0.9093 -0.6030
   57SAPC  H18Y 4283   4.254   4.071   4.291  0.7091 -0.3337  0.1011
   57SAPC  H18Z 4284   4.210   4.163   4.143 -1.9802 -1.0389 -2.2128
   58SAPC     N 4285   3.554   2.620   6.037  0.1213 -0.1014 -0.1546
   58SAPC   C12 4286   3.505   2.489   6.100 -0.2768 -0.1735 -0.1053
   58SAPC  H12A 4287   3.581   2.412   6.103 -0.1983 -0.0856  0.1090
   58SAPC  H12B 4288   3.432   2.457   6.027  0.7635 -0.2957 -1.1217
   58SAPC   C13 4289   3.657   2.683   6.121  0.1374 -0.3122  0.8742
   58SAPC  H13A 4290   3.727   2.602   6.136 -0.8609 -1.5858 -1.0504
   58SAPC  H13B 4291   3.708   2.762   6.067  1.0952 -0.9580  0.8072
   58SAPC  H13C 4292   3.619   2.718   6.216 -3.3276 -1.1825 -0.1285
   58SAPC   C14 4293   3.595   2.603   5.895  0.0283 -0.4157  0.3934
   58SAPC  H14A 4294   3.658   2.515   5.891 -1.0717 -1.1659 -1.1783
   58SAPC  H14B 4295   3.508   2.576   5.837 -1.6813  3.6365  0.9387
   58SAPC  H14C 4296   3.638   2.696   5.862 -0.2623 -0.3800  0.1055
   58SAPC   C15 4297   3.449   2.719   6.040  0.5975 -0.2753 -0.1570
   58SAPC  H15A 4298   3.415   2.745   6.139  1.4805 -0.8277  0.2925
   58SAPC  H15B 4299   3.473   2.809   5.985 -0.0961  0.2640  0.4171
   58SAPC  H15C 4300   3.367   2.674   5.985  1.5558 -0.4891 -1.4460
   58SAPC   C11 4301   3.437   2.493   6.238  0.4725 -0.2043 -0.2833
   58SAPC  H11A 4302   3.497   2.563   6.301 -0.1732 -0.9338  1.1744
   58SAPC  H11B 4303   3.450   2.388   6.274 -2.4582 -0.0136  1.4941
   58SAPC     P 4304   3.200   2.443   6.143  0.1052 -0.2476 -0.0023
   58SAPC   O13 4305   3.064   2.459   6.205  0.0682 -0.3824 -0.2210
   58SAPC   O14 4306   3.209   2.484   6.006 -0.3552  0.5909  0.0556
   58SAPC   O12 4307   3.297   2.535   6.221 -0.5021  0.1056  0.5212
   58SAPC   O11 4308   3.268   2.301   6.157 -1.1398  0.1088  0.5059
   58SAPC    C1 4309   3.218   2.190   6.079 -0.3747 -0.1209  0.3856
   58SAPC    HA 4310   3.126   2.151   6.129  1.4175 -1.1044  3.0542
   58SAPC    HB 4311   3.175   2.223   5.982  1.5607 -2.6806 -1.4197
   58SAPC    C2 4312   3.315   2.079   6.041 -0.0089 -0.2320  0.3024
   58SAPC    HS 4313   3.366   2.035   6.130 -1.3964 -0.7278  0.8557
   58SAPC   O21 4314   3.420   2.129   5.952 -0.3878 -0.8144  0.2642
   58SAPC   C21 4315   3.530   2.056   5.945  0.0802 -0.0260 -0.2693
   58SAPC   O22 4316   3.544   1.956   6.011  0.4642 -0.1016 -0.1513
   58SAPC   C22 4317   3.619   2.116   5.844  0.2373 -0.1596  0.2810
   58SAPC   H2R 4318   3.634   2.226   5.851 -0.3142 -0.1322  1.1296
   58SAPC   H2S 4319   3.721   2.073   5.848  0.3957  0.0716 -0.9979
   58SAPC    C3 4320   3.225   1.965   5.977 -0.3643 -0.1482  0.1749
   58SAPC    HX 4321   3.156   1.916   6.049  1.5911 -0.3796  1.9505
   58SAPC    HY 4322   3.296   1.881   5.955 -1.8308 -1.9524  2.1660
   58SAPC   O31 4323   3.170   1.992   5.847  0.8544 -0.6193 -0.5034
   58SAPC   C31 4324   3.152   1.898   5.760 -0.3823 -0.0974  0.5627
   58SAPC   O32 4325   3.196   1.783   5.771  0.2272  0.6458 -0.2689
   58SAPC   C32 4326   3.101   1.960   5.633  0.4516  0.3673  0.3071
   58SAPC   H2X 4327   3.027   2.038   5.662 -0.1154 -0.0234 -0.0963
   58SAPC   H2Y 4328   3.062   1.875   5.574  0.6125 -0.7987  1.8396
   58SAPC   C23 4329   3.579   2.094   5.696  0.3181  0.5023  0.0813
   58SAPC   H3R 4330   3.650   2.144   5.626  0.9662 -0.1890  0.2361
   58SAPC   H3S 4331   3.471   2.120   5.690  0.5336  1.4425  0.2809
   58SAPC   C24 4332   3.571   1.940   5.669 -0.8419 -0.4814  0.4522
   58SAPC   H4R 4333   3.530   1.934   5.566  1.0855  0.1035 -0.3717
   58SAPC   H4S 4334   3.497   1.895   5.739 -1.0525 -1.8395 -0.6253
   58SAPC   C25 4335   3.705   1.867   5.673 -0.5502  0.1609  0.1325
   58SAPC   H5R 4336   3.723   1.828   5.775 -1.5717  0.2506  0.3466
   58SAPC   C26 4337   3.793   1.851   5.570  0.2180 -0.0376  0.6750
   58SAPC   H6R 4338   3.889   1.801   5.591  0.2354 -1.3641 -2.3856
   58SAPC   C27 4339   3.768   1.903   5.429 -0.2745 -0.2946  0.6830
   58SAPC   H7R 4340   3.832   1.991   5.404 -1.2387  0.4436  0.8106
   58SAPC   H7S 4341   3.665   1.933   5.402  1.2745  2.3173 -2.7624
   58SAPC   C28 4342   3.820   1.802   5.332 -0.2198  0.7112 -0.1413
   58SAPC   H8R 4343   3.929   1.788   5.332 -0.3056  0.0242  0.8401
   58SAPC   C29 4344   3.744   1.722   5.250  0.3580 -0.3241  0.3463
   58SAPC   H9R 4345   3.789   1.661   5.170  0.9767  1.5958 -0.8027
   58SAPC  C210 4346   3.594   1.721   5.241  0.0222  0.4370  0.7161
   58SAPC  H10R 4347   3.563   1.686   5.141 -1.2370 -0.0083  1.2612
   58SAPC  H10S 4348   3.557   1.826   5.242  0.1619  0.5262 -1.2886
   58SAPC  C211 4349   3.536   1.646   5.360 -0.1117 -1.0875 -0.8795
   58SAPC  H11R 4350   3.592   1.673   5.451 -1.2758 -1.5988 -0.0003
   58SAPC  C212 4351   3.420   1.579   5.382  0.5176 -0.3435 -0.5404
   58SAPC  H12R 4352   3.401   1.533   5.481  1.5467  0.6572  0.1317
   58SAPC  C213 4353   3.320   1.545   5.277 -0.4658  0.1635 -0.1422
   58SAPC  H13R 4354   3.267   1.449   5.295 -2.0478  1.5479  2.7255
   58SAPC  H13S 4355   3.361   1.514   5.178  2.1385 -1.7964  1.4917
   58SAPC  C214 4356   3.220   1.650   5.251 -0.4033 -0.3674  0.2655
   58SAPC  H14R 4357   3.211   1.705   5.346  0.2032 -3.7265  2.3539
   58SAPC  C215 4358   3.147   1.687   5.142 -0.3074  0.9308  0.4035
   58SAPC  H15R 4359   3.077   1.771   5.157 -1.8889 -0.3323  0.2196
   58SAPC  C216 4360   3.165   1.632   4.998 -0.8511  0.3600  0.4142
   58SAPC  H16R 4361   3.111   1.537   4.975 -0.4729  0.1131  0.5511
   58SAPC  H16S 4362   3.274   1.628   4.979 -0.6688  1.0285  1.2894
   58SAPC  C217 4363   3.109   1.735   4.895 -0.2695  0.0328  0.0017
   58SAPC  H17R 4364   3.140   1.838   4.923 -0.9016 -0.2141  1.6955
   58SAPC  H17S 4365   2.998   1.732   4.899 -0.3917 -0.2551 -2.9065
   58SAPC  C218 4366   3.132   1.699   4.749 -1.1658  0.9029 -0.1979
   58SAPC  H18R 4367   3.100   1.596   4.723  1.6090  0.5978 -2.6644
   58SAPC  H18S 4368   3.240   1.685   4.727 -1.0139 -2.1583  2.1662
   58SAPC  C219 4369   3.071   1.794   4.644  0.4292 -0.7387  0.6456
   58SAPC  H19R 4370   2.965   1.817   4.667  0.8688  0.2753  1.7440
   58SAPC  H19S 4371   3.086   1.742   4.547  2.1480  2.5144 -0.9369
   58SAPC  C220 4372   3.150   1.925   4.618 -1.0666 -0.3173 -0.2716
   58SAPC  H20R 4373   3.248   1.894   4.576 -0.2681  1.4307  0.2448
   58SAPC  H20S 4374   3.166   1.985   4.711  1.2238 -2.9748  1.1232
   58SAPC  H20T 4375   3.106   1.990   4.539 -0.8966 -0.2943 -0.3458
   58SAPC   C33 4376   3.217   2.029   5.561  0.0413 -0.3379  0.0859
   58SAPC   H3X 4377   3.309   1.967   5.565  0.9040  0.8927 -0.3907
   58SAPC   H3Y 4378   3.235   2.113   5.631 -2.5418  1.0257 -0.8361
   58SAPC   C34 4379   3.183   2.066   5.417 -0.2763 -0.8747  0.5860
   58SAPC   H4X 4380   3.129   2.163   5.414  1.4675  0.1013  0.5893
   58SAPC   H4Y 4381   3.108   2.001   5.365 -3.3819  2.9202  0.0796
   58SAPC   C35 4382   3.311   2.087   5.343  0.1936 -0.2980  0.8478
   58SAPC   H5X 4383   3.362   1.988   5.337  1.1373  0.2717 -0.7405
   58SAPC   H5Y 4384   3.380   2.152   5.401 -1.1956  1.8682  0.1191
   58SAPC   C36 4385   3.292   2.132   5.199  0.2508 -0.2208  0.4202
   58SAPC   H6X 4386   3.263   2.239   5.201  1.3876  0.0950  0.8606
   58SAPC   H6Y 4387   3.216   2.074   5.143 -1.9059 -0.4604  3.4745
   58SAPC   C37 4388   3.420   2.129   5.117 -0.3243  0.5040 -0.4068
   58SAPC   H7X 4389   3.450   2.023   5.107  1.5677  0.9829 -0.0217
   58SAPC   H7Y 4390   3.501   2.181   5.174  1.0121 -1.8422 -0.0888
   58SAPC   C38 4391   3.389   2.188   4.979  0.8847  0.9077 -0.2094
   58SAPC   H8X 4392   3.370   2.296   4.989 -0.0529  1.0427 -2.9297
   58SAPC   H8Y 4393   3.299   2.144   4.931  0.4857  4.1777 -2.6106
   58SAPC   C39 4394   3.494   2.162   4.880  0.2367  0.2968 -0.1000
   58SAPC   H9X 4395   3.524   2.055   4.869 -0.0168  0.4841 -2.8257
   58SAPC   H9Y 4396   3.591   2.212   4.905  1.7380 -2.2375 -0.6511
   58SAPC  C310 4397   3.456   2.213   4.735  0.6794 -0.0520 -0.3293
   58SAPC  H10X 4398   3.427   2.320   4.738 -1.1572 -0.4160 -3.3622
   58SAPC  H10Y 4399   3.366   2.160   4.698  0.2566  0.7228 -0.4269
   58SAPC  C311 4400   3.568   2.186   4.633 -0.3717  0.0629  0.6843
   58SAPC  H11X 4401   3.596   2.080   4.646 -1.1225 -0.1583  0.5402
   58SAPC  H11Y 4402   3.658   2.248   4.650  0.2040 -0.7245  0.5092
   58SAPC  C312 4403   3.528   2.200   4.487 -0.2478  0.1201  0.0136
   58SAPC  H12X 4404   3.613   2.183   4.417  1.0949 -1.9206  2.0643
   58SAPC  H12Y 4405   3.483   2.301   4.476  0.1703  0.4064  0.8700
   58SAPC  C313 4406   3.421   2.109   4.419  0.5823  0.1489 -0.2593
   58SAPC  H13X 4407   3.354   2.169   4.354  0.6951  2.0275  1.3264
   58SAPC  H13Y 4408   3.365   2.055   4.498  2.0548 -0.3028  0.4939
   58SAPC  C314 4409   3.472   1.996   4.324 -0.1295  0.0253  0.3934
   58SAPC  H14X 4410   3.526   1.913   4.373  2.2082  1.4304  0.2829
   58SAPC  H14Y 4411   3.541   2.034   4.245 -2.8282 -1.8028 -2.9942
   58SAPC  C315 4412   3.345   1.939   4.242  0.6971  0.0426  0.1572
   58SAPC  H15X 4413   3.291   2.029   4.203  2.3214  1.1386  0.3846
   58SAPC  H15Y 4414   3.279   1.883   4.312  2.0635 -2.2307 -0.3406
   58SAPC  C316 4415   3.386   1.853   4.119  0.0247 -0.7158  0.5732
   58SAPC  H16X 4416   3.461   1.910   4.059  0.4186 -0.7097  1.0744
   58SAPC  H16Y 4417   3.298   1.835   4.054 -1.1005  2.9656  0.9620
   58SAPC  C317 4418   3.453   1.715   4.155 -0.3034  1.1069  1.0373
   58SAPC  H17X 4419   3.374   1.657   4.209  0.3770  1.6861  2.6720
   58SAPC  H17Y 4420   3.544   1.731   4.216  0.8305  2.1791 -0.8878
   58SAPC  C318 4421   3.488   1.627   4.036  0.7855  1.3933  0.0897
   58SAPC  H18X 4422   3.573   1.565   4.073 -0.5006  0.0540  0.8825
   58SAPC  H18Y 4423   3.523   1.687   3.950  0.6905  0.2403 -0.7637
   58SAPC  H18Z 4424   3.404   1.558   4.012  0.4709  1.8645 -0.1568
   59SAPC     N 4425   1.789   4.120   6.139 -0.1017  0.5123  0.0930
   59SAPC   C12 4426   1.866   4.071   6.012 -0.3076  0.3746  0.4872
   59SAPC  H12A 4427   1.902   3.972   6.035 -1.1616  0.3058  1.5726
   59SAPC  H12B 4428   1.949   4.136   5.991  0.5498 -1.2262 -1.1808
   59SAPC   C13 4429   1.743   4.265   6.113 -0.8036 -0.7051 -0.1842
   59SAPC  H13A 4430   1.685   4.260   6.022  0.0596 -0.1073 -0.7736
   59SAPC  H13B 4431   1.684   4.301   6.196  0.3310  0.0054  0.3293
   59SAPC  H13C 4432   1.834   4.320   6.100  0.7249 -2.6522  1.7867
   59SAPC   C14 4433   1.683   4.030   6.184  0.0529 -0.6060  0.4071
   59SAPC  H14A 4434   1.725   3.941   6.227  0.3186  0.1599  1.7519
   59SAPC  H14B 4435   1.633   4.077   6.268  1.5451  1.8312 -0.0102
   59SAPC  H14C 4436   1.614   4.008   6.104  0.0478 -0.8566  0.4797
   59SAPC   C15 4437   1.890   4.120   6.255 -0.4062 -0.0362  0.4218
   59SAPC  H15A 4438   1.926   4.020   6.275 -0.7447 -0.3865 -0.6948
   59SAPC  H15B 4439   1.977   4.178   6.224 -1.7023  2.0470  0.5727
   59SAPC  H15C 4440   1.849   4.171   6.341  1.6858  1.7314  0.4358
   59SAPC   C11 4441   1.770   4.058   5.882 -0.3237 -0.2404  0.2939
   59SAPC  H11A 4442   1.831   4.048   5.790  0.1145 -1.0388  0.6566
   59SAPC  H11B 4443   1.735   4.163   5.883 -2.1644 -0.8290  1.3141
   59SAPC     P 4444   1.531   3.967   5.836 -0.1352 -0.0101 -0.1572
   59SAPC   O13 4445   1.461   3.837   5.870  0.2601  0.1381 -0.6090
   59SAPC   O14 4446   1.473   4.096   5.876 -0.0670  0.6396 -0.5852
   59SAPC   O12 4447   1.671   3.954   5.896  0.0021  0.0083 -0.0619
   59SAPC   O11 4448   1.572   3.976   5.678  0.0410 -0.0596  0.3854
   59SAPC    C1 4449   1.560   4.105   5.612 -0.2882 -0.1551  0.0533
   59SAPC    HA 4450   1.587   4.186   5.683 -1.0226 -0.8721  1.1827
   59SAPC    HB 4451   1.626   4.111   5.523 -1.9612  1.6907 -1.1101
   59SAPC    C2 4452   1.417   4.137   5.571 -0.5382 -0.3037 -0.8373
   59SAPC    HS 4453   1.356   4.125   5.663  1.4240 -1.7710  0.3216
   59SAPC   O21 4454   1.373   4.041   5.472 -0.4180  0.3737  0.3676
   59SAPC   C21 4455   1.240   4.015   5.480  0.1910 -0.7618  0.2509
   59SAPC   O22 4456   1.160   4.062   5.560  0.7266  0.2116  0.6318
   59SAPC   C22 4457   1.202   3.915   5.370  0.0282 -0.0835 -0.2188
   59SAPC   H2R 4458   1.279   3.835   5.372  0.7367  0.6114  0.3931
   59SAPC   H2S 4459   1.100   3.870   5.378 -1.0490  2.3149 -0.0075
   59SAPC    C3 4460   1.395   4.279   5.521  0.2459  0.8333 -0.2752
   59SAPC    HX 4461   1.416   4.363   5.591 -0.0811  1.9551 -1.5100
   59SAPC    HY 4462   1.285   4.290   5.509  0.0487 -0.1613  0.4667
   59SAPC   O31 4463   1.477   4.298   5.406 -0.6826 -0.0656  0.4536
   59SAPC   C31 4464   1.413   4.334   5.302 -0.1652 -0.4612 -0.7949
   59SAPC   O32 4465   1.296   4.371   5.292 -0.3282  0.2642 -0.3976
   59SAPC   C32 4466   1.508   4.328   5.183  0.5988 -0.3443 -0.0644
   59SAPC   H2X 4467   1.561   4.230   5.179  0.7365 -0.2723  0.0002
   59SAPC   H2Y 4468   1.592   4.398   5.201 -1.2288  2.3107 -1.4694
   59SAPC   C23 4469   1.224   3.989   5.231  0.2918  0.3567 -0.6685
   59SAPC   H3R 4470   1.327   4.029   5.223  1.4678 -2.5565 -0.7058
   59SAPC   H3S 4471   1.164   4.081   5.241  0.7000  0.5282  0.2295
   59SAPC   C24 4472   1.165   3.911   5.111  0.4977 -0.0203  0.5632
   59SAPC   H4R 4473   1.152   3.999   5.044 -1.4082 -1.9204 -1.5960
   59SAPC   H4S 4474   1.060   3.880   5.131 -0.1285  2.3798  1.2490
   59SAPC   C25 4475   1.260   3.811   5.050 -0.6803  0.1096  0.1566
   59SAPC   H5R 4476   1.279   3.713   5.097 -0.7990 -1.1075 -2.2782
   59SAPC   C26 4477   1.338   3.822   4.936 -0.6514 -0.4981 -0.7496
   59SAPC   H6R 4478   1.387   3.735   4.891  0.8578 -0.3628  0.5654
   59SAPC   C27 4479   1.344   3.951   4.853  0.4327 -0.2383 -0.1022
   59SAPC   H7R 4480   1.452   3.971   4.834  0.1688  0.3777 -0.9768
   59SAPC   H7S 4481   1.316   4.041   4.911 -1.1314 -0.3327 -0.7085
   59SAPC   C28 4482   1.270   3.955   4.722  0.1514  0.3635 -0.5752
   59SAPC   H8R 4483   1.174   3.902   4.717 -0.1974  1.0456 -1.3276
   59SAPC   C29 4484   1.307   4.017   4.613 -0.7777  0.0557 -0.6083
   59SAPC   H9R 4485   1.238   4.009   4.527 -0.3395 -2.1154 -0.7669
   59SAPC  C210 4486   1.430   4.107   4.591 -0.0167 -0.0166  0.2853
   59SAPC  H10R 4487   1.514   4.077   4.658  0.7266  1.3859  0.0072
   59SAPC  H10S 4488   1.409   4.212   4.619 -0.7773 -0.3608  1.0419
   59SAPC  C211 4489   1.469   4.113   4.446  0.0663 -0.0847  0.3472
   59SAPC  H11R 4490   1.524   4.025   4.407  0.8237 -0.1321  1.5052
   59SAPC  C212 4491   1.434   4.210   4.361  0.0411 -0.7313 -0.0584
   59SAPC  H12R 4492   1.471   4.211   4.257  0.2571 -0.0296  0.0205
   59SAPC  C213 4493   1.347   4.329   4.390  0.5566  0.5653  0.6715
   59SAPC  H13R 4494   1.416   4.415   4.401  1.1094  0.4301 -1.5849
   59SAPC  H13S 4495   1.291   4.311   4.485 -0.3990 -2.0034 -0.3213
   59SAPC  C214 4496   1.260   4.363   4.271 -0.2710  0.0734 -0.2074
   59SAPC  H14R 4497   1.279   4.299   4.183 -0.4185  0.0644 -0.2328
   59SAPC  C215 4498   1.157   4.446   4.258  0.2214 -0.3930 -0.9388
   59SAPC  H15R 4499   1.101   4.456   4.164 -1.4871 -1.4109 -0.0370
   59SAPC  C216 4500   1.090   4.524   4.368 -0.0020 -0.4979 -0.0114
   59SAPC  H16R 4501   1.122   4.631   4.366  1.4984 -0.9464 -0.7542
   59SAPC  H16S 4502   1.109   4.491   4.472 -0.3648  0.4760  0.3715
   59SAPC  C217 4503   0.933   4.522   4.343 -0.2586 -0.5264 -0.7017
   59SAPC  H17R 4504   0.921   4.550   4.236  0.9715  2.1452 -0.1819
   59SAPC  H17S 4505   0.888   4.601   4.407 -1.7438 -1.0052 -1.1387
   59SAPC  C218 4506   0.870   4.386   4.360  0.4740  0.1194 -0.6191
   59SAPC  H18R 4507   0.932   4.308   4.312  2.1407  1.1942 -0.2524
   59SAPC  H18S 4508   0.775   4.390   4.302  0.0462  0.9792  0.1209
   59SAPC  C219 4509   0.839   4.363   4.500 -0.1178  0.0615  0.4820
   59SAPC  H19R 4510   0.761   4.436   4.530  0.6185  1.5325 -1.0777
   59SAPC  H19S 4511   0.926   4.389   4.564 -0.3767  1.4253  0.3017
   59SAPC  C220 4512   0.788   4.226   4.522 -0.4007  0.3875  0.0521
   59SAPC  H20R 4513   0.763   4.196   4.626 -0.5984  1.3825  0.2917
   59SAPC  H20S 4514   0.861   4.155   4.477  1.0523  0.8955  1.5407
   59SAPC  H20T 4515   0.702   4.216   4.454 -0.3430 -0.1035  0.0514
   59SAPC   C33 4516   1.443   4.363   5.044  0.5357  0.1402  0.6750
   59SAPC   H3X 4517   1.377   4.449   5.070 -2.2207 -1.4319 -0.8534
   59SAPC   H3Y 4518   1.375   4.283   5.009  1.5218 -0.3500 -0.1336
   59SAPC   C34 4519   1.534   4.388   4.924 -0.5574 -0.1930  0.1872
   59SAPC   H4X 4520   1.593   4.479   4.946 -0.6834  0.1609 -0.9082
   59SAPC   H4Y 4521   1.480   4.408   4.829 -2.1911 -3.0751  0.4222
   59SAPC   C35 4522   1.629   4.269   4.896  0.0706  0.4863 -0.2530
   59SAPC   H5X 4523   1.566   4.181   4.871  0.6051  0.0591 -0.1034
   59SAPC   H5Y 4524   1.690   4.241   4.984 -0.5200  0.1670  0.0586
   59SAPC   C36 4525   1.712   4.290   4.768  0.0667  0.2242 -0.3076
   59SAPC   H6X 4526   1.633   4.302   4.691 -1.0749 -1.8502  0.5181
   59SAPC   H6Y 4527   1.762   4.209   4.710  2.5317  1.4033  0.0999
   59SAPC   C37 4528   1.820   4.394   4.778  0.2979  0.0694 -0.2812
   59SAPC   H7X 4529   1.847   4.403   4.885 -0.3023 -0.6466 -0.0670
   59SAPC   H7Y 4530   1.775   4.494   4.758 -0.3636 -0.7009 -2.8177
   59SAPC   C38 4531   1.952   4.376   4.693  0.5145 -0.1563  0.6218
   59SAPC   H8X 4532   1.986   4.274   4.721 -1.2637 -0.6450  1.0663
   59SAPC   H8Y 4533   2.043   4.437   4.713  1.2425 -1.2465  0.6948
   59SAPC   C39 4534   1.934   4.373   4.535 -0.6627  0.3172 -0.5715
   59SAPC   H9X 4535   1.866   4.294   4.498  0.6005 -0.5069 -1.1607
   59SAPC   H9Y 4536   2.035   4.364   4.491  0.5955  5.0814  1.0322
   59SAPC  C310 4537   1.887   4.502   4.470 -0.7047  0.0986  0.8207
   59SAPC  H10X 4538   1.970   4.574   4.484 -0.3309 -0.1637 -0.0083
   59SAPC  H10Y 4539   1.793   4.521   4.527  0.0318  1.7996  1.4770
   59SAPC  C311 4540   1.848   4.495   4.325  1.2307  0.4031  0.1192
   59SAPC  H11X 4541   1.785   4.404   4.321  1.2135  0.3332  1.6333
   59SAPC  H11Y 4542   1.937   4.488   4.259  1.4583 -0.9102  0.5430
   59SAPC  C312 4543   1.759   4.618   4.278 -1.0524 -0.2486 -0.0663
   59SAPC  H12X 4544   1.825   4.685   4.219  1.5378 -3.0496 -0.4662
   59SAPC  H12Y 4545   1.716   4.668   4.368 -0.2866  1.0432 -0.4129
   59SAPC  C313 4546   1.644   4.572   4.185  0.0506 -0.0281  0.1008
   59SAPC  H13X 4547   1.563   4.648   4.192 -0.4978 -0.7186  1.4650
   59SAPC  H13Y 4548   1.603   4.473   4.218  0.8936 -1.1011 -1.9676
   59SAPC  C314 4549   1.706   4.568   4.049 -0.1767  0.2884 -0.2487
   59SAPC  H14X 4550   1.789   4.496   4.069  0.7614  2.0823  2.5201
   59SAPC  H14Y 4551   1.755   4.663   4.019  1.0529 -0.6813 -1.3812
   59SAPC  C315 4552   1.607   4.530   3.934  0.1909  0.9741 -0.2932
   59SAPC  H15X 4553   1.532   4.607   3.907 -1.0459 -0.0573  0.1487
   59SAPC  H15Y 4554   1.547   4.450   3.981  0.4773 -0.1423 -1.7753
   59SAPC  C316 4555   1.686   4.511   3.803  0.2640  0.6735  0.2005
   59SAPC  H16X 4556   1.753   4.600   3.800  1.0557  0.0606 -5.0988
   59SAPC  H16Y 4557   1.621   4.521   3.714  1.7147 -0.8088 -1.0500
   59SAPC  C317 4558   1.748   4.376   3.803 -0.1694  0.0221 -0.2278
   59SAPC  H17X 4559   1.834   4.368   3.873 -1.4188  0.2970  1.3783
   59SAPC  H17Y 4560   1.796   4.370   3.703  0.3477 -0.8884  0.0746
   59SAPC  C318 4561   1.649   4.261   3.806 -0.0158  0.2084  0.0729
   59SAPC  H18X 4562   1.579   4.254   3.720 -1.7241  0.4473  1.4398
   59SAPC  H18Y 4563   1.580   4.256   3.893 -1.1883 -0.8997 -0.9029
   59SAPC  H18Z 4564   1.704   4.164   3.805 -1.3986 -0.6099  1.2359
   60SAPC     N 4565   1.196   4.761   6.088 -0.0960 -0.4723  0.1267
   60SAPC   C12 4566   1.070   4.736   6.000 -0.3740  0.7331 -0.8009
   60SAPC  H12A 4567   0.998   4.812   6.027  1.1520  1.6539  0.8111
   60SAPC  H12B 4568   1.023   4.641   6.019  1.0971 -0.2155 -1.8086
   60SAPC   C13 4569   1.236   4.907   6.081 -0.5618  0.4849 -0.3337
   60SAPC  H13A 4570   1.238   4.942   5.979 -0.1841  2.3938  0.3228
   60SAPC  H13B 4571   1.174   4.973   6.139 -0.5079 -0.2151  0.5341
   60SAPC  H13C 4572   1.334   4.919   6.125  0.0310  0.6174 -1.6586
   60SAPC   C14 4573   1.163   4.737   6.232 -0.2548 -0.1451  0.2183
   60SAPC  H14A 4574   1.121   4.639   6.248  1.3179 -0.9097 -0.2703
   60SAPC  H14B 4575   1.254   4.733   6.291  0.9865  2.1506 -1.4547
   60SAPC  H14C 4576   1.088   4.806   6.268 -1.8798 -1.4763 -0.5645
   60SAPC   C15 4577   1.305   4.670   6.049  0.3040  1.0097  0.4886
   60SAPC  H15A 4578   1.280   4.566   6.054  1.9628  0.6139  1.1213
   60SAPC  H15B 4579   1.335   4.695   5.949  0.6932  0.8878  0.5735
   60SAPC  H15C 4580   1.393   4.671   6.113  1.7865  0.4796 -1.5123
   60SAPC   C11 4581   1.083   4.744   5.851 -0.4722  0.4671 -0.2861
   60SAPC  H11A 4582   1.148   4.828   5.817  3.6281 -2.6693 -0.5977
   60SAPC  H11B 4583   0.980   4.758   5.811 -0.5993  0.3009 -0.0200
   60SAPC     P 4584   1.056   4.488   5.812  0.6405 -0.2332  0.0263
   60SAPC   O13 4585   1.157   4.385   5.792 -0.0484 -0.2388 -0.3162
   60SAPC   O14 4586   0.969   4.486   5.933 -0.0071 -0.3892 -0.2315
   60SAPC   O12 4587   1.134   4.625   5.801  0.2201  0.4225 -0.2522
   60SAPC   O11 4588   0.965   4.483   5.679 -0.0986 -0.2352 -0.3024
   60SAPC    C1 4589   1.005   4.466   5.546 -0.8635 -0.5624 -0.4199
   60SAPC    HA 4590   1.110   4.497   5.527 -0.5411  0.4674  2.7728
   60SAPC    HB 4591   1.005   4.356   5.535 -0.6609 -0.6088  0.0319
   60SAPC    C2 4592   0.921   4.543   5.448  0.1006 -0.4005 -0.6611
   60SAPC    HS 4593   0.818   4.508   5.471  1.2971 -1.5060  3.5546
   60SAPC   O21 4594   0.959   4.520   5.317  0.2970 -0.0812 -0.6538
   60SAPC   C21 4595   0.941   4.395   5.272  0.0955  0.7552  0.2972
   60SAPC   O22 4596   0.904   4.300   5.339  0.9778 -0.1829  0.0739
   60SAPC   C22 4597   0.982   4.399   5.119  0.1099 -0.0270  0.2027
   60SAPC   H2R 4598   0.943   4.490   5.068 -3.4404 -0.3724  2.1139
   60SAPC   H2S 4599   1.089   4.428   5.109 -0.2974  0.5548 -2.9184
   60SAPC    C3 4600   0.929   4.698   5.470 -0.3450  0.3120 -0.8174
   60SAPC    HX 4601   0.898   4.718   5.575  0.4126  1.8139 -0.8591
   60SAPC    HY 4602   0.846   4.732   5.404 -0.2804  2.5709  0.2186
   60SAPC   O31 4603   1.062   4.753   5.450 -0.1496 -0.1325 -0.4405
   60SAPC   C31 4604   1.070   4.799   5.324 -0.2912 -0.1360 -0.0443
   60SAPC   O32 4605   0.985   4.824   5.251  0.1802  0.3219 -0.2446
   60SAPC   C32 4606   1.214   4.823   5.280  0.3855 -0.3344 -0.3681
   60SAPC   H2X 4607   1.259   4.890   5.357 -0.1127 -2.0049  1.4309
   60SAPC   H2Y 4608   1.222   4.869   5.180  0.9887 -0.4114 -0.3593
   60SAPC   C23 4609   0.954   4.266   5.041  0.0956 -0.0591 -0.2480
   60SAPC   H3R 4610   0.856   4.228   5.078  0.7759 -0.7134  0.9503
   60SAPC   H3S 4611   1.029   4.192   5.077 -0.7491 -0.7882  0.0291
   60SAPC   C24 4612   0.966   4.291   4.887 -0.4247 -0.8358 -0.0973
   60SAPC   H4R 4613   0.890   4.362   4.848  0.6988  0.0190 -0.7714
   60SAPC   H4S 4614   0.936   4.196   4.837  1.6862 -1.1619 -0.7914
   60SAPC   C25 4615   1.106   4.320   4.832  0.3907 -0.0059  0.1280
   60SAPC   H5R 4616   1.182   4.239   4.832 -0.4543 -0.8329 -2.0430
   60SAPC   C26 4617   1.150   4.429   4.781 -0.3044 -0.0790  0.1591
   60SAPC   H6R 4618   1.247   4.422   4.729 -1.4297 -1.7686 -1.7520
   60SAPC   C27 4619   1.082   4.568   4.760  0.2442 -0.1339 -1.0212
   60SAPC   H7R 4620   0.971   4.556   4.759  0.0998  1.1747 -0.8486
   60SAPC   H7S 4621   1.109   4.609   4.660  0.8202  1.2225 -0.3089
   60SAPC   C28 4622   1.119   4.672   4.865  0.7974 -0.4168  0.0170
   60SAPC   H8R 4623   1.181   4.635   4.948 -1.4210 -0.5089  1.7024
   60SAPC   C29 4624   1.081   4.798   4.876 -0.0590 -0.1852 -0.0143
   60SAPC   H9R 4625   1.102   4.842   4.974 -0.1163  1.2712 -0.6301
   60SAPC  C210 4626   1.002   4.883   4.786  0.2231  0.1648  1.1889
   60SAPC  H10R 4627   1.042   4.985   4.805 -2.0047  1.5802 -1.4273
   60SAPC  H10S 4628   0.899   4.883   4.827 -1.3779  1.5579 -2.6713
   60SAPC  C211 4629   0.993   4.855   4.637  0.5634  1.0101  0.9176
   60SAPC  H11R 4630   1.080   4.801   4.598 -0.9328 -1.4126  0.8773
   60SAPC  C212 4631   0.884   4.860   4.560  0.3740  0.1305 -0.7565
   60SAPC  H12R 4632   0.897   4.817   4.459  1.7183 -0.4131 -0.3533
   60SAPC  C213 4633   0.748   4.911   4.600  0.1229  0.3295 -0.2326
   60SAPC  H13R 4634   0.730   4.917   4.709 -0.9942 -1.0625 -0.3134
   60SAPC  H13S 4635   0.663   4.852   4.558 -1.3083  2.1546  0.0419
   60SAPC  C214 4636   0.732   5.052   4.553 -0.1491 -0.8689  0.0516
   60SAPC  H14R 4637   0.817   5.113   4.588 -1.5809 -0.2842  2.6603
   60SAPC  C215 4638   0.638   5.115   4.481  0.7641 -0.9739 -0.4318
   60SAPC  H15R 4639   0.655   5.221   4.458  0.0332 -0.3582  1.6776
   60SAPC  C216 4640   0.508   5.063   4.427 -0.0846  0.1796 -0.2388
   60SAPC  H16R 4641   0.422   5.087   4.492  0.9915 -0.4054  1.4263
   60SAPC  H16S 4642   0.501   4.953   4.437  1.9079 -0.0980 -1.5234
   60SAPC  C217 4643   0.480   5.104   4.284 -0.6492 -0.4954 -0.2404
   60SAPC  H17R 4644   0.559   5.061   4.218  1.1258  1.7086  0.3480
   60SAPC  H17S 4645   0.478   5.215   4.279 -4.7926 -0.2710  3.8004
   60SAPC  C218 4646   0.348   5.043   4.235  0.1384 -0.0172 -0.6200
   60SAPC  H18R 4647   0.275   5.079   4.309  0.0269  0.1693 -0.8231
   60SAPC  H18S 4648   0.351   4.932   4.229  2.1844  0.0511 -1.3708
   60SAPC  C219 4649   0.288   5.090   4.094 -0.5787  0.3065 -0.0961
   60SAPC  H19R 4650   0.339   5.032   4.014  0.3750  0.5108  0.3583
   60SAPC  H19S 4651   0.321   5.196   4.083  1.5366 -0.0257  2.4821
   60SAPC  C220 4652   0.139   5.061   4.070 -0.2994  0.0769  0.6191
   60SAPC  H20R 4653   0.111   4.957   4.096 -1.4434  0.2779  0.2269
   60SAPC  H20S 4654   0.115   5.080   3.964 -1.8342 -2.9650  0.3606
   60SAPC  H20T 4655   0.074   5.136   4.120 -1.0522  0.7715 -1.3735
   60SAPC   C33 4656   1.295   4.690   5.274  0.5349 -0.1281 -0.7515
   60SAPC   H3X 4657   1.246   4.619   5.205 -0.4851 -0.6006  0.4459
   60SAPC   H3Y 4658   1.295   4.653   5.379  0.3232 -0.3381 -0.8267
   60SAPC   C34 4659   1.437   4.714   5.228 -0.7653 -0.1510 -0.4004
   60SAPC   H4X 4660   1.501   4.626   5.249 -0.5915  0.0848  0.0575
   60SAPC   H4Y 4661   1.470   4.800   5.291 -1.6331  0.7714 -1.1955
   60SAPC   C35 4662   1.450   4.749   5.072  0.1683 -0.0539  0.7511
   60SAPC   H5X 4663   1.375   4.827   5.046  1.0803  1.2564  1.9926
   60SAPC   H5Y 4664   1.438   4.651   5.019  0.5752 -0.9658  2.3217
   60SAPC   C36 4665   1.594   4.795   5.032 -0.6364 -0.0213 -0.0778
   60SAPC   H6X 4666   1.663   4.730   5.090  0.5487  0.3712 -1.0482
   60SAPC   H6Y 4667   1.615   4.897   5.071  3.1625 -1.4362  1.8052
   60SAPC   C37 4668   1.618   4.789   4.880 -0.1582  0.5458  0.0728
   60SAPC   H7X 4669   1.624   4.685   4.843  0.0468  1.4652 -2.6031
   60SAPC   H7Y 4670   1.706   4.844   4.842 -0.0403  0.5117  0.2946
   60SAPC   C38 4671   1.498   4.851   4.797 -1.1546 -0.1321 -0.0801
   60SAPC   H8X 4672   1.505   4.961   4.796  1.0095 -0.2498  0.0456
   60SAPC   H8Y 4673   1.397   4.816   4.828 -0.2340 -1.8571  1.0805
   60SAPC   C39 4674   1.511   4.816   4.649 -0.1416 -0.3767  0.1579
   60SAPC   H9X 4675   1.491   4.707   4.656 -1.8800 -0.1278 -0.6323
   60SAPC   H9Y 4676   1.614   4.834   4.611  0.1994 -0.5413  0.9866
   60SAPC  C310 4677   1.401   4.875   4.552 -0.0669  0.1071 -0.0828
   60SAPC  H10X 4678   1.419   4.984   4.546 -1.5561  0.5308  2.2008
   60SAPC  H10Y 4679   1.302   4.865   4.603 -0.4766 -2.7248 -1.3232
   60SAPC  C311 4680   1.387   4.802   4.413 -0.3913 -0.4565 -0.6252
   60SAPC  H11X 4681   1.375   4.694   4.436 -1.6421  0.4031  2.9988
   60SAPC  H11Y 4682   1.485   4.806   4.360  1.0465 -2.4614  1.7615
   60SAPC  C312 4683   1.283   4.873   4.323  0.1885 -0.0735 -0.2019
   60SAPC  H12X 4684   1.307   4.981   4.318  1.5322 -0.3515  0.1803
   60SAPC  H12Y 4685   1.179   4.884   4.362  1.3669  1.4166  2.6480
   60SAPC  C313 4686   1.276   4.823   4.180 -0.3006 -0.0029  0.1290
   60SAPC  H13X 4687   1.267   4.713   4.193 -0.6837  0.2341  2.0246
   60SAPC  H13Y 4688   1.375   4.844   4.137 -0.1622 -2.6688 -0.9383
   60SAPC  C314 4689   1.170   4.877   4.090  0.4492 -0.5806 -0.1754
   60SAPC  H14X 4690   1.188   4.855   3.983 -2.5521  1.1507 -1.1241
   60SAPC  H14Y 4691   1.179   4.987   4.103  0.3894 -0.5506 -0.3931
   60SAPC  C315 4692   1.031   4.838   4.125  0.3109  0.5612 -0.2512
   60SAPC  H15X 4693   1.007   4.857   4.232  1.2098 -1.6366  0.3643
   60SAPC  H15Y 4694   1.006   4.731   4.114  2.7637  0.1959 -2.8349
   60SAPC  C316 4695   0.923   4.909   4.041 -0.3041 -0.2035 -0.1234
   60SAPC  H16X 4696   0.916   4.872   3.936  0.2243  3.8394 -1.7058
   60SAPC  H16Y 4697   0.963   5.011   4.020 -1.4660 -0.1022 -1.9601
   60SAPC  C317 4698   0.792   4.927   4.115  0.0108 -0.0874  0.0967
   60SAPC  H17X 4699   0.717   4.983   4.055 -0.6103 -0.8366  0.1633
   60SAPC  H17Y 4700   0.813   4.979   4.211  2.9236 -0.1902 -0.4395
   60SAPC  C318 4701   0.734   4.794   4.154 -0.2696 -0.6469  0.0246
   60SAPC  H18X 4702   0.722   4.722   4.071 -1.2878  0.4808 -0.8431
   60SAPC  H18Y 4703   0.631   4.808   4.193 -0.3703  0.5022 -0.6102
   60SAPC  H18Z 4704   0.794   4.759   4.240 -0.1315 -2.3793 -0.7775
   61SAPC     N 4705   6.265   4.474   5.987  0.3441 -0.2444  0.2674
   61SAPC   C12 4706   6.316   4.546   6.105  0.5793 -0.2478 -0.1382
   61SAPC  H12A 4707   6.406   4.492   6.132  1.2206  1.8546  2.1275
   61SAPC  H12B 4708   6.243   4.532   6.184  1.4937 -0.1134  0.7410
   61SAPC   C13 4709   6.258   4.330   6.020  0.3980 -0.2682 -0.1868
   61SAPC  H13A 4710   6.180   4.270   5.974 -0.4429  0.1338  0.6839
   61SAPC  H13B 4711   6.353   4.279   6.017  0.4532 -0.2285  0.7427
   61SAPC  H13C 4712   6.221   4.320   6.121 -1.4373  1.7043 -0.6127
   61SAPC   C14 4713   6.125   4.520   5.960  0.8046 -0.8549  0.5051
   61SAPC  H14A 4714   6.091   4.481   5.865  2.1645 -0.1372 -0.2994
   61SAPC  H14B 4715   6.055   4.476   6.029 -0.8865  0.4420 -0.3633
   61SAPC  H14C 4716   6.106   4.626   5.956 -0.2163 -1.0973 -2.1931
   61SAPC   C15 4717   6.347   4.499   5.866  0.3553 -0.1352  0.4050
   61SAPC  H15A 4718   6.367   4.604   5.853 -1.3421  0.0469 -1.0295
   61SAPC  H15B 4719   6.448   4.462   5.873  0.4359  0.4423  2.5906
   61SAPC  H15C 4720   6.296   4.462   5.778  1.3340 -0.6853  0.0596
   61SAPC   C11 4721   6.345   4.694   6.092 -0.4238 -0.2958 -0.3380
   61SAPC  H11A 4722   6.412   4.714   6.005  2.4761  1.4541  2.2144
   61SAPC  H11B 4723   6.397   4.729   6.184  0.5316  1.6253 -1.5776
   61SAPC     P 4724   6.168   4.873   6.179 -0.9973 -0.3057 -0.1305
   61SAPC   O13 4725   6.046   4.931   6.122  0.0790 -0.3919  0.8008
   61SAPC   O14 4726   6.156   4.805   6.314  0.2791  0.2895 -0.3275
   61SAPC   O12 4727   6.228   4.779   6.068 -0.3078 -0.4699 -0.5694
   61SAPC   O11 4728   6.274   4.992   6.196 -0.7376  0.1527 -0.4244
   61SAPC    C1 4729   6.369   5.034   6.089  0.2464 -0.1160  0.0623
   61SAPC    HA 4730   6.399   4.965   6.008  0.8646  1.8835 -1.4441
   61SAPC    HB 4731   6.321   5.121   6.040  2.3716  0.6103 -0.8108
   61SAPC    C2 4732   6.491   5.075   6.160 -0.5351 -0.6725  0.1782
   61SAPC    HS 4733   6.463   5.139   6.245  1.5714 -2.6235  2.4222
   61SAPC   O21 4734   6.566   5.152   6.064  0.1743  0.5573  0.9217
   61SAPC   C21 4735   6.662   5.230   6.091  0.3799  0.1781 -0.2166
   61SAPC   O22 4736   6.699   5.258   6.207  0.5631  0.8549  0.3496
   61SAPC   C22 4737   6.713   5.288   5.961  0.3676  0.5122 -0.5163
   61SAPC   H2R 4738   6.642   5.369   5.936 -0.3474  0.2496  0.6205
   61SAPC   H2S 4739   6.816   5.323   5.986  0.4863 -0.2331  0.0742
   61SAPC    C3 4740   6.562   4.957   6.219  0.3793  0.2354  0.0293
   61SAPC    HX 4741   6.490   4.910   6.289 -0.1175  2.8864  1.3645
   61SAPC    HY 4742   6.637   4.992   6.294  1.5894  1.1148 -1.5476
   61SAPC   O31 4743   6.613   4.862   6.117 -0.3815  0.3691 -0.1834
   61SAPC   C31 4744   6.740   4.843   6.107  0.2172 -0.4963 -0.8283
   61SAPC   O32 4745   6.825   4.878   6.190  0.0518 -0.1472 -0.7625
   61SAPC   C32 4746   6.771   4.789   5.961  0.1720 -0.3054  0.8742
   61SAPC   H2X 4747   6.852   4.713   5.949  0.4988  0.0313  0.9176
   61SAPC   H2Y 4748   6.815   4.878   5.911 -0.7823 -0.5928 -0.4864
   61SAPC   C23 4749   6.718   5.187   5.851  0.0740 -0.8396  0.0899
   61SAPC   H3R 4750   6.618   5.151   5.820 -0.1005  2.8292 -4.1692
   61SAPC   H3S 4751   6.773   5.096   5.882  2.5708  0.1178 -1.3893
   61SAPC   C24 4752   6.806   5.246   5.736  0.9442 -0.2157 -0.4233
   61SAPC   H4R 4753   6.821   5.165   5.661  1.3707 -0.1631 -0.3954
   61SAPC   H4S 4754   6.903   5.284   5.776  0.1025  2.1304 -0.5619
   61SAPC   C25 4755   6.724   5.360   5.674  0.3419 -0.2712  0.0866
   61SAPC   H5R 4756   6.703   5.450   5.733  0.1192  0.9524 -1.8002
   61SAPC   C26 4757   6.682   5.364   5.548  0.2406  0.6612 -0.2533
   61SAPC   H6R 4758   6.619   5.450   5.520 -0.7076  0.2779  0.6347
   61SAPC   C27 4759   6.704   5.260   5.438 -0.0801  0.3023 -0.5075
   61SAPC   H7R 4760   6.811   5.255   5.408  0.4163  2.0421  0.9054
   61SAPC   H7S 4761   6.666   5.302   5.343  0.8088 -0.4834 -1.2251
   61SAPC   C28 4762   6.659   5.122   5.460  0.0998 -0.0543 -0.8161
   61SAPC   H8R 4763   6.630   5.097   5.562 -2.2142  0.2509 -1.3707
   61SAPC   C29 4764   6.631   5.031   5.370 -0.1150 -0.5025 -0.2936
   61SAPC   H9R 4765   6.604   4.931   5.408  0.3450 -0.7163 -0.5290
   61SAPC  C210 4766   6.656   5.045   5.220  0.3067  0.2232  0.7506
   61SAPC  H10R 4767   6.762   5.069   5.195  1.0724 -1.2882  2.4395
   61SAPC  H10S 4768   6.596   5.132   5.184 -1.1326 -1.3977 -0.8160
   61SAPC  C211 4769   6.605   4.926   5.142 -0.1307  0.5873  0.0148
   61SAPC  H11R 4770   6.506   4.944   5.097 -0.1632  2.3218  0.7237
   61SAPC  C212 4771   6.657   4.802   5.143 -0.6969 -0.4143 -0.6355
   61SAPC  H12R 4772   6.625   4.726   5.070  0.6327 -2.5297  0.9259
   61SAPC  C213 4773   6.785   4.765   5.213  0.2383  0.0117  0.4381
   61SAPC  H13R 4774   6.794   4.818   5.311  0.3943 -0.0935  0.4791
   61SAPC  H13S 4775   6.866   4.800   5.146 -0.9801 -0.7947 -1.4784
   61SAPC  C214 4776   6.799   4.623   5.247  0.4269  0.5951 -0.2171
   61SAPC  H14R 4777   6.730   4.582   5.321 -1.3686  0.8373 -1.7355
   61SAPC  C215 4778   6.881   4.535   5.178  0.4676  0.0055 -0.3581
   61SAPC  H15R 4779   6.894   4.431   5.212 -1.4478  0.0099  0.4448
   61SAPC  C216 4780   6.956   4.574   5.053  0.7240  0.1059  0.5514
   61SAPC  H16R 4781   7.050   4.629   5.079 -0.5223  3.3371 -1.4610
   61SAPC  H16S 4782   6.898   4.648   4.994  0.9967  0.2849  0.5031
   61SAPC  C217 4783   6.981   4.444   4.971  0.6320 -0.1971  0.0054
   61SAPC  H17R 4784   6.883   4.394   4.954  0.4064  0.2709 -0.0849
   61SAPC  H17S 4785   7.045   4.368   5.021  1.0927  0.3789  0.3034
   61SAPC  C218 4786   7.044   4.470   4.839  0.1406 -0.4175 -0.0920
   61SAPC  H18R 4787   7.139   4.529   4.841  0.1520 -0.4723  1.8320
   61SAPC  H18S 4788   6.964   4.532   4.792  0.5302  0.5062  0.4323
   61SAPC  C219 4789   7.065   4.344   4.757 -0.2137 -0.7176 -0.6294
   61SAPC  H19R 4790   6.972   4.282   4.757 -0.7021  0.0034 -0.7510
   61SAPC  H19S 4791   7.137   4.279   4.810 -1.9796 -1.6806  0.6456
   61SAPC  C220 4792   7.110   4.366   4.612 -0.4866 -0.1539  0.6860
   61SAPC  H20R 4793   7.212   4.409   4.612  0.4878 -2.4019  1.0011
   61SAPC  H20S 4794   7.033   4.431   4.565  0.8438  1.0447  0.1492
   61SAPC  H20T 4795   7.126   4.273   4.553 -0.8539 -0.6716  1.3852
   61SAPC   C33 4796   6.641   4.766   5.872 -0.5288  0.7211 -1.1231
   61SAPC   H3X 4797   6.571   4.852   5.868 -1.6352 -0.0549  0.8148
   61SAPC   H3Y 4798   6.586   4.673   5.898 -0.0107  0.6313 -0.3358
   61SAPC   C34 4799   6.684   4.750   5.724  0.0174 -0.1889 -0.4041
   61SAPC   H4X 4800   6.769   4.679   5.711  0.5541  0.8719 -2.9286
   61SAPC   H4Y 4801   6.743   4.840   5.694  0.6592 -0.6218 -0.4498
   61SAPC   C35 4802   6.571   4.722   5.620 -0.4484  0.0660  0.0433
   61SAPC   H5X 4803   6.604   4.771   5.526  1.4640  2.1689  1.7785
   61SAPC   H5Y 4804   6.477   4.772   5.650 -1.4000 -0.7246 -1.5339
   61SAPC   C36 4805   6.545   4.575   5.568 -0.4631 -0.7735  0.7071
   61SAPC   H6X 4806   6.541   4.500   5.650  1.2332 -0.2388  1.2909
   61SAPC   H6Y 4807   6.620   4.542   5.493  0.8127 -0.6414  1.9096
   61SAPC   C37 4808   6.409   4.558   5.495 -0.1914  0.7481 -0.2872
   61SAPC   H7X 4809   6.329   4.601   5.559  0.1727  0.8474  0.1024
   61SAPC   H7Y 4810   6.381   4.451   5.481  1.1563  0.5145 -1.1965
   61SAPC   C38 4811   6.422   4.622   5.358  0.3467 -0.4583 -0.6083
   61SAPC   H8X 4812   6.511   4.577   5.308  0.1466 -0.1064 -1.2897
   61SAPC   H8Y 4813   6.451   4.729   5.367  1.0916 -0.6297 -0.9115
   61SAPC   C39 4814   6.287   4.614   5.284 -0.2919 -0.4693  0.3376
   61SAPC   H9X 4815   6.213   4.660   5.352 -0.5745 -0.3342 -0.0561
   61SAPC   H9Y 4816   6.270   4.504   5.275  0.8528 -0.7162  1.0068
   61SAPC  C310 4817   6.290   4.684   5.150 -0.1454 -0.0551  0.6620
   61SAPC  H10X 4818   6.346   4.779   5.156  0.1499 -0.4037  4.5017
   61SAPC  H10Y 4819   6.184   4.692   5.117 -0.7731 -0.3680  2.5072
   61SAPC  C311 4820   6.371   4.610   5.045 -0.1782 -0.6113 -0.1489
   61SAPC  H11X 4821   6.340   4.506   5.021 -1.2175 -0.1994 -0.5896
   61SAPC  H11Y 4822   6.479   4.602   5.072 -0.0346 -0.0816 -0.5587
   61SAPC  C312 4823   6.360   4.682   4.910 -0.1209 -0.2696 -0.0725
   61SAPC  H12X 4824   6.398   4.786   4.915  2.1739 -1.0113 -1.4582
   61SAPC  H12Y 4825   6.255   4.675   4.875 -0.2142  0.8579 -0.0218
   61SAPC  C313 4826   6.440   4.604   4.794 -0.5048 -0.6345 -0.2570
   61SAPC  H13X 4827   6.424   4.663   4.701  0.5505  0.3717  0.1829
   61SAPC  H13Y 4828   6.379   4.517   4.763 -2.0010  0.0879  0.6030
   61SAPC  C314 4829   6.591   4.570   4.828 -0.0375  0.3310  0.5472
   61SAPC  H14X 4830   6.591   4.507   4.919  1.1189  0.2772  0.5094
   61SAPC  H14Y 4831   6.640   4.669   4.840 -1.5616  0.9201  2.1602
   61SAPC  C315 4832   6.664   4.496   4.717  1.1142  0.7122 -0.0847
   61SAPC  H15X 4833   6.604   4.404   4.704 -1.0410  2.3040 -1.7743
   61SAPC  H15Y 4834   6.763   4.471   4.761 -0.0955 -2.2255  1.0556
   61SAPC  C316 4835   6.682   4.572   4.588 -0.0635  0.6724  0.1178
   61SAPC  H16X 4836   6.738   4.665   4.614  0.9946  0.6975 -2.1263
   61SAPC  H16Y 4837   6.588   4.611   4.545  0.5128  0.5366 -1.2952
   61SAPC  C317 4838   6.758   4.494   4.475  0.3166 -0.0385 -0.0788
   61SAPC  H17X 4839   6.837   4.428   4.517  2.8150  2.2117 -1.0941
   61SAPC  H17Y 4840   6.809   4.563   4.405  1.2106 -1.8150 -1.2096
   61SAPC  C318 4841   6.655   4.426   4.379  0.2617  0.3563 -0.5132
   61SAPC  H18X 4842   6.590   4.505   4.336 -0.4466  0.5121  0.8259
   61SAPC  H18Y 4843   6.593   4.357   4.441 -0.9296  1.8618  0.0080
   61SAPC  H18Z 4844   6.701   4.364   4.299  0.7632  0.1737 -0.0831
   62SAPC     N 4845   0.267   2.297   6.318 -0.6538 -0.1481  0.2906
   62SAPC   C12 4846   0.210   2.349   6.184  0.3226  0.0806  0.2332
   62SAPC  H12A 4847   0.105   2.323   6.187  0.1775  0.7561  3.5991
   62SAPC  H12B 4848   0.255   2.291   6.105  2.6252  1.9556  0.1211
   62SAPC   C13 4849   0.409   2.332   6.349 -0.2587 -0.6033 -0.1843
   62SAPC  H13A 4850   0.409   2.439   6.362  2.9010 -0.9698  3.5267
   62SAPC  H13B 4851   0.451   2.286   6.437  1.6324  0.5396 -0.4586
   62SAPC  H13C 4852   0.477   2.312   6.267  0.6678 -1.0879  0.6867
   62SAPC   C14 4853   0.182   2.352   6.429  0.5207 -0.5314 -0.5926
   62SAPC  H14A 4854   0.183   2.459   6.431  1.4361 -0.5103 -1.4882
   62SAPC  H14B 4855   0.082   2.315   6.411  0.7404 -0.9338 -0.9984
   62SAPC  H14C 4856   0.203   2.310   6.527 -2.5852  0.4015  0.5476
   62SAPC   C15 4857   0.253   2.149   6.321 -0.5170 -0.1253  0.1224
   62SAPC  H15A 4858   0.298   2.106   6.410  2.3746  2.2519 -0.1112
   62SAPC  H15B 4859   0.151   2.115   6.329 -0.8619  1.0692  0.9791
   62SAPC  H15C 4860   0.304   2.103   6.238  0.1733 -0.0095  0.4768
   62SAPC   C11 4861   0.228   2.501   6.144 -0.2092  0.0443 -0.1153
   62SAPC  H11A 4862   0.176   2.568   6.216 -0.0982 -0.1734  0.1702
   62SAPC  H11B 4863   0.185   2.519   6.043 -0.5494  0.0271  0.0264
   62SAPC     P 4864   0.463   2.477   6.025 -0.3193  0.2816  0.4370
   62SAPC   O13 4865   0.594   2.547   6.025  0.1473 -0.0427  0.2740
   62SAPC   O14 4866   0.481   2.333   6.050  0.0328  0.5703  0.4121
   62SAPC   O12 4867   0.371   2.532   6.135 -0.2314 -0.0264 -0.0328
   62SAPC   O11 4868   0.392   2.506   5.882 -0.5250  0.0809  0.3058
   62SAPC    C1 4869   0.350   2.635   5.828  1.2636 -0.4758  0.1296
   62SAPC    HA 4870   0.245   2.648   5.862  0.7453 -0.7148 -1.3392
   62SAPC    HB 4871   0.412   2.718   5.868  0.4284  0.6336 -0.8567
   62SAPC    C2 4872   0.357   2.636   5.676  0.0471  0.7697 -0.5259
   62SAPC    HS 4873   0.336   2.742   5.648  0.0537  1.2375  1.1879
   62SAPC   O21 4874   0.254   2.560   5.609  0.1119  0.2267 -0.4582
   62SAPC   C21 4875   0.128   2.604   5.629  0.5564  0.2389 -0.0875
   62SAPC   O22 4876   0.094   2.714   5.678  0.1508 -0.2187  0.5084
   62SAPC   C22 4877   0.026   2.506   5.569  0.8524  0.0629  0.2196
   62SAPC   H2R 4878   0.082   2.411   5.552 -0.3243 -1.0011  2.1438
   62SAPC   H2S 4879  -0.058   2.488   5.640  1.5573 -0.5947  0.8991
   62SAPC    C3 4880   0.493   2.583   5.631  0.3608  0.0406 -0.4159
   62SAPC    HX 4881   0.519   2.484   5.675  1.1543 -0.0548 -1.0693
   62SAPC    HY 4882   0.572   2.650   5.671  0.6038 -0.1294 -0.6030
   62SAPC   O31 4883   0.492   2.588   5.485  0.5000 -0.1587  0.2431
   62SAPC   C31 4884   0.552   2.678   5.421  0.7923 -0.4615  0.7834
   62SAPC   O32 4885   0.606   2.780   5.459 -0.2058  0.3872 -0.0443
   62SAPC   C32 4886   0.523   2.655   5.274 -0.6424 -0.2752 -0.1758
   62SAPC   H2X 4887   0.466   2.744   5.241  0.5851  0.1721 -1.0799
   62SAPC   H2Y 4888   0.461   2.563   5.263 -0.2714 -0.5165 -0.2389
   62SAPC   C23 4889  -0.022   2.541   5.429  0.8136 -0.5244  0.1973
   62SAPC   H3R 4890  -0.082   2.635   5.430  0.4019 -0.7848  1.3005
   62SAPC   H3S 4891  -0.093   2.465   5.391  0.9267 -0.9989  0.9263
   62SAPC   C24 4892   0.091   2.566   5.322  0.0735 -0.0176  0.5032
   62SAPC   H4R 4893   0.160   2.651   5.340  1.8028 -1.3948  0.4998
   62SAPC   H4S 4894   0.039   2.585   5.226  1.3536 -1.2292 -0.4566
   62SAPC   C25 4895   0.191   2.450   5.298  0.2164  0.1592 -0.7920
   62SAPC   H5R 4896   0.258   2.429   5.382  0.4643 -2.3203 -1.5764
   62SAPC   C26 4897   0.203   2.375   5.189 -0.1354  0.0962 -0.8253
   62SAPC   H6R 4898   0.276   2.295   5.210 -1.0190  0.1085  2.7431
   62SAPC   C27 4899   0.136   2.375   5.056  0.0026 -0.4615  0.6746
   62SAPC   H7R 4900   0.027   2.387   5.074  0.3567  0.8083  2.1120
   62SAPC   H7S 4901   0.144   2.268   5.026  2.3353  0.2541 -1.3710
   62SAPC   C28 4902   0.191   2.477   4.958 -0.4134  0.0173  0.2004
   62SAPC   H8R 4903   0.217   2.576   4.998  1.6240  0.1562 -1.3903
   62SAPC   C29 4904   0.184   2.466   4.825 -0.8343 -0.1711  0.2564
   62SAPC   H9R 4905   0.206   2.556   4.765 -1.8295  1.3368  2.0706
   62SAPC  C210 4906   0.120   2.349   4.754 -0.5304 -0.2146 -0.6542
   62SAPC  H10R 4907   0.105   2.267   4.829  3.9610  2.2565  3.2086
   62SAPC  H10S 4908   0.189   2.300   4.683 -1.2978 -1.8937 -0.2803
   62SAPC  C211 4909  -0.013   2.387   4.691  0.3339 -0.0481 -0.2293
   62SAPC  H11R 4910  -0.073   2.467   4.738  1.2626  0.1646  0.6269
   62SAPC  C212 4911  -0.057   2.328   4.580  0.1427 -0.0702 -0.5021
   62SAPC  H12R 4912  -0.150   2.370   4.537 -0.2621 -1.8800 -1.4613
   62SAPC  C213 4913   0.004   2.204   4.516 -0.1336 -0.3470 -0.6448
   62SAPC  H13R 4914   0.059   2.154   4.599 -1.6427  0.0953  0.6358
   62SAPC  H13S 4915   0.079   2.242   4.443 -0.6401 -1.2616 -1.6529
   62SAPC  C214 4916  -0.098   2.119   4.463  0.3804 -0.7234  0.4947
   62SAPC  H14R 4917  -0.147   2.052   4.534 -2.2946  1.0901  0.4459
   62SAPC  C215 4918  -0.142   2.112   4.336  1.0834  0.3153 -0.5577
   62SAPC  H15R 4919  -0.229   2.048   4.314  0.0563  1.5784 -0.2630
   62SAPC  C216 4920  -0.088   2.194   4.225  0.6064 -0.0984  0.0753
   62SAPC  H16R 4921  -0.047   2.125   4.148  0.2949  0.4716 -0.6025
   62SAPC  H16S 4922  -0.019   2.276   4.254  0.5411  1.3460 -3.5774
   62SAPC  C217 4923  -0.203   2.269   4.153  0.4078  0.3735  0.1640
   62SAPC  H17R 4924  -0.256   2.354   4.201  1.2186  1.9541 -1.6601
   62SAPC  H17S 4925  -0.274   2.185   4.134  0.4541  0.4869 -0.5374
   62SAPC  C218 4926  -0.150   2.321   4.021  0.2652  0.1443 -0.8161
   62SAPC  H18R 4927  -0.050   2.279   3.998 -0.2664  0.4436 -4.0251
   62SAPC  H18S 4928  -0.124   2.427   4.040  1.8758 -0.2771 -0.5802
   62SAPC  C219 4929  -0.248   2.299   3.909  0.0365 -0.1131  0.0876
   62SAPC  H19R 4930  -0.243   2.197   3.864  0.2787  0.6108 -1.5776
   62SAPC  H19S 4931  -0.208   2.363   3.827 -1.1487 -0.5527 -0.8640
   62SAPC  C220 4932  -0.396   2.330   3.929  0.5412 -0.0845 -0.3333
   62SAPC  H20R 4933  -0.443   2.242   3.977  0.1030  0.7501  0.7881
   62SAPC  H20S 4934  -0.449   2.363   3.837  1.0231 -0.3349 -0.7080
   62SAPC  H20T 4935  -0.399   2.411   4.005 -0.6968 -0.8842  0.4645
   62SAPC   C33 4936   0.648   2.648   5.186  0.5996  0.2356  0.2192
   62SAPC   H3X 4937   0.724   2.575   5.219 -1.2545 -1.7014  0.3668
   62SAPC   H3Y 4938   0.710   2.739   5.197 -1.4404  1.7174 -0.0921
   62SAPC   C34 4939   0.611   2.616   5.040  0.1230  0.9751 -0.1996
   62SAPC   H4X 4940   0.688   2.659   4.972 -0.7887  1.3109 -1.0255
   62SAPC   H4Y 4941   0.517   2.668   5.011 -1.1811 -0.0612  2.0022
   62SAPC   C35 4942   0.586   2.462   5.020 -0.4248 -0.1457  0.2671
   62SAPC   H5X 4943   0.503   2.425   5.083  1.6302  0.6991  3.5854
   62SAPC   H5Y 4944   0.680   2.408   5.046  1.1241  2.2020 -0.3455
   62SAPC   C36 4945   0.552   2.415   4.876 -0.0948  0.2481 -0.1623
   62SAPC   H6X 4946   0.461   2.468   4.840  1.1099  2.6743  0.2409
   62SAPC   H6Y 4947   0.531   2.306   4.881  0.9929 -0.0365 -1.5357
   62SAPC   C37 4948   0.665   2.432   4.774  0.6023 -0.3526  0.6104
   62SAPC   H7X 4949   0.751   2.383   4.825  0.4376  0.6728  1.9042
   62SAPC   H7Y 4950   0.684   2.538   4.750  2.4830 -0.4181  1.7333
   62SAPC   C38 4951   0.619   2.365   4.636 -0.9476  0.9771 -0.0970
   62SAPC   H8X 4952   0.589   2.260   4.657  2.1338  0.2330  0.8527
   62SAPC   H8Y 4953   0.711   2.367   4.574 -0.7874  0.4079  0.1175
   62SAPC   C39 4954   0.515   2.456   4.566 -0.6111 -0.7615  0.7775
   62SAPC   H9X 4955   0.541   2.563   4.555 -2.1567 -0.4602 -0.0199
   62SAPC   H9Y 4956   0.426   2.447   4.633  0.1098  0.0701  1.8666
   62SAPC  C310 4957   0.470   2.418   4.421 -0.0248  0.0477  0.1723
   62SAPC  H10X 4958   0.558   2.391   4.359 -0.5715  0.1974 -0.6665
   62SAPC  H10Y 4959   0.414   2.492   4.360  3.3805  1.5273 -1.2675
   62SAPC  C311 4960   0.382   2.289   4.420 -0.1746  0.3451 -0.5400
   62SAPC  H11X 4961   0.296   2.303   4.489  0.6367  0.1736  0.5205
   62SAPC  H11Y 4962   0.442   2.205   4.462 -1.3591  0.2854  1.0977
   62SAPC  C312 4963   0.325   2.255   4.278  0.4964 -0.2941 -0.4314
   62SAPC  H12X 4964   0.304   2.355   4.235  3.0092 -0.1369 -1.3605
   62SAPC  H12Y 4965   0.238   2.186   4.291  1.0394 -0.8654  0.1899
   62SAPC  C313 4966   0.439   2.183   4.199 -0.6090 -0.4026  1.0852
   62SAPC  H13X 4967   0.467   2.091   4.255  0.5476  0.6545  2.2951
   62SAPC  H13Y 4968   0.516   2.263   4.208 -0.9657  0.0022  0.5977
   62SAPC  C314 4969   0.391   2.152   4.052 -0.5933 -0.4214  0.0078
   62SAPC  H14X 4970   0.472   2.094   4.001 -0.6622 -0.1502 -0.4078
   62SAPC  H14Y 4971   0.379   2.250   4.003  1.3313  0.1860  0.7022
   62SAPC  C315 4972   0.264   2.066   4.054  0.3749  0.0745  0.1360
   62SAPC  H15X 4973   0.173   2.114   4.095 -0.0262 -1.8951  1.6353
   62SAPC  H15Y 4974   0.285   1.985   4.128  1.4466  2.3731  2.4212
   62SAPC  C316 4975   0.211   1.998   3.923  0.1263  0.4471  0.8060
   62SAPC  H16X 4976   0.167   2.075   3.857 -0.6252 -0.0940  0.6714
   62SAPC  H16Y 4977   0.129   1.929   3.950 -0.1714  0.4575 -0.0580
   62SAPC  C317 4978   0.322   1.911   3.857  0.1221 -0.7720 -0.4638
   62SAPC  H17X 4979   0.372   1.859   3.941  1.6586 -0.3507 -1.1109
   62SAPC  H17Y 4980   0.387   1.985   3.806  0.2155 -1.5180 -1.4593
   62SAPC  C318 4981   0.289   1.826   3.730  0.0314 -0.4832  0.4566
   62SAPC  H18X 4982   0.383   1.795   3.679  1.1127  0.9828  1.5013
   62SAPC  H18Y 4983   0.235   1.878   3.648  0.1733 -2.3351 -0.8440
   62SAPC  H18Z 4984   0.233   1.741   3.773 -0.5523 -0.5778 -0.4808
   63SAPC     N 4985   1.990   6.503   6.273 -0.0656 -0.2098  0.0158
   63SAPC   C12 4986   1.993   6.434   6.135  0.1530 -0.6151 -0.1101
   63SAPC  H12A 4987   1.897   6.388   6.121 -0.5989  0.6044  0.9055
   63SAPC  H12B 4988   2.073   6.362   6.135 -0.2868 -1.1201 -1.1667
   63SAPC   C13 4989   2.122   6.573   6.296 -0.3121 -0.0989  0.0462
   63SAPC  H13A 4990   2.126   6.616   6.395 -0.4357 -1.5151  0.6805
   63SAPC  H13B 4991   2.208   6.509   6.284 -1.5322 -1.9646  0.9662
   63SAPC  H13C 4992   2.127   6.652   6.222 -2.7565 -1.0523 -1.1914
   63SAPC   C14 4993   1.872   6.594   6.275  0.4389  0.0020  0.1270
   63SAPC  H14A 4994   1.779   6.544   6.253  0.5981 -0.3048  0.1490
   63SAPC  H14B 4995   1.859   6.652   6.365 -1.4951  0.5112 -0.4397
   63SAPC  H14C 4996   1.875   6.667   6.195  0.8475  0.8581  0.9121
   63SAPC   C15 4997   1.971   6.396   6.371 -0.4612 -0.1516 -0.2581
   63SAPC  H15A 4998   2.060   6.336   6.383  0.9404  1.9258  0.0160
   63SAPC  H15B 4999   1.962   6.443   6.468  1.5810  0.6659 -0.4405
   63SAPC  H15C 5000   1.880   6.337   6.371 -0.4856 -0.1482  1.5742
   63SAPC   C11 5001   2.012   6.516   6.009 -0.3008 -0.0107 -0.0484
   63SAPC  H11A 5002   2.038   6.458   5.918 -0.4035 -1.2172  0.6820
   63SAPC  H11B 5003   2.107   6.573   6.022  0.6290 -1.7995  1.2883
   63SAPC     P 5004   1.774   6.560   5.904 -0.2422 -0.1652  0.3501
   63SAPC   O13 5005   1.722   6.435   5.958  0.4610  0.5933 -0.0645
   63SAPC   O14 5006   1.681   6.673   5.900 -0.0589  0.6762 -0.3532
   63SAPC   O12 5007   1.904   6.602   5.986 -0.7174 -0.0416 -0.2086
   63SAPC   O11 5008   1.837   6.529   5.758  0.2244 -0.2861 -0.0476
   63SAPC    C1 5009   1.903   6.640   5.687  0.6726 -0.3623 -0.0991
   63SAPC    HA 5010   1.830   6.720   5.663  2.1687  1.2233  0.6137
   63SAPC    HB 5011   1.988   6.686   5.742 -1.1543  1.7940  0.9809
   63SAPC    C2 5012   1.955   6.580   5.552 -0.3950 -0.1654 -0.1350
   63SAPC    HS 5013   2.038   6.508   5.568 -0.9572 -0.6931  0.4038
   63SAPC   O21 5014   1.992   6.697   5.470  0.2964  0.2889 -0.1224
   63SAPC   C21 5015   2.099   6.677   5.393  0.8733  0.0222  0.5308
   63SAPC   O22 5016   2.152   6.566   5.379  0.5737 -0.5713  0.0180
   63SAPC   C22 5017   2.142   6.817   5.337 -0.0755 -0.3798 -0.3222
   63SAPC   H2R 5018   2.059   6.863   5.280 -1.0320 -3.9452 -1.9248
   63SAPC   H2S 5019   2.182   6.865   5.429 -0.5361 -0.3897 -0.1161
   63SAPC    C3 5020   1.847   6.508   5.466  0.1410 -0.5094  0.0526
   63SAPC    HX 5021   1.766   6.581   5.446 -1.9820 -2.7119  0.4945
   63SAPC    HY 5022   1.800   6.424   5.521  1.5099 -0.3375  1.5490
   63SAPC   O31 5023   1.903   6.467   5.339  0.5941 -0.5489 -0.8399
   63SAPC   C31 5024   1.965   6.347   5.345  0.3018  0.5859 -0.4510
   63SAPC   O32 5025   1.994   6.290   5.446  0.2516 -0.6537 -0.3544
   63SAPC   C32 5026   1.996   6.291   5.211  0.3473 -0.7414  0.0785
   63SAPC   H2X 5027   1.909   6.321   5.148  0.1418 -0.9399  0.2649
   63SAPC   H2Y 5028   1.985   6.181   5.226 -2.7710 -0.6728 -1.2504
   63SAPC   C23 5029   2.263   6.815   5.239  0.7045  0.2693  0.0215
   63SAPC   H3R 5030   2.326   6.724   5.245 -0.4578 -0.5559 -0.0395
   63SAPC   H3S 5031   2.317   6.909   5.263  0.1699  0.4460  0.5592
   63SAPC   C24 5032   2.205   6.832   5.100 -0.4141 -0.3157  0.0371
   63SAPC   H4R 5033   2.286   6.879   5.041 -1.4492  1.5890  0.0919
   63SAPC   H4S 5034   2.117   6.901   5.101  0.1743  0.5243 -2.4278
   63SAPC   C25 5035   2.154   6.698   5.043  0.0702  0.3632  0.5760
   63SAPC   H5R 5036   2.091   6.641   5.113 -1.0478 -0.6396 -1.1763
   63SAPC   C26 5037   2.158   6.661   4.918 -0.1309 -0.2279  0.1311
   63SAPC   H6R 5038   2.109   6.567   4.891  2.2247 -0.3757 -4.0185
   63SAPC   C27 5039   2.222   6.735   4.804 -0.3646 -0.1773 -0.8175
   63SAPC   H7R 5040   2.203   6.845   4.808 -3.1293 -0.5779 -2.1362
   63SAPC   H7S 5041   2.168   6.706   4.712 -1.2317  1.5370 -0.8660
   63SAPC   C28 5042   2.375   6.719   4.799  0.8273  0.0250 -0.0508
   63SAPC   H8R 5043   2.440   6.803   4.831  0.6843 -0.1571  0.7157
   63SAPC   C29 5044   2.434   6.609   4.755 -0.2735 -0.2161  0.1052
   63SAPC   H9R 5045   2.544   6.602   4.752 -0.2459  0.6883 -2.0141
   63SAPC  C210 5046   2.369   6.481   4.703  0.6356 -0.2741 -0.2743
   63SAPC  H10R 5047   2.281   6.449   4.763  0.0065  0.7530 -0.6267
   63SAPC  H10S 5048   2.442   6.399   4.691 -0.0166 -0.7565 -0.9241
   63SAPC  C211 5049   2.314   6.514   4.565 -0.1351  0.5090 -0.1639
   63SAPC  H11R 5050   2.377   6.582   4.507  0.2693  0.5732  0.3516
   63SAPC  C212 5051   2.205   6.455   4.505  0.2141 -0.4220 -0.1619
   63SAPC  H12R 5052   2.167   6.513   4.420  0.5161  2.0415  1.3207
   63SAPC  C213 5053   2.109   6.352   4.550  0.1448 -0.8285  0.0515
   63SAPC  H13R 5054   2.165   6.268   4.596  3.3833  1.9326  1.3374
   63SAPC  H13S 5055   2.051   6.331   4.457  1.1556 -0.1763 -0.7298
   63SAPC  C214 5056   2.010   6.394   4.655 -0.6702  0.2498 -0.0859
   63SAPC  H14R 5057   2.049   6.433   4.750 -0.9877 -1.1762  0.6576
   63SAPC  C215 5058   1.872   6.385   4.646 -0.2357 -0.2593 -0.4586
   63SAPC  H15R 5059   1.810   6.416   4.731  0.7025  2.4607 -0.7289
   63SAPC  C216 5060   1.782   6.335   4.537  1.5007 -0.4673 -1.3043
   63SAPC  H16R 5061   1.747   6.230   4.551 -2.0249  0.9563  1.2953
   63SAPC  H16S 5062   1.830   6.355   4.439  0.5231  2.7539 -1.1666
   63SAPC  C217 5063   1.651   6.424   4.537 -0.2372  0.2245 -0.4507
   63SAPC  H17R 5064   1.690   6.523   4.505  2.5777 -1.0460 -1.0985
   63SAPC  H17S 5065   1.606   6.410   4.638 -0.1602  0.2052 -0.4192
   63SAPC  C218 5066   1.552   6.373   4.431 -0.3956  0.5409  0.4356
   63SAPC  H18R 5067   1.543   6.263   4.427 -1.4138  0.6623 -1.8269
   63SAPC  H18S 5068   1.595   6.399   4.332  1.5273 -0.7676  0.9105
   63SAPC  C219 5069   1.416   6.434   4.457  0.6295 -0.3677 -0.3147
   63SAPC  H19R 5070   1.354   6.378   4.530  0.0097  1.9008  0.9753
   63SAPC  H19S 5071   1.361   6.423   4.362  0.1079 -1.4875  0.1089
   63SAPC  C220 5072   1.423   6.583   4.489 -0.2350  0.1696 -0.0057
   63SAPC  H20R 5073   1.326   6.635   4.478  0.0564  0.3757 -1.6889
   63SAPC  H20S 5074   1.497   6.635   4.424 -1.9260  3.5316  0.6995
   63SAPC  H20T 5075   1.459   6.602   4.593 -0.9247 -0.5917  0.3795
   63SAPC   C33 5076   2.137   6.337   5.166  0.1034 -0.4597  0.0375
   63SAPC   H3X 5077   2.208   6.298   5.243 -1.0719 -6.3194 -1.5479
   63SAPC   H3Y 5078   2.132   6.447   5.174  0.3165 -0.5133  1.0605
   63SAPC   C34 5079   2.179   6.305   5.021 -0.6357 -0.2476  0.5063
   63SAPC   H4X 5080   2.285   6.336   5.016 -1.0070  0.9860  0.3076
   63SAPC   H4Y 5081   2.108   6.357   4.953  0.0590  0.4213  0.2845
   63SAPC   C35 5082   2.170   6.157   4.992 -0.7741 -0.9985  0.4162
   63SAPC   H5X 5083   2.066   6.121   5.008 -0.7378 -1.8651 -1.2605
   63SAPC   H5Y 5084   2.229   6.110   5.073  1.0505 -0.9644 -0.8793
   63SAPC   C36 5085   2.233   6.123   4.851  0.7896 -0.1283  0.6277
   63SAPC   H6X 5086   2.332   6.173   4.853  0.5703  0.3279  0.1576
   63SAPC   H6Y 5087   2.177   6.156   4.761 -1.8221 -1.1734  1.7948
   63SAPC   C37 5088   2.261   5.976   4.836 -0.1015 -0.4479 -0.8919
   63SAPC   H7X 5089   2.179   5.913   4.797  1.3990 -4.6367  2.3651
   63SAPC   H7Y 5090   2.283   5.934   4.937  1.3742 -0.5334 -1.2286
   63SAPC   C38 5091   2.384   5.959   4.749  0.1181  0.1277 -0.0790
   63SAPC   H8X 5092   2.461   6.033   4.782 -1.7151  1.9982  0.1054
   63SAPC   H8Y 5093   2.372   5.990   4.643  1.6260 -0.3089 -0.3973
   63SAPC   C39 5094   2.452   5.820   4.769 -0.0706  0.4242 -0.4859
   63SAPC   H9X 5095   2.384   5.740   4.730 -0.8286  0.4344  0.7960
   63SAPC   H9Y 5096   2.452   5.806   4.879  0.7516  0.5278 -0.4758
   63SAPC  C310 5097   2.590   5.816   4.701  0.2569 -0.7805  0.3801
   63SAPC  H10X 5098   2.642   5.726   4.741  0.7419 -1.4664 -1.7287
   63SAPC  H10Y 5099   2.652   5.900   4.740 -1.0896  0.6968 -0.5969
   63SAPC  C311 5100   2.595   5.812   4.553 -0.2276  0.0398  0.0866
   63SAPC  H11X 5101   2.539   5.901   4.515 -0.5030 -0.5832 -1.0091
   63SAPC  H11Y 5102   2.546   5.723   4.507  0.0103  0.8846 -1.8536
   63SAPC  C312 5103   2.741   5.814   4.498 -0.6670  0.5168 -0.0534
   63SAPC  H12X 5104   2.782   5.714   4.524  0.1732  1.1022  0.9272
   63SAPC  H12Y 5105   2.796   5.887   4.561  3.0375 -3.3720  1.5037
   63SAPC  C313 5106   2.742   5.843   4.345 -0.1893  0.1829  0.2618
   63SAPC  H13X 5107   2.687   5.938   4.331 -0.1848  0.0078 -1.0339
   63SAPC  H13Y 5108   2.698   5.758   4.290  0.5794  0.1978 -0.3874
   63SAPC  C314 5109   2.892   5.853   4.294 -0.0559 -0.0253  0.2382
   63SAPC  H14X 5110   2.937   5.946   4.335  0.0899 -1.2037  2.8743
   63SAPC  H14Y 5111   2.893   5.844   4.183  1.7397 -0.1818  0.2503
   63SAPC  C315 5112   2.980   5.731   4.346 -0.0644  0.1095 -0.5327
   63SAPC  H15X 5113   2.917   5.644   4.375  0.7206 -0.2773  0.0155
   63SAPC  H15Y 5114   3.019   5.767   4.443 -1.7638 -1.0243  0.5916
   63SAPC  C316 5115   3.098   5.702   4.251 -0.0416  0.3860 -0.2062
   63SAPC  H16X 5116   3.150   5.796   4.223  0.6009  0.4585  1.1856
   63SAPC  H16Y 5117   3.044   5.656   4.166  2.9007 -1.6423 -1.0201
   63SAPC  C317 5118   3.193   5.600   4.308  0.2213  0.4337 -0.3223
   63SAPC  H17X 5119   3.140   5.516   4.359  0.2474  0.6860  0.1200
   63SAPC  H17Y 5120   3.256   5.651   4.384 -0.0625  1.9918 -1.1128
   63SAPC  C318 5121   3.285   5.549   4.198 -0.0932  0.1139  0.0405
   63SAPC  H18X 5122   3.376   5.503   4.241  0.1701  1.4766  0.9849
   63SAPC  H18Y 5123   3.324   5.636   4.142  2.0165 -0.2161  0.9612
   63SAPC  H18Z 5124   3.229   5.477   4.134 -0.3612 -1.6995  2.2308
   64SAPC     N 5125   1.536   0.349   6.451 -0.0556 -0.3501  0.2261
   64SAPC   C12 5126   1.431   0.433   6.378  0.8304  0.1073 -0.1777
   64SAPC  H12A 5127   1.371   0.478   6.454  2.3679 -0.3483  1.3472
   64SAPC  H12B 5128   1.375   0.371   6.310  2.1683 -0.1464 -1.0875
   64SAPC   C13 5129   1.628   0.435   6.530  0.4910  0.2374  0.5292
   64SAPC  H13A 5130   1.699   0.479   6.461  1.0034  0.8368  1.4311
   64SAPC  H13B 5131   1.583   0.517   6.584 -0.4372 -0.9103  1.5322
   64SAPC  H13C 5132   1.688   0.379   6.601 -0.1662 -1.6026 -0.3514
   64SAPC   C14 5133   1.454   0.255   6.531  0.2388  0.6652 -0.1040
   64SAPC  H14A 5134   1.378   0.211   6.468  0.2137  1.4797 -0.6579
   64SAPC  H14B 5135   1.520   0.170   6.539 -0.0111  0.4456 -0.3736
   64SAPC  H14C 5136   1.415   0.299   6.622  2.0337  1.7333  0.1876
   64SAPC   C15 5137   1.617   0.272   6.347  0.6240 -0.2113 -0.5014
   64SAPC  H15A 5138   1.562   0.191   6.301 -1.8341  1.4980 -0.6444
   64SAPC  H15B 5139   1.626   0.342   6.265 -2.3819  1.5129  0.5489
   64SAPC  H15C 5140   1.703   0.236   6.402  0.3924  0.4967  0.3421
   64SAPC   C11 5141   1.475   0.549   6.280  0.0169  0.4200 -0.7390
   64SAPC  H11A 5142   1.560   0.603   6.327  0.8444 -2.0647  0.6644
   64SAPC  H11B 5143   1.387   0.616   6.271  0.2529  0.5025 -2.5708
   64SAPC     P 5144   1.620   0.554   6.074  0.1025  0.0031  0.2714
   64SAPC   O13 5145   1.632   0.696   6.117  0.1249  0.4673 -0.2914
   64SAPC   O14 5146   1.736   0.464   6.095  0.5726 -0.5824  0.7102
   64SAPC   O12 5147   1.499   0.493   6.151 -0.0307 -0.3553  0.4160
   64SAPC   O11 5148   1.570   0.553   5.924 -0.0387 -0.0051 -0.1511
   64SAPC    C1 5149   1.433   0.585   5.897 -0.0394  0.2357 -0.5676
   64SAPC    HA 5150   1.386   0.651   5.974 -0.8782  0.0178 -0.8989
   64SAPC    HB 5151   1.430   0.633   5.797 -1.0806 -0.0963 -0.6928
   64SAPC    C2 5152   1.339   0.458   5.872 -0.4996 -0.1050  0.1405
   64SAPC    HS 5153   1.318   0.401   5.966  1.2363  0.4825  0.9079
   64SAPC   O21 5154   1.403   0.364   5.784 -0.1607  0.2395 -0.8929
   64SAPC   C21 5155   1.364   0.241   5.787  0.5011  0.4476  0.3858
   64SAPC   O22 5156   1.269   0.192   5.853  0.0793 -0.8751  0.2626
   64SAPC   C22 5157   1.431   0.166   5.671 -0.0974  0.1353 -0.1858
   64SAPC   H2R 5158   1.520   0.227   5.643  0.2881 -0.3461 -0.0012
   64SAPC   H2S 5159   1.463   0.064   5.698  2.2771  0.8765 -0.0934
   64SAPC    C3 5160   1.207   0.501   5.808  0.3954  0.0773 -0.5494
   64SAPC    HX 5161   1.161   0.564   5.888  0.8254 -0.8804  0.4552
   64SAPC    HY 5162   1.143   0.411   5.792 -2.1102  2.1029 -2.4364
   64SAPC   O31 5163   1.217   0.587   5.685  0.3624 -0.0947 -0.3917
   64SAPC   C31 5164   1.125   0.559   5.596  0.6177 -0.2349 -0.5954
   64SAPC   O32 5165   1.045   0.471   5.601  0.5970  0.2230  0.3134
   64SAPC   C32 5166   1.150   0.655   5.482  0.1785  0.2288  0.3894
   64SAPC   H2X 5167   1.251   0.630   5.445 -0.9382 -2.4929 -0.9134
   64SAPC   H2Y 5168   1.147   0.762   5.512  0.7966 -0.0555  1.4916
   64SAPC   C23 5169   1.334   0.164   5.550 -0.1310 -0.1175 -0.4471
   64SAPC   H3R 5170   1.234   0.139   5.590  0.4559 -1.5064  0.1899
   64SAPC   H3S 5171   1.370   0.072   5.498 -1.0616 -0.6181 -0.2101
   64SAPC   C24 5172   1.362   0.283   5.457 -0.2673 -1.0515  0.0104
   64SAPC   H4R 5173   1.465   0.272   5.415 -0.5404 -1.5951 -0.5244
   64SAPC   H4S 5174   1.359   0.377   5.516 -1.8928 -2.6555  2.5864
   64SAPC   C25 5175   1.272   0.278   5.341 -0.0730 -0.4757 -0.5096
   64SAPC   H5R 5176   1.168   0.260   5.374 -0.6261  1.1757 -1.2646
   64SAPC   C26 5177   1.306   0.283   5.211  0.5283  0.5071 -0.7551
   64SAPC   H6R 5178   1.225   0.279   5.136 -0.8076  1.8537  0.5630
   64SAPC   C27 5179   1.447   0.292   5.152 -0.7230  0.4045 -0.2983
   64SAPC   H7R 5180   1.510   0.366   5.205 -2.4557 -0.1024  2.5845
   64SAPC   H7S 5181   1.441   0.354   5.060  0.7199  1.6856  0.4504
   64SAPC   C28 5182   1.513   0.161   5.137 -0.0393  0.3930 -0.4508
   64SAPC   H8R 5183   1.507   0.095   5.225  1.1870  1.3402  0.3668
   64SAPC   C29 5184   1.542   0.102   5.019  0.8574  0.1371  0.0711
   64SAPC   H9R 5185   1.596   0.007   5.029 -0.7237 -0.5689  2.2712
   64SAPC  C210 5186   1.518   0.161   4.880  0.4211 -0.2366 -0.2716
   64SAPC  H10R 5187   1.557   0.265   4.893  2.7571 -1.2451  1.0736
   64SAPC  H10S 5188   1.409   0.164   4.859  0.6440  0.2853 -1.3821
   64SAPC  C211 5189   1.576   0.095   4.758  0.1807  0.6795 -0.7174
   64SAPC  H11R 5190   1.589  -0.014   4.765 -2.0359  0.4932  1.0429
   64SAPC  C212 5191   1.620   0.160   4.654 -0.5828  0.1984  0.1726
   64SAPC  H12R 5192   1.653   0.103   4.566  1.1220  0.4658  0.6138
   64SAPC  C213 5193   1.616   0.310   4.639 -0.6646  0.0589 -0.5798
   64SAPC  H13R 5194   1.654   0.364   4.728  0.1276 -1.6374  0.1261
   64SAPC  H13S 5195   1.515   0.351   4.617 -1.0357 -1.3779 -1.6250
   64SAPC  C214 5196   1.690   0.360   4.520 -0.2718  0.2722 -0.0352
   64SAPC  H14R 5197   1.790   0.394   4.550 -0.4301  1.7619 -1.1700
   64SAPC  C215 5198   1.645   0.374   4.395 -0.0489  0.1827  0.6992
   64SAPC  H15R 5199   1.722   0.418   4.329 -0.3261  0.0093  0.2568
   64SAPC  C216 5200   1.505   0.346   4.335  0.3763 -0.2131  0.0174
   64SAPC  H16R 5201   1.430   0.388   4.405  0.9505  0.2007  0.3866
   64SAPC  H16S 5202   1.507   0.236   4.315  3.9517  0.2155 -2.4929
   64SAPC  C217 5203   1.492   0.415   4.201  0.3174  0.7211 -0.3669
   64SAPC  H17R 5204   1.537   0.347   4.126 -3.2537 -0.8910 -1.1373
   64SAPC  H17S 5205   1.545   0.513   4.194  2.6052 -0.4344  0.1855
   64SAPC  C218 5206   1.348   0.436   4.153  0.1715 -0.5181  0.0925
   64SAPC  H18R 5207   1.307   0.527   4.203  0.5701  0.2821 -1.0357
   64SAPC  H18S 5208   1.288   0.351   4.193 -1.6752  1.6747  2.1223
   64SAPC  C219 5209   1.339   0.470   4.006  0.0370  0.0232  0.0858
   64SAPC  H19R 5210   1.367   0.380   3.947  2.2474  0.7828 -0.0570
   64SAPC  H19S 5211   1.411   0.552   3.982 -0.1548  0.2043  0.1279
   64SAPC  C220 5212   1.196   0.522   3.966 -0.5484 -0.4105 -0.6019
   64SAPC  H20R 5213   1.178   0.606   4.036 -0.5145 -1.1877  0.3424
   64SAPC  H20S 5214   1.116   0.447   3.985 -2.9651  1.9456 -1.1369
   64SAPC  H20T 5215   1.185   0.555   3.860  0.6822 -1.9387 -1.2261
   64SAPC   C33 5216   1.045   0.621   5.372 -0.5783  0.4650 -0.2885
   64SAPC   H3X 5217   0.947   0.662   5.405 -0.3060 -0.3195  1.5421
   64SAPC   H3Y 5218   1.038   0.513   5.350 -2.7288  0.3845  0.6075
   64SAPC   C34 5219   1.067   0.700   5.246 -0.3103 -0.2356 -0.3441
   64SAPC   H4X 5220   1.054   0.809   5.258 -1.0499 -0.2924 -0.6133
   64SAPC   H4Y 5221   0.982   0.661   5.186  0.4604 -0.9166 -1.0154
   64SAPC   C35 5222   1.206   0.664   5.180 -0.0519  1.0575 -0.7583
   64SAPC   H5X 5223   1.243   0.565   5.212  0.4030  1.9480  1.5748
   64SAPC   H5Y 5224   1.276   0.734   5.230 -0.1060 -0.6191  1.7017
   64SAPC   C36 5225   1.219   0.690   5.031 -0.1411  0.5086 -0.1678
   64SAPC   H6X 5226   1.301   0.764   5.019 -0.8293  1.3146  0.0290
   64SAPC   H6Y 5227   1.130   0.746   4.994 -1.9398 -1.0135  1.6958
   64SAPC   C37 5228   1.246   0.559   4.954  0.0473  0.1124 -1.2958
   64SAPC   H7X 5229   1.150   0.510   4.925 -0.3750  0.4677 -0.5106
   64SAPC   H7Y 5230   1.299   0.486   5.018 -0.4047 -0.3209 -1.4159
   64SAPC   C38 5231   1.321   0.575   4.827 -0.5193 -0.7666  0.1463
   64SAPC   H8X 5232   1.346   0.479   4.777  2.2061  0.0800 -0.2181
   64SAPC   H8Y 5233   1.420   0.616   4.859 -1.9806  3.6199 -0.5314
   64SAPC   C39 5234   1.259   0.676   4.736  0.2474  0.2821  0.3275
   64SAPC   H9X 5235   1.274   0.779   4.776  4.2692  0.0059 -0.2377
   64SAPC   H9Y 5236   1.154   0.648   4.717  0.6313 -0.5081 -0.6708
   64SAPC  C310 5237   1.329   0.667   4.598  0.1764  0.4969 -0.2565
   64SAPC  H10X 5238   1.320   0.563   4.560  3.2226 -0.4128  1.2841
   64SAPC  H10Y 5239   1.438   0.673   4.621 -0.0534 -0.0469  1.0108
   64SAPC  C311 5240   1.281   0.780   4.505  0.3286  0.1308 -0.1566
   64SAPC  H11X 5241   1.282   0.881   4.549 -0.5588 -0.2190  0.6757
   64SAPC  H11Y 5242   1.175   0.759   4.479  0.2171  1.1042 -0.4967
   64SAPC  C312 5243   1.356   0.793   4.370 -0.2488  0.0196 -0.9253
   64SAPC  H12X 5244   1.273   0.818   4.301 -0.3636  1.5940 -0.2483
   64SAPC  H12Y 5245   1.391   0.696   4.332  1.9031  0.2935  0.2664
   64SAPC  C313 5246   1.466   0.901   4.366 -0.1022  0.4114 -0.0878
   64SAPC  H13X 5247   1.552   0.854   4.419 -0.4855 -0.1557  0.0313
   64SAPC  H13Y 5248   1.434   0.987   4.429 -0.7568 -0.5721  0.9342
   64SAPC  C314 5249   1.493   0.946   4.224 -0.8970  0.1322 -0.4911
   64SAPC  H14X 5250   1.555   1.038   4.232  1.0210 -1.2072  0.4146
   64SAPC  H14Y 5251   1.400   0.965   4.167 -0.4708  0.8680 -0.9532
   64SAPC  C315 5252   1.582   0.843   4.150  0.1555  0.5974  0.4392
   64SAPC  H15X 5253   1.538   0.741   4.153  2.3175 -0.3031  2.3976
   64SAPC  H15Y 5254   1.676   0.833   4.208 -0.4840 -2.9716  0.9851
   64SAPC  C316 5255   1.616   0.886   4.002 -0.1195 -0.1270  0.2875
   64SAPC  H16X 5256   1.671   0.982   4.002 -0.7158  0.2406  1.8583
   64SAPC  H16Y 5257   1.516   0.895   3.956  0.0101 -1.1432 -0.2015
   64SAPC  C317 5258   1.700   0.785   3.918 -0.8182  0.2247  0.6769
   64SAPC  H17X 5259   1.655   0.684   3.914  2.4271 -1.2371 -0.3183
   64SAPC  H17Y 5260   1.801   0.767   3.962 -0.7393  0.1510  0.4654
   64SAPC  C318 5261   1.712   0.854   3.775  0.6692  0.2067 -0.0952
   64SAPC  H18X 5262   1.757   0.777   3.710 -0.3210  0.4315 -1.0625
   64SAPC  H18Y 5263   1.768   0.949   3.788  1.6964 -0.1532 -1.7982
   64SAPC  H18Z 5264   1.610   0.882   3.741  0.7229  0.2970 -0.1852
   65SAPC     N 5265   2.354   1.826   1.827 -0.5476  0.0224  0.3326
   65SAPC   C12 5266   2.333   1.930   1.931 -0.6695  0.1102  0.3145
   65SAPC  H12A 5267   2.327   2.025   1.881  1.6873 -0.3552 -0.9485
   65SAPC  H12B 5268   2.413   1.937   2.003 -0.5546  0.3080  0.1667
   65SAPC   C13 5269   2.256   1.851   1.709 -0.2694  0.6233  0.2322
   65SAPC  H13A 5270   2.158   1.836   1.750 -0.7739 -1.3041 -1.5611
   65SAPC  H13B 5271   2.271   1.949   1.667  0.0134  0.2163 -0.6422
   65SAPC  H13C 5272   2.265   1.779   1.628  0.9799  2.7523 -1.6035
   65SAPC   C14 5273   2.486   1.854   1.761  0.0913  0.9657 -0.7513
   65SAPC  H14A 5274   2.482   1.954   1.721 -2.0447  0.8975 -0.7899
   65SAPC  H14B 5275   2.566   1.839   1.832 -0.3855  2.4642  0.1177
   65SAPC  H14C 5276   2.505   1.786   1.679 -0.6311  0.2748 -0.3565
   65SAPC   C15 5277   2.340   1.684   1.876 -0.3336  0.2169 -0.3406
   65SAPC  H15A 5278   2.239   1.674   1.913 -0.3533  1.9138  0.0665
   65SAPC  H15B 5279   2.350   1.606   1.802  0.7066  0.7599 -0.7743
   65SAPC  H15C 5280   2.404   1.658   1.959 -0.8816  0.4968  0.1712
   65SAPC   C11 5281   2.206   1.926   2.022  0.9343  0.4842 -0.0970
   65SAPC  H11A 5282   2.166   2.027   2.044  0.1877  0.0303  0.6759
   65SAPC  H11B 5283   2.230   1.885   2.123 -2.1600 -0.9247  0.1249
   65SAPC     P 5284   2.011   1.744   2.034 -0.1380  0.0004 -0.1241
   65SAPC   O13 5285   1.879   1.721   1.972 -0.4529  0.0622  0.2842
   65SAPC   O14 5286   2.115   1.633   2.042 -0.3938  0.2161  0.0840
   65SAPC   O12 5287   2.091   1.865   1.962  0.4165 -0.0295 -0.4047
   65SAPC   O11 5288   1.988   1.809   2.176  0.5864  0.0715 -0.0196
   65SAPC    C1 5289   1.905   1.916   2.217  0.0547 -0.4833 -0.1552
   65SAPC    HA 5290   1.868   1.968   2.126  0.4818 -0.6194 -0.4092
   65SAPC    HB 5291   1.808   1.883   2.259 -0.3535  1.9449  0.9079
   65SAPC    C2 5292   1.968   2.022   2.303 -0.3188 -0.0941 -0.6017
   65SAPC    HS 5293   2.052   2.069   2.247  0.7097 -2.1416 -0.8413
   65SAPC   O21 5294   2.012   1.959   2.429  0.1741  0.1684 -0.1108
   65SAPC   C21 5295   2.146   1.968   2.455  0.3805 -0.5716  0.5502
   65SAPC   O22 5296   2.234   2.010   2.382  0.3503 -0.0773  0.2967
   65SAPC   C22 5297   2.158   1.896   2.584  0.7067 -0.5246 -0.0331
   65SAPC   H2R 5298   2.074   1.925   2.651 -0.0695 -2.7382 -0.0146
   65SAPC   H2S 5299   2.143   1.791   2.551  0.7633 -0.5094 -0.1065
   65SAPC    C3 5300   1.879   2.145   2.328 -0.2616  0.2475  0.2745
   65SAPC    HX 5301   1.870   2.185   2.225  0.9206 -0.6290 -0.1783
   65SAPC    HY 5302   1.922   2.221   2.396  0.0103  1.2998 -1.0675
   65SAPC   O31 5303   1.758   2.093   2.395  0.5014  0.1420 -0.5135
   65SAPC   C31 5304   1.670   2.192   2.431  0.0834  0.3324  0.4473
   65SAPC   O32 5305   1.679   2.305   2.386 -0.0755 -0.9676  0.0687
   65SAPC   C32 5306   1.561   2.139   2.523  0.1203 -0.4227  0.8168
   65SAPC   H2X 5307   1.516   2.045   2.484  0.2252 -0.9332  1.8997
   65SAPC   H2Y 5308   1.480   2.214   2.534  0.7880  0.6677 -1.4457
   65SAPC   C23 5309   2.282   1.912   2.661 -0.6367  0.3066 -0.8420
   65SAPC   H3R 5310   2.369   1.903   2.593  0.3861  0.2768  0.4540
   65SAPC   H3S 5311   2.286   1.835   2.741  1.0041 -0.6713 -1.8304
   65SAPC   C24 5312   2.281   2.041   2.739 -0.5019 -0.3242 -0.1064
   65SAPC   H4R 5313   2.178   2.059   2.777  0.2423  1.5509  1.0810
   65SAPC   H4S 5314   2.289   2.131   2.674 -0.9478  1.0507  1.7205
   65SAPC   C25 5315   2.402   2.062   2.826  0.1309  0.8376  0.1866
   65SAPC   H5R 5316   2.491   2.078   2.764 -0.7828 -1.6585 -1.8509
   65SAPC   C26 5317   2.414   2.044   2.958 -0.2669  0.5665 -0.1015
   65SAPC   H6R 5318   2.499   2.086   3.014 -1.4280  2.2932  0.4042
   65SAPC   C27 5319   2.307   1.995   3.050 -0.8802  0.1916  0.1011
   65SAPC   H7R 5320   2.206   1.971   3.010 -1.9862  2.0128  1.7058
   65SAPC   H7S 5321   2.292   2.077   3.124  2.1116  0.2151  0.7103
   65SAPC   C28 5322   2.357   1.871   3.120 -0.2728 -0.6269  0.1239
   65SAPC   H8R 5323   2.337   1.777   3.066  1.3786 -1.0146  0.1550
   65SAPC   C29 5324   2.408   1.871   3.245  0.8159  0.2378  0.5619
   65SAPC   H9R 5325   2.418   1.777   3.300  0.2728  0.6922  1.4555
   65SAPC  C210 5326   2.432   1.997   3.332  0.2817  0.0299 -0.0811
   65SAPC  H10R 5327   2.330   2.033   3.355  1.2598  1.9053  1.3868
   65SAPC  H10S 5328   2.494   2.073   3.280 -0.7168  0.4303 -0.7062
   65SAPC  C211 5329   2.507   1.972   3.459  0.4348 -0.0421 -0.3844
   65SAPC  H11R 5330   2.591   2.040   3.480 -0.1978  1.0171 -1.2138
   65SAPC  C212 5331   2.475   1.891   3.563  0.4133  0.0415 -0.0427
   65SAPC  H12R 5332   2.535   1.905   3.654  2.8394 -2.5182 -1.1654
   65SAPC  C213 5333   2.358   1.804   3.577  0.0716 -0.2315 -0.9326
   65SAPC  H13R 5334   2.275   1.864   3.535  0.3593  2.2415  1.9010
   65SAPC  H13S 5335   2.335   1.796   3.686 -2.3850  3.1202 -1.1160
   65SAPC  C214 5336   2.367   1.667   3.521  0.0666 -0.2649  0.3203
   65SAPC  H14R 5337   2.460   1.616   3.550 -1.3169 -1.4895  2.7746
   65SAPC  C215 5338   2.281   1.605   3.443 -0.1717 -0.1398  0.5929
   65SAPC  H15R 5339   2.301   1.503   3.405 -1.3794 -0.6192  1.2035
   65SAPC  C216 5340   2.145   1.650   3.389  0.5819 -0.0686 -0.5493
   65SAPC  H16R 5341   2.166   1.711   3.298  0.4801  0.0576 -0.4879
   65SAPC  H16S 5342   2.085   1.714   3.457 -0.1888 -0.0178 -1.2718
   65SAPC  C217 5343   2.071   1.523   3.353  0.9774  0.5909 -0.4750
   65SAPC  H17R 5344   2.032   1.473   3.445  1.2040  0.8153 -0.2543
   65SAPC  H17S 5345   2.129   1.460   3.283  0.9709 -1.4125  1.2533
   65SAPC  C218 5346   1.945   1.562   3.270  0.5764  0.0561 -0.1897
   65SAPC  H18R 5347   1.991   1.606   3.179 -0.2007  0.3978 -0.4182
   65SAPC  H18S 5348   1.892   1.638   3.332 -2.4315 -0.9064 -1.5114
   65SAPC  C219 5349   1.843   1.454   3.243 -0.6543 -0.0527  0.2211
   65SAPC  H19R 5350   1.895   1.372   3.189  1.9816  0.2191  2.2369
   65SAPC  H19S 5351   1.765   1.505   3.183  0.2553  2.2076  0.9236
   65SAPC  C220 5352   1.777   1.392   3.374  0.4866 -0.0151 -0.0319
   65SAPC  H20R 5353   1.740   1.483   3.427 -0.6036 -0.5493  0.1232
   65SAPC  H20S 5354   1.845   1.334   3.439  1.7859  0.4146 -0.9919
   65SAPC  H20T 5355   1.692   1.324   3.352  0.7586 -0.6983  1.0384
   65SAPC   C33 5356   1.635   2.088   2.658  0.2753 -0.4253 -0.0295
   65SAPC   H3X 5357   1.691   2.162   2.718 -0.6711  0.6196 -0.4167
   65SAPC   H3Y 5358   1.706   2.009   2.624 -1.1543 -1.4819 -0.6191
   65SAPC   C34 5359   1.528   2.022   2.739  0.4347  0.3464 -0.6209
   65SAPC   H4X 5360   1.567   1.952   2.817  1.8081 -1.1218 -2.5948
   65SAPC   H4Y 5361   1.457   1.965   2.675  0.6811 -4.5719  3.0905
   65SAPC   C35 5362   1.427   2.118   2.817 -0.0960  0.4205  0.4892
   65SAPC   H5X 5363   1.331   2.064   2.832  0.6210 -1.9264 -2.6942
   65SAPC   H5Y 5364   1.411   2.216   2.766 -0.5017 -0.4043 -0.9996
   65SAPC   C36 5365   1.489   2.150   2.952 -0.2276 -0.1454  0.7139
   65SAPC   H6X 5366   1.468   2.257   2.975  1.0863  0.1124  0.7563
   65SAPC   H6Y 5367   1.600   2.145   2.946 -0.1431  1.0791  1.1524
   65SAPC   C37 5368   1.442   2.054   3.061  0.0838  0.2877 -0.1428
   65SAPC   H7X 5369   1.480   1.951   3.046  0.9703  0.7381 -1.0220
   65SAPC   H7Y 5370   1.331   2.059   3.049  0.0434 -1.2599 -0.5178
   65SAPC   C38 5371   1.469   2.093   3.210  0.3243  0.6458  0.0241
   65SAPC   H8X 5372   1.441   2.199   3.228  0.0859  0.4229  0.9836
   65SAPC   H8Y 5373   1.579   2.079   3.216  0.1002 -0.6166  1.6113
   65SAPC   C39 5374   1.431   1.988   3.319  0.3874 -0.2890 -0.5986
   65SAPC   H9X 5375   1.457   1.883   3.292  0.8983 -0.0998 -0.8425
   65SAPC   H9Y 5376   1.323   2.010   3.336  0.3107 -0.3237 -1.0310
   65SAPC  C310 5377   1.498   1.989   3.458  0.1976 -0.0441 -0.3782
   65SAPC  H10X 5378   1.437   1.912   3.511 -0.0812 -1.4985 -2.7304
   65SAPC  H10Y 5379   1.474   2.084   3.511 -0.9309 -1.5788  1.9580
   65SAPC  C311 5380   1.642   1.947   3.462  0.1154  0.2002  0.1378
   65SAPC  H11X 5381   1.708   2.030   3.428  2.3388 -2.1001 -1.3467
   65SAPC  H11Y 5382   1.665   1.868   3.387  2.7503 -0.0366  1.1351
   65SAPC  C312 5383   1.683   1.891   3.595 -0.1363 -0.6460  0.9175
   65SAPC  H12X 5384   1.641   1.789   3.605  0.3291 -0.9690 -0.3793
   65SAPC  H12Y 5385   1.629   1.939   3.679  3.5728  1.2096  2.3360
   65SAPC  C313 5386   1.832   1.890   3.625 -0.1017  0.5521 -0.6230
   65SAPC  H13X 5387   1.874   1.992   3.610  0.1937  0.6198  0.6094
   65SAPC  H13Y 5388   1.887   1.816   3.563 -1.1620 -0.2599 -0.6072
   65SAPC  C314 5389   1.860   1.854   3.772  0.5711  0.0367  0.7606
   65SAPC  H14X 5390   1.772   1.860   3.840  1.2342  0.1438  1.6233
   65SAPC  H14Y 5391   1.946   1.916   3.804 -1.0148  3.0697 -0.6222
   65SAPC  C315 5392   1.917   1.709   3.786  0.3956  0.0727  0.1828
   65SAPC  H15X 5393   1.953   1.701   3.891 -1.4777 -1.6225  0.7207
   65SAPC  H15Y 5394   2.002   1.713   3.714 -0.5270  0.4939 -0.8881
   65SAPC  C316 5395   1.831   1.592   3.745  0.0763  0.2336  0.5863
   65SAPC  H16X 5396   1.796   1.599   3.640  2.8624  0.1895 -0.3872
   65SAPC  H16Y 5397   1.732   1.604   3.795  0.5234  0.2922  1.4721
   65SAPC  C317 5398   1.902   1.458   3.783 -0.0303  0.3672 -0.4780
   65SAPC  H17X 5399   1.965   1.472   3.873 -0.6686 -2.3299  0.4417
   65SAPC  H17Y 5400   1.984   1.439   3.711  1.4837  0.4224  1.1823
   65SAPC  C318 5401   1.811   1.332   3.793 -0.4353 -0.0840  0.4047
   65SAPC  H18X 5402   1.878   1.243   3.795 -0.3014  0.0059 -0.0780
   65SAPC  H18Y 5403   1.735   1.325   3.712  1.3979  0.8808 -1.4246
   65SAPC  H18Z 5404   1.754   1.332   3.889 -0.7934 -0.2120  0.1954
   66SAPC     N 5405   5.769   3.242   1.675 -0.2067  0.2525  0.5949
   66SAPC   C12 5406   5.755   3.091   1.717 -0.2671  0.5739  0.0357
   66SAPC  H12A 5407   5.688   3.031   1.656  0.4883 -0.9599  0.6945
   66SAPC  H12B 5408   5.705   3.099   1.812  0.2783  1.1574  0.2809
   66SAPC   C13 5409   5.845   3.319   1.780 -0.0838 -0.6298 -0.1755
   66SAPC  H13A 5410   5.881   3.407   1.730 -0.5440 -0.0773  0.4660
   66SAPC  H13B 5411   5.784   3.343   1.865  1.4784  0.6333  0.6072
   66SAPC  H13C 5412   5.930   3.267   1.821  0.2373  0.1950  0.2043
   66SAPC   C14 5413   5.855   3.245   1.551 -0.3441  0.2265 -0.6260
   66SAPC  H14A 5414   5.813   3.192   1.467 -0.3823 -0.1168 -0.3916
   66SAPC  H14B 5415   5.872   3.344   1.512 -0.1223  0.1433 -0.7422
   66SAPC  H14C 5416   5.947   3.194   1.576 -2.2237 -2.0409  1.9464
   66SAPC   C15 5417   5.627   3.302   1.645 -0.7797  0.3517  0.5677
   66SAPC  H15A 5418   5.585   3.238   1.570  0.8868 -1.6123  1.2485
   66SAPC  H15B 5419   5.560   3.308   1.730  0.3406  1.9465  1.3728
   66SAPC  H15C 5420   5.640   3.399   1.598  2.3350 -1.5035 -2.6566
   66SAPC   C11 5421   5.890   3.024   1.736  0.8477  0.7927 -0.1246
   66SAPC  H11A 5422   5.957   3.045   1.650  0.4939 -0.6771 -0.7623
   66SAPC  H11B 5423   5.874   2.914   1.734 -1.2238  1.0451  1.1481
   66SAPC     P 5424   6.103   3.032   1.884 -0.3655 -0.3721 -0.0882
   66SAPC   O13 5425   6.150   2.910   1.810  0.5960 -0.0658  0.2393
   66SAPC   O14 5426   6.189   3.149   1.866  0.1045 -0.5156  0.1678
   66SAPC   O12 5427   5.954   3.067   1.856 -0.0680 -0.0051  0.1287
   66SAPC   O11 5428   6.087   2.992   2.036 -0.0717  0.0776  0.0800
   66SAPC    C1 5429   5.962   2.962   2.099  0.6156 -0.3839 -0.2744
   66SAPC    HA 5430   5.887   2.921   2.028 -1.2801  0.1071  1.3801
   66SAPC    HB 5431   5.980   2.890   2.182  0.4734 -0.6710 -0.4923
   66SAPC    C2 5432   5.898   3.092   2.155 -0.3768 -0.2272  0.3593
   66SAPC    HS 5433   5.870   3.146   2.063  0.4435  2.5138  1.6777
   66SAPC   O21 5434   6.001   3.160   2.232  0.5131  0.1895  0.3267
   66SAPC   C21 5435   5.980   3.283   2.265 -0.2974 -0.9372 -0.7937
   66SAPC   O22 5436   5.904   3.360   2.211  0.3284 -0.1848  0.8609
   66SAPC   C22 5437   6.084   3.320   2.375  0.6279  0.6910  0.3847
   66SAPC   H2R 5438   6.064   3.248   2.458  0.8274 -0.2497 -0.3741
   66SAPC   H2S 5439   6.180   3.312   2.319 -0.1620  0.2998 -0.9134
   66SAPC    C3 5440   5.769   3.064   2.224  0.4985  0.2359  0.1815
   66SAPC    HX 5441   5.713   3.002   2.150 -0.0936 -0.5720  1.2982
   66SAPC    HY 5442   5.710   3.158   2.236 -1.0914 -0.5943 -0.9447
   66SAPC   O31 5443   5.799   2.987   2.340  0.2317 -0.7328 -0.5575
   66SAPC   C31 5444   5.796   3.056   2.452  0.4357  0.0486  0.0841
   66SAPC   O32 5445   5.770   3.176   2.462 -0.2596 -0.2534  0.8308
   66SAPC   C32 5446   5.839   2.974   2.567 -0.2334 -0.7278  0.1906
   66SAPC   H2X 5447   5.948   2.956   2.554 -0.4173 -1.6627 -0.1398
   66SAPC   H2Y 5448   5.781   2.879   2.563 -0.5512 -0.4965 -0.8200
   66SAPC   C23 5449   6.081   3.464   2.422 -0.0645 -0.3151 -0.2654
   66SAPC   H3R 5450   6.080   3.543   2.343  0.4713  1.0155  1.0523
   66SAPC   H3S 5451   6.184   3.479   2.458  0.3074 -0.4987 -1.2291
   66SAPC   C24 5452   5.965   3.489   2.517 -0.5624  0.0636 -0.6481
   66SAPC   H4R 5453   5.880   3.433   2.472  0.8663 -1.4617 -1.5361
   66SAPC   H4S 5454   5.941   3.594   2.545  0.2424  0.0623  0.0569
   66SAPC   C25 5455   5.986   3.426   2.648  0.2576  0.1567  0.0518
   66SAPC   H5R 5456   6.088   3.424   2.690  1.1700 -2.3162 -2.1331
   66SAPC   C26 5457   5.890   3.400   2.740 -0.5808  0.2541  0.3266
   66SAPC   H6R 5458   5.906   3.362   2.842  1.1463 -0.5138 -0.2034
   66SAPC   C27 5459   5.747   3.430   2.729 -0.4670 -0.4491 -0.0200
   66SAPC   H7R 5460   5.694   3.339   2.765 -0.3651 -0.2925  0.5331
   66SAPC   H7S 5461   5.719   3.428   2.622 -3.0289 -0.5135  0.6305
   66SAPC   C28 5462   5.701   3.555   2.789  0.0404 -0.3855 -0.2005
   66SAPC   H8R 5463   5.731   3.644   2.731 -0.4380  1.9898  3.0295
   66SAPC   C29 5464   5.602   3.565   2.881 -0.6157  0.4972  0.6824
   66SAPC   H9R 5465   5.593   3.669   2.913  1.4828  1.5869 -2.0324
   66SAPC  C210 5466   5.540   3.447   2.948  0.4787  0.3192  0.1180
   66SAPC  H10R 5467   5.550   3.476   3.055 -2.9289  1.5060  0.1502
   66SAPC  H10S 5468   5.597   3.352   2.936 -0.0233  0.3162 -2.4951
   66SAPC  C211 5469   5.399   3.439   2.908  0.4176  0.2450 -0.1284
   66SAPC  H11R 5470   5.386   3.431   2.799  0.3203  0.5910 -0.1448
   66SAPC  C212 5471   5.284   3.428   2.985  0.0633 -0.1830 -0.3882
   66SAPC  H12R 5472   5.184   3.449   2.944 -0.3883  0.2753  0.9077
   66SAPC  C213 5473   5.270   3.422   3.135  0.8219  0.6442  0.5420
   66SAPC  H13R 5474   5.366   3.426   3.191  1.2144  0.1287 -0.0867
   66SAPC  H13S 5475   5.220   3.325   3.150  0.0186  1.2516  1.9229
   66SAPC  C214 5476   5.178   3.531   3.185 -0.1196 -0.5780  1.1929
   66SAPC  H14R 5477   5.210   3.632   3.157  1.5767 -1.2515  0.6139
   66SAPC  C215 5478   5.053   3.529   3.236 -0.1404 -0.1006  0.0696
   66SAPC  H15R 5479   5.011   3.624   3.272 -2.0391 -0.8481 -0.0843
   66SAPC  C216 5480   4.969   3.414   3.276 -0.3825 -0.0441  1.1737
   66SAPC  H16R 5481   5.005   3.318   3.233 -2.6321  0.8713 -3.0040
   66SAPC  H16S 5482   4.865   3.430   3.242  0.2225 -0.9440 -1.1717
   66SAPC  C217 5483   4.966   3.401   3.433  0.0196 -0.2140 -0.7432
   66SAPC  H17R 5484   4.952   3.496   3.488  1.4007  0.3255 -1.3166
   66SAPC  H17S 5485   5.065   3.360   3.461 -1.4046 -2.7385  0.8465
   66SAPC  C218 5486   4.863   3.300   3.478 -0.4383 -0.4476  0.1049
   66SAPC  H18R 5487   4.864   3.205   3.419  0.0976 -0.3418 -0.0546
   66SAPC  H18S 5488   4.761   3.342   3.467 -1.3589 -3.1347 -2.2360
   66SAPC  C219 5489   4.894   3.247   3.616 -0.5362  0.2719 -0.2075
   66SAPC  H19R 5490   4.997   3.206   3.609  0.4713  2.8766 -0.9760
   66SAPC  H19S 5491   4.834   3.155   3.635  0.6882 -0.3024  0.9265
   66SAPC  C220 5492   4.886   3.346   3.740 -0.1018 -0.4905 -0.4181
   66SAPC  H20R 5493   4.784   3.386   3.759  0.7944  0.0728  3.5690
   66SAPC  H20S 5494   4.967   3.419   3.720  0.7586 -1.2411  0.2758
   66SAPC  H20T 5495   4.922   3.292   3.830 -0.4689 -0.4741 -0.2586
   66SAPC   C33 5496   5.824   3.046   2.705  0.2086 -0.4687  1.0443
   66SAPC   H3X 5497   5.731   3.105   2.701  1.4315  1.4466  0.2449
   66SAPC   H3Y 5498   5.908   3.114   2.733 -0.1069  1.1721 -1.7790
   66SAPC   C34 5499   5.788   2.939   2.819 -0.2316  0.1921  0.2028
   66SAPC   H4X 5500   5.880   2.878   2.830  0.1873  0.5878 -1.0337
   66SAPC   H4Y 5501   5.713   2.868   2.779  0.2404 -0.0642 -0.2295
   66SAPC   C35 5502   5.745   2.999   2.953 -0.2508  0.8664 -0.2210
   66SAPC   H5X 5503   5.667   3.076   2.937 -0.6444  0.6076  0.4050
   66SAPC   H5Y 5504   5.837   3.048   2.991 -0.3041  2.7979 -2.4780
   66SAPC   C36 5505   5.701   2.909   3.062 -0.9304  0.1967 -0.4350
   66SAPC   H6X 5506   5.763   2.817   3.062 -2.4416 -0.8680 -2.2340
   66SAPC   H6Y 5507   5.596   2.873   3.053 -1.5542  1.6792  0.5719
   66SAPC   C37 5508   5.719   2.970   3.199  0.2642 -0.1284 -0.4070
   66SAPC   H7X 5509   5.641   3.046   3.223  0.5746  0.3977 -1.0653
   66SAPC   H7Y 5510   5.819   3.013   3.221 -0.7636  1.0314  2.3078
   66SAPC   C38 5511   5.695   2.871   3.303  0.4612  0.3669 -0.5342
   66SAPC   H8X 5512   5.756   2.780   3.284 -0.4259 -0.3200 -0.1253
   66SAPC   H8Y 5513   5.588   2.841   3.302  0.7870 -0.9170  1.1721
   66SAPC   C39 5514   5.729   2.927   3.438 -0.5742  0.8140 -0.6222
   66SAPC   H9X 5515   5.667   3.018   3.451 -2.4154 -0.5319  0.3030
   66SAPC   H9Y 5516   5.836   2.957   3.442 -0.2371 -0.2864 -1.0954
   66SAPC  C310 5517   5.700   2.832   3.556  0.2220 -0.3824  0.3529
   66SAPC  H10X 5518   5.753   2.869   3.647 -1.7224  2.8778  0.2483
   66SAPC  H10Y 5519   5.734   2.730   3.531  0.0205 -0.0233 -1.4226
   66SAPC  C311 5520   5.550   2.837   3.584 -0.5700 -0.1000  0.4151
   66SAPC  H11X 5521   5.497   2.794   3.495  1.4487 -0.7769 -0.5056
   66SAPC  H11Y 5522   5.519   2.944   3.584  1.3631  0.4735 -0.9172
   66SAPC  C312 5523   5.500   2.767   3.708 -0.2489  0.4833 -0.4808
   66SAPC  H12X 5524   5.547   2.666   3.714 -0.9545  0.1298 -0.8409
   66SAPC  H12Y 5525   5.391   2.746   3.711  0.0947 -1.2858  0.0249
   66SAPC  C313 5526   5.514   2.849   3.842  0.7429  0.0412 -0.3695
   66SAPC  H13X 5527   5.624   2.846   3.855  0.8295 -2.2083 -1.3357
   66SAPC  H13Y 5528   5.469   2.787   3.923  0.4434 -0.6333 -1.0411
   66SAPC  C314 5529   5.447   2.983   3.843  0.4772  0.8421 -0.2506
   66SAPC  H14X 5530   5.489   3.064   3.780  1.0476  1.3624  0.7748
   66SAPC  H14Y 5531   5.465   3.025   3.944  1.1340 -2.5524  1.1137
   66SAPC  C315 5532   5.294   2.982   3.836 -0.4141  0.6366  0.1460
   66SAPC  H15X 5533   5.247   2.905   3.901 -0.0979 -1.0567 -1.5832
   66SAPC  H15Y 5534   5.272   2.943   3.734  0.2379  0.6103  0.0187
   66SAPC  C316 5535   5.223   3.116   3.839 -0.1592 -0.2619 -0.3171
   66SAPC  H16X 5536   5.116   3.100   3.812 -0.7863  2.3262  0.5267
   66SAPC  H16Y 5537   5.268   3.180   3.760 -1.9400 -0.1617 -1.2977
   66SAPC  C317 5538   5.226   3.179   3.981  0.2141  0.4862  0.9213
   66SAPC  H17X 5539   5.324   3.176   4.035 -0.6881  0.3121  2.6012
   66SAPC  H17Y 5540   5.177   3.101   4.044  0.6795  0.3915  1.1718
   66SAPC  C318 5541   5.170   3.322   3.993 -0.0383  0.4995 -0.5628
   66SAPC  H18X 5542   5.193   3.364   4.093 -1.3848  2.7905 -1.1750
   66SAPC  H18Y 5543   5.060   3.325   3.976  0.0184 -0.8909 -1.2199
   66SAPC  H18Z 5544   5.223   3.388   3.920  3.9682 -3.5203 -1.5469
   67SAPC     N 5545   1.499   1.806   1.981  0.0489  0.5132  0.2750
   67SAPC   C12 5546   1.471   1.800   2.127  0.3292  0.5552 -0.4067
   67SAPC  H12A 5547   1.545   1.744   2.181 -1.4185  0.8429  2.3886
   67SAPC  H12B 5548   1.373   1.753   2.136  0.2071  0.7195 -0.8534
   67SAPC   C13 5549   1.503   1.676   1.909 -0.7299  0.6972  0.5871
   67SAPC  H13A 5550   1.411   1.624   1.930 -0.3727  0.4908  1.7297
   67SAPC  H13B 5551   1.504   1.690   1.802  0.3298 -1.1593  0.3268
   67SAPC  H13C 5552   1.586   1.611   1.936 -2.2162 -1.5550 -0.1250
   67SAPC   C14 5553   1.399   1.888   1.914 -0.0709 -0.0264 -0.8657
   67SAPC  H14A 5554   1.381   1.973   1.978 -0.7291  0.3046 -1.4828
   67SAPC  H14B 5555   1.425   1.916   1.813  1.1085  2.0859  0.0027
   67SAPC  H14C 5556   1.305   1.835   1.922 -0.7959  1.3554 -0.0823
   67SAPC   C15 5557   1.633   1.874   1.959 -0.6567 -0.0866 -0.7696
   67SAPC  H15A 5558   1.703   1.803   2.001 -2.1223 -2.3270 -2.0278
   67SAPC  H15B 5559   1.668   1.885   1.857  2.3627 -1.2144  0.1139
   67SAPC  H15C 5560   1.641   1.965   2.017 -1.6473 -1.5149  1.6555
   67SAPC   C11 5561   1.450   1.934   2.203  0.5278  0.2593 -0.5237
   67SAPC  H11A 5562   1.520   2.014   2.169  1.5229 -0.5646 -0.4435
   67SAPC  H11B 5563   1.459   1.923   2.313 -2.0759 -1.1060 -0.4199
   67SAPC     P 5564   1.269   2.127   2.175 -0.4636  0.3086  0.3606
   67SAPC   O13 5565   1.361   2.197   2.090  0.0345 -0.7771  0.1372
   67SAPC   O14 5566   1.126   2.116   2.127  0.4024  0.3335  0.0243
   67SAPC   O12 5567   1.316   1.975   2.171 -0.1353  0.6977 -0.2353
   67SAPC   O11 5568   1.283   2.169   2.325 -0.2763  0.4770 -0.2585
   67SAPC    C1 5569   1.195   2.125   2.428  0.6996 -0.1834 -0.6041
   67SAPC    HA 5570   1.137   2.035   2.401  1.1559  0.2934 -3.2684
   67SAPC    HB 5571   1.263   2.103   2.513 -0.3030  0.0554  0.2816
   67SAPC    C2 5572   1.090   2.228   2.479  0.1420  0.8506 -0.1489
   67SAPC    HS 5573   1.033   2.260   2.389 -1.7475  1.8999  1.3820
   67SAPC   O21 5574   1.164   2.341   2.536  0.4310 -0.1350  0.3261
   67SAPC   C21 5575   1.101   2.455   2.553  0.2265  0.6329 -0.5542
   67SAPC   O22 5576   0.984   2.472   2.525 -0.4664 -0.0940  0.0225
   67SAPC   C22 5577   1.195   2.556   2.622 -0.1068 -0.2272  0.1776
   67SAPC   H2R 5578   1.235   2.493   2.704 -0.1031 -0.5420 -0.0652
   67SAPC   H2S 5579   1.284   2.574   2.558  0.2799  0.9156  1.0248
   67SAPC    C3 5580   0.992   2.160   2.578  0.0297  0.3734 -0.5532
   67SAPC    HX 5581   0.968   2.065   2.526 -1.8523 -0.9746  2.6972
   67SAPC    HY 5582   0.902   2.224   2.586  0.1787  0.4605  0.3765
   67SAPC   O31 5583   1.059   2.138   2.700 -0.0679 -0.0027 -0.4190
   67SAPC   C31 5584   0.977   2.076   2.784 -0.1077  0.0575 -0.8349
   67SAPC   O32 5585   0.862   2.054   2.767  0.8316 -0.2011  0.3108
   67SAPC   C32 5586   1.049   2.058   2.919 -0.4091  0.0648 -0.1337
   67SAPC   H2X 5587   1.084   2.155   2.961 -2.6512  0.7452  0.2299
   67SAPC   H2Y 5588   1.138   1.993   2.916 -0.3776  0.0504  1.1231
   67SAPC   C23 5589   1.132   2.689   2.662  0.6257 -0.5320  0.0638
   67SAPC   H3R 5590   1.045   2.671   2.730  0.4957  1.0446  0.3242
   67SAPC   H3S 5591   1.090   2.750   2.580  0.0371  0.5711  1.1597
   67SAPC   C24 5592   1.234   2.771   2.758 -0.6167 -0.6589 -0.0033
   67SAPC   H4R 5593   1.186   2.866   2.790 -2.3134 -1.4656 -0.1378
   67SAPC   H4S 5594   1.321   2.810   2.699 -0.9999  0.0383 -0.1081
   67SAPC   C25 5595   1.289   2.688   2.866  0.0721 -0.0888 -0.1452
   67SAPC   H5R 5596   1.323   2.585   2.845  1.0662  0.1097  0.4917
   67SAPC   C26 5597   1.305   2.732   2.994  0.0632  0.2522  0.0811
   67SAPC   H6R 5598   1.340   2.655   3.064  1.9877  0.7316 -0.3300
   67SAPC   C27 5599   1.279   2.865   3.056  0.2645 -0.2228  0.4508
   67SAPC   H7R 5600   1.220   2.863   3.150  0.2960  1.3944  0.5286
   67SAPC   H7S 5601   1.220   2.919   2.978  0.0175 -1.6289 -0.3536
   67SAPC   C28 5602   1.405   2.950   3.054  0.4299 -0.0432  0.0600
   67SAPC   H8R 5603   1.446   2.976   2.955  2.4013 -2.1911  0.2760
   67SAPC   C29 5604   1.463   2.997   3.163 -0.2175  0.1039 -0.9860
   67SAPC   H9R 5605   1.547   3.068   3.148  0.4445 -0.9587 -2.4294
   67SAPC  C210 5606   1.437   2.959   3.305  0.6013  0.1348  0.3825
   67SAPC  H10R 5607   1.340   2.903   3.305  0.7481 -0.2688 -3.7113
   67SAPC  H10S 5608   1.427   3.053   3.362  0.2454  0.4143 -0.1366
   67SAPC  C211 5609   1.551   2.877   3.365  0.2215 -0.1729 -0.1441
   67SAPC  H11R 5610   1.601   2.806   3.297 -0.2040  0.3445 -1.0033
   67SAPC  C212 5611   1.588   2.866   3.498  0.6743  0.7149  0.2678
   67SAPC  H12R 5612   1.666   2.793   3.521 -0.1221  0.4468  2.1844
   67SAPC  C213 5613   1.509   2.929   3.611 -0.1178 -0.7420  0.3561
   67SAPC  H13R 5614   1.406   2.945   3.572 -0.1453 -0.3806  0.5716
   67SAPC  H13S 5615   1.542   3.031   3.644 -0.3972 -0.3922 -0.4403
   67SAPC  C214 5616   1.522   2.839   3.733 -0.8113 -0.7694  0.6340
   67SAPC  H14R 5617   1.522   2.732   3.709 -0.1594 -0.4773 -0.7139
   67SAPC  C215 5618   1.566   2.882   3.861  0.0298 -0.8150  0.0695
   67SAPC  H15R 5619   1.587   2.806   3.937  2.1556 -0.3279 -0.0012
   67SAPC  C216 5620   1.582   3.020   3.914  0.7143  0.5330  0.2020
   67SAPC  H16R 5621   1.553   3.099   3.842 -0.9611  0.5196  0.8492
   67SAPC  H16S 5622   1.692   3.027   3.933  0.9672  0.5923 -1.2609
   67SAPC  C217 5623   1.509   3.040   4.052  0.0750 -0.2099 -0.5017
   67SAPC  H17R 5624   1.402   3.013   4.047  0.1397 -0.5653 -0.0333
   67SAPC  H17S 5625   1.518   3.148   4.079  2.2857 -0.1870 -1.2419
   67SAPC  C218 5626   1.577   2.959   4.165 -0.3813  0.2491 -1.1998
   67SAPC  H18R 5627   1.668   3.012   4.200 -0.6927 -0.1281  0.2216
   67SAPC  H18S 5628   1.605   2.854   4.142  0.5038 -0.0719  1.1540
   67SAPC  C219 5629   1.486   2.952   4.293  0.0184  0.7198 -0.1564
   67SAPC  H19R 5630   1.492   2.851   4.338  1.5079 -0.1923 -2.3090
   67SAPC  H19S 5631   1.380   2.960   4.260 -0.1639 -0.9434  0.0211
   67SAPC  C220 5632   1.503   3.070   4.401 -0.5510  0.4800  0.1146
   67SAPC  H20R 5633   1.612   3.075   4.419 -0.3109 -3.3826  0.2647
   67SAPC  H20S 5634   1.437   3.066   4.490 -1.2207  1.9992 -0.3094
   67SAPC  H20T 5635   1.486   3.173   4.363  0.0027  0.4708 -0.1720
   67SAPC   C33 5636   0.972   2.001   3.034  0.3688  0.1242  0.1710
   67SAPC   H3X 5637   0.950   1.894   3.012  0.5208  0.4369 -1.5457
   67SAPC   H3Y 5638   0.873   2.051   3.045  0.6549  0.7609 -0.1585
   67SAPC   C34 5639   1.040   2.003   3.170 -0.3981  0.0025 -0.1960
   67SAPC   H4X 5640   1.064   2.108   3.198  0.3943 -0.2177 -0.0176
   67SAPC   H4Y 5641   1.139   1.953   3.163 -0.9986 -1.0903 -1.0693
   67SAPC   C35 5642   0.953   1.933   3.277 -0.9072  0.7861 -0.3785
   67SAPC   H5X 5643   0.927   1.833   3.236 -0.2743 -0.1605  1.4635
   67SAPC   H5Y 5644   0.861   1.991   3.298  0.6637  2.2512  2.7534
   67SAPC   C36 5645   1.026   1.923   3.406 -0.2236 -0.2343  0.0826
   67SAPC   H6X 5646   1.128   1.879   3.409  0.0101  0.2321 -0.8890
   67SAPC   H6Y 5647   0.959   1.863   3.471 -0.8995  0.7958  0.3569
   67SAPC   C37 5648   1.046   2.058   3.474  0.7081  0.4851  0.4854
   67SAPC   H7X 5649   0.955   2.120   3.457 -0.1037 -0.8929 -0.3147
   67SAPC   H7Y 5650   1.131   2.120   3.440  1.5224 -1.9693 -2.1284
   67SAPC   C38 5651   1.054   2.046   3.626  0.3797  0.4732  0.8004
   67SAPC   H8X 5652   0.972   1.978   3.657  2.3657 -0.9124  3.2437
   67SAPC   H8Y 5653   1.037   2.147   3.668  0.8261  0.2343  1.5784
   67SAPC   C39 5654   1.192   2.001   3.671 -0.1906  0.8979  0.4259
   67SAPC   H9X 5655   1.271   2.074   3.646  0.4069 -0.2522 -1.1075
   67SAPC   H9Y 5656   1.228   1.901   3.639  0.7281  1.7581 -1.2645
   67SAPC  C310 5657   1.208   1.999   3.825 -0.3481  0.4212  0.4137
   67SAPC  H10X 5658   1.139   1.932   3.881  1.2115 -1.7412 -0.2152
   67SAPC  H10Y 5659   1.201   2.100   3.871 -1.0454 -0.1454  1.5950
   67SAPC  C311 5660   1.349   1.960   3.872 -0.3871  1.3248 -0.1608
   67SAPC  H11X 5661   1.431   2.017   3.824  0.1868  0.2703 -0.4498
   67SAPC  H11Y 5662   1.364   1.854   3.842  1.4401  1.5599 -0.1183
   67SAPC  C312 5663   1.369   1.969   4.026  0.7039 -0.0896 -0.2186
   67SAPC  H12X 5664   1.278   1.920   4.066  0.1473  0.8254 -0.3436
   67SAPC  H12Y 5665   1.372   2.075   4.061 -0.8107  0.0135 -0.3665
   67SAPC  C313 5666   1.498   1.905   4.072  0.1102  0.6791 -1.0404
   67SAPC  H13X 5667   1.579   1.971   4.032 -1.4395  2.5400 -1.1818
   67SAPC  H13Y 5668   1.520   1.805   4.028 -0.7677  0.2069 -0.4080
   67SAPC  C314 5669   1.510   1.895   4.225 -0.4635 -0.0945  0.4623
   67SAPC  H14X 5670   1.427   1.828   4.254 -0.7166 -0.3550 -0.8325
   67SAPC  H14Y 5671   1.505   1.998   4.267 -1.5049  0.4697 -1.0068
   67SAPC  C315 5672   1.640   1.830   4.276  0.3699  0.0174  0.5779
   67SAPC  H15X 5673   1.648   1.720   4.262 -0.8889  0.0635 -0.5471
   67SAPC  H15Y 5674   1.640   1.847   4.386 -1.1301  1.4483  0.3606
   67SAPC  C316 5675   1.768   1.896   4.216  0.0924  0.1479 -0.3110
   67SAPC  H16X 5676   1.761   2.006   4.224  0.4989  0.1186  0.5578
   67SAPC  H16Y 5677   1.773   1.881   4.106 -1.3906 -0.3751 -0.3129
   67SAPC  C317 5678   1.892   1.849   4.289 -0.0554  0.5286 -0.2018
   67SAPC  H17X 5679   1.897   1.738   4.300 -1.4307  0.6513  1.8374
   67SAPC  H17Y 5680   1.903   1.880   4.395  1.0684 -0.6300  0.0299
   67SAPC  C318 5681   2.017   1.895   4.215 -0.0472 -0.1831  0.0813
   67SAPC  H18X 5682   2.110   1.874   4.271 -0.6531 -1.0883  0.7694
   67SAPC  H18Y 5683   2.012   2.004   4.194 -1.2733 -0.1089  0.6942
   67SAPC  H18Z 5684   2.025   1.844   4.117 -1.0269  1.5649 -0.9362
   68SAPC     N 5685   4.111   0.495   1.864  0.1088 -0.4766  0.2743
   68SAPC   C12 5686   4.133   0.608   1.962  0.0593  0.2913 -0.2906
   68SAPC  H12A 5687   4.232   0.602   2.004 -0.2161 -0.2559  0.2859
   68SAPC  H12B 5688   4.075   0.588   2.051  1.0442 -2.0089 -0.1401
   68SAPC   C13 5689   4.131   0.369   1.936  0.2121 -0.1043 -0.8683
   68SAPC  H13A 5690   4.099   0.283   1.879 -0.0783  0.3453 -1.3921
   68SAPC  H13B 5691   4.237   0.359   1.952 -0.1711 -1.1194  1.1487
   68SAPC  H13C 5692   4.076   0.365   2.029  1.8127  0.1908  0.1027
   68SAPC   C14 5693   3.968   0.500   1.817  0.2900 -0.6349 -0.7342
   68SAPC  H14A 5694   3.902   0.472   1.898 -0.2702 -2.4162 -1.7776
   68SAPC  H14B 5695   3.939   0.600   1.791  1.8972  0.1362  0.4129
   68SAPC  H14C 5696   3.952   0.435   1.731 -0.6868 -0.2551 -0.8415
   68SAPC   C15 5697   4.198   0.501   1.741 -0.1272 -0.6326 -0.5832
   68SAPC  H15A 5698   4.196   0.404   1.694 -2.2976 -0.8781 -0.0159
   68SAPC  H15B 5699   4.153   0.566   1.668 -2.7363 -1.2663  0.4246
   68SAPC  H15C 5700   4.296   0.523   1.781 -0.2348  2.9670 -2.0897
   68SAPC   C11 5701   4.108   0.752   1.918 -0.3014 -0.6266 -0.5075
   68SAPC  H11A 5702   4.180   0.777   1.837  0.8150  0.6557  0.8478
   68SAPC  H11B 5703   4.133   0.830   1.992 -2.2423  0.5801 -1.0770
   68SAPC     P 5704   3.858   0.814   1.955  0.1742 -0.0112  0.1773
   68SAPC   O13 5705   3.850   0.958   1.983  0.2207 -0.3935  0.6734
   68SAPC   O14 5706   3.738   0.750   1.895  0.3060  0.0422 -0.3827
   68SAPC   O12 5707   3.976   0.775   1.862  0.4011  0.7254 -0.1716
   68SAPC   O11 5708   3.885   0.739   2.089  0.6896 -0.1547  0.7586
   68SAPC    C1 5709   3.787   0.678   2.173  0.2986  0.8080 -0.2919
   68SAPC    HA 5710   3.752   0.582   2.131 -0.0480  0.6305  0.3868
   68SAPC    HB 5711   3.827   0.648   2.272  0.0260  1.2105 -0.0528
   68SAPC    C2 5712   3.659   0.764   2.208 -0.9240  0.8089  0.0324
   68SAPC    HS 5713   3.608   0.791   2.113 -0.3766  0.8869 -0.2401
   68SAPC   O21 5714   3.702   0.880   2.286  0.3271  0.0504 -0.0136
   68SAPC   C21 5715   3.612   0.979   2.294  0.5755 -0.0573 -0.1708
   68SAPC   O22 5716   3.502   0.990   2.246  0.4666  0.0019  0.3049
   68SAPC   C22 5717   3.670   1.083   2.389  0.0595  0.0357 -0.1216
   68SAPC   H2R 5718   3.751   1.034   2.446  0.0254 -2.4262 -2.1401
   68SAPC   H2S 5719   3.709   1.167   2.328 -2.2930  1.9481  0.9219
   68SAPC    C3 5720   3.550   0.681   2.283  0.0656  0.5948 -0.2204
   68SAPC    HX 5721   3.495   0.603   2.226  1.6544 -0.2851 -0.5841
   68SAPC    HY 5722   3.462   0.740   2.318 -0.0007  0.5225 -0.2647
   68SAPC   O31 5723   3.615   0.610   2.398  0.3439  0.5585  0.3611
   68SAPC   C31 5724   3.613   0.674   2.510 -0.2988  0.4392 -0.4396
   68SAPC   O32 5725   3.552   0.775   2.536  0.1987 -0.0386 -0.4457
   68SAPC   C32 5726   3.709   0.603   2.611 -0.2542 -0.1942  0.0595
   68SAPC   H2X 5727   3.813   0.629   2.582 -0.3069 -0.1563 -0.0944
   68SAPC   H2Y 5728   3.702   0.492   2.606  1.5728 -0.2497 -2.3792
   68SAPC   C23 5729   3.571   1.147   2.488  0.2522  0.1182  0.4216
   68SAPC   H3R 5730   3.524   1.067   2.550  0.2564  0.2457  0.5883
   68SAPC   H3S 5731   3.492   1.197   2.429 -0.7371 -2.1574 -0.2289
   68SAPC   C24 5732   3.640   1.254   2.580 -0.1738  1.2683 -0.7047
   68SAPC   H4R 5733   3.728   1.205   2.626 -0.5256 -0.3372 -1.7264
   68SAPC   H4S 5734   3.563   1.260   2.660  0.5075 -0.8026  0.1310
   68SAPC   C25 5735   3.671   1.385   2.517  0.3004 -0.1753  0.0626
   68SAPC   H5R 5736   3.708   1.370   2.414  1.2829  0.3570  0.3357
   68SAPC   C26 5737   3.653   1.510   2.572  0.2621  0.2684 -0.1199
   68SAPC   H6R 5738   3.683   1.597   2.512  0.7410  0.5756  0.5609
   68SAPC   C27 5739   3.607   1.554   2.711  0.6409 -0.0643  0.3056
   68SAPC   H7R 5740   3.676   1.514   2.789  0.9045  0.4447  0.3333
   68SAPC   H7S 5741   3.518   1.494   2.741 -0.4413  1.0182 -0.7177
   68SAPC   C28 5742   3.583   1.704   2.731  0.5747  0.2313 -0.0835
   68SAPC   H8R 5743   3.672   1.761   2.699  1.6206 -2.5293 -2.1939
   68SAPC   C29 5744   3.487   1.761   2.808 -0.2155 -0.4452  0.7452
   68SAPC   H9R 5745   3.480   1.870   2.805  2.4025 -0.2637  0.4964
   68SAPC  C210 5746   3.378   1.687   2.875 -0.3718 -0.1798 -1.0354
   68SAPC  H10R 5747   3.345   1.743   2.965 -0.5792 -1.0620 -0.5550
   68SAPC  H10S 5748   3.425   1.596   2.918 -0.8723  0.0467  0.0125
   68SAPC  C211 5749   3.265   1.638   2.784 -0.1347 -0.1117 -0.0671
   68SAPC  H11R 5750   3.255   1.699   2.693 -1.5341  2.3170  1.6644
   68SAPC  C212 5751   3.192   1.524   2.786 -0.0619 -0.9144 -0.0834
   68SAPC  H12R 5752   3.118   1.516   2.706 -0.9106 -0.3860  0.6363
   68SAPC  C213 5753   3.200   1.415   2.887 -0.4758  0.0032 -0.2014
   68SAPC  H13R 5754   3.104   1.404   2.943 -0.2378  2.4251  0.7250
   68SAPC  H13S 5755   3.261   1.441   2.976  0.5633  0.7330 -1.1128
   68SAPC  C214 5756   3.233   1.281   2.828  0.3376 -0.6314 -0.0614
   68SAPC  H14R 5757   3.194   1.261   2.727 -2.0406 -2.0297  1.0914
   68SAPC  C215 5758   3.321   1.190   2.883 -0.3190  0.3474 -0.3933
   68SAPC  H15R 5759   3.351   1.095   2.836 -0.3579  0.9235 -1.5841
   68SAPC  C216 5760   3.406   1.205   3.005  0.4380 -0.0445  0.6725
   68SAPC  H16R 5761   3.363   1.156   3.094  2.9308  0.7452  2.3651
   68SAPC  H16S 5762   3.430   1.312   3.024 -2.1768  0.8559 -0.7657
   68SAPC  C217 5763   3.545   1.135   2.992  0.3891 -0.4166 -0.2080
   68SAPC  H17R 5764   3.581   1.159   2.889 -3.5446  0.4269 -1.4797
   68SAPC  H17S 5765   3.529   1.026   3.001  0.7533 -0.3566  1.2694
   68SAPC  C218 5766   3.632   1.182   3.106  0.2235  0.1420  0.2577
   68SAPC  H18R 5767   3.576   1.215   3.197  1.0842  1.5173  0.2982
   68SAPC  H18S 5768   3.686   1.268   3.062 -2.2033  3.1733  2.9296
   68SAPC  C219 5769   3.718   1.077   3.179  0.2632 -0.3103  0.8401
   68SAPC  H19R 5770   3.653   0.992   3.209  0.0051  0.2311  1.8544
   68SAPC  H19S 5771   3.759   1.128   3.269 -1.2828  1.2215  0.6970
   68SAPC  C220 5772   3.841   1.019   3.108 -0.5408  0.1021 -0.0394
   68SAPC  H20R 5773   3.821   0.911   3.094 -0.9424 -0.0399  1.4528
   68SAPC  H20S 5774   3.924   1.033   3.181 -1.2880  1.7179  0.5516
   68SAPC  H20T 5775   3.870   1.081   3.021 -2.5664 -0.3696 -1.0845
   68SAPC   C33 5776   3.688   0.642   2.755 -0.1789  0.6300  0.3953
   68SAPC   H3X 5777   3.584   0.615   2.785  0.5838 -0.2192  2.3718
   68SAPC   H3Y 5778   3.691   0.751   2.779 -1.5129  0.5709  0.9024
   68SAPC   C34 5779   3.771   0.574   2.858  0.2644  1.0979 -0.5497
   68SAPC   H4X 5780   3.880   0.592   2.844  0.3060  2.5205  1.3237
   68SAPC   H4Y 5781   3.736   0.469   2.851  2.3732  0.3732 -0.5789
   68SAPC   C35 5782   3.754   0.632   3.006  0.5830 -0.3662 -0.1313
   68SAPC   H5X 5783   3.649   0.603   3.030  0.9637 -1.5848  0.1027
   68SAPC   H5Y 5784   3.762   0.743   3.005  1.8168 -0.4150 -4.2432
   68SAPC   C36 5785   3.842   0.570   3.113  0.1102 -0.9974  0.0105
   68SAPC   H6X 5786   3.947   0.568   3.077 -0.0535 -0.4147 -0.5035
   68SAPC   H6Y 5787   3.807   0.465   3.113  2.5372 -1.8356  0.5370
   68SAPC   C37 5788   3.834   0.622   3.258 -0.1256  0.5442 -0.6415
   68SAPC   H7X 5789   3.842   0.731   3.239 -2.4124  0.1725 -4.4390
   68SAPC   H7Y 5790   3.923   0.581   3.309 -0.8059 -1.2223 -0.8123
   68SAPC   C38 5791   3.707   0.584   3.332  0.1120  0.1187  0.5676
   68SAPC   H8X 5792   3.701   0.474   3.344  3.9669 -0.4342 -1.7065
   68SAPC   H8Y 5793   3.626   0.618   3.263  0.3988 -0.3200  0.0128
   68SAPC   C39 5794   3.678   0.653   3.469 -0.2262 -0.0351 -1.1212
   68SAPC   H9X 5795   3.737   0.602   3.548 -2.2842  2.2685  2.0409
   68SAPC   H9Y 5796   3.573   0.639   3.501  0.8628  0.5285  3.0430
   68SAPC  C310 5797   3.708   0.799   3.482 -0.0825 -0.0184 -0.3156
   68SAPC  H10X 5798   3.633   0.864   3.432 -2.0195 -0.9988  1.2761
   68SAPC  H10Y 5799   3.810   0.831   3.450  0.4125 -2.3894 -1.2155
   68SAPC  C311 5800   3.713   0.842   3.630  0.0919  0.0087 -0.0386
   68SAPC  H11X 5801   3.799   0.781   3.666  1.2796  1.7650  0.1797
   68SAPC  H11Y 5802   3.622   0.807   3.683 -0.6895  0.8693 -0.7992
   68SAPC  C312 5803   3.726   0.994   3.656 -0.4139  0.3203 -0.0862
   68SAPC  H12X 5804   3.631   1.038   3.619 -0.2095 -1.1777 -2.5080
   68SAPC  H12Y 5805   3.812   1.035   3.600 -0.6240  0.7169 -0.1181
   68SAPC  C313 5806   3.735   1.009   3.810 -0.0829  0.3961 -0.5773
   68SAPC  H13X 5807   3.796   0.930   3.859 -1.3908  0.2819  0.8834
   68SAPC  H13Y 5808   3.634   0.994   3.853 -0.7610 -0.1686 -2.3425
   68SAPC  C314 5809   3.786   1.152   3.842 -0.7320  0.1982 -0.2123
   68SAPC  H14X 5810   3.707   1.219   3.803  1.3813  1.8961 -1.7317
   68SAPC  H14Y 5811   3.880   1.177   3.787  0.4657 -1.7642  0.8809
   68SAPC  C315 5812   3.813   1.171   3.996 -0.3703  0.3704 -0.1826
   68SAPC  H15X 5813   3.902   1.111   4.024 -0.0827  0.2443 -1.3432
   68SAPC  H15Y 5814   3.727   1.139   4.058  0.0526  0.1661  0.2937
   68SAPC  C316 5815   3.839   1.318   4.032  0.0478 -0.5633 -0.8479
   68SAPC  H16X 5816   3.863   1.332   4.140 -1.4734  3.0201 -0.9035
   68SAPC  H16Y 5817   3.752   1.383   4.009 -0.7183 -1.6618 -1.0367
   68SAPC  C317 5818   3.962   1.388   3.963 -0.3966 -0.1402  0.9586
   68SAPC  H17X 5819   3.955   1.379   3.853  0.0123  0.6512  0.8590
   68SAPC  H17Y 5820   4.056   1.336   3.990 -0.1436 -0.0058  0.3386
   68SAPC  C318 5821   3.984   1.535   4.009  0.4882  0.4043  0.0305
   68SAPC  H18X 5822   3.912   1.607   3.964  1.0547  1.3653  0.6405
   68SAPC  H18Y 5823   4.088   1.564   3.981  1.1667 -1.0319  1.0283
   68SAPC  H18Z 5824   3.986   1.550   4.119  0.8264  0.3138  0.0372
   69SAPC     N 5825   3.957   6.643   2.168 -0.0934  0.7354  0.6984
   69SAPC   C12 5826   4.018   6.562   2.056 -1.0198 -0.2101  0.5328
   69SAPC  H12A 5827   4.125   6.565   2.075 -0.9755  1.2869  0.1317
   69SAPC  H12B 5828   4.027   6.600   1.956  1.6355 -1.2090  0.3332
   69SAPC   C13 5829   4.003   6.788   2.174 -0.3954  1.2753 -0.2112
   69SAPC  H13A 5830   3.935   6.844   2.237  0.8371  1.6420  0.8157
   69SAPC  H13B 5831   4.099   6.789   2.221  0.6386 -0.3588 -2.1879
   69SAPC  H13C 5832   4.010   6.834   2.076 -0.4956  0.0505 -0.8095
   69SAPC   C14 5833   3.804   6.642   2.166  0.8603  0.3910  0.1435
   69SAPC  H14A 5834   3.763   6.543   2.152 -1.4267  0.9428  2.6596
   69SAPC  H14B 5835   3.772   6.685   2.259 -0.3160  2.0814 -1.0119
   69SAPC  H14C 5836   3.767   6.694   2.079 -0.0136 -2.7573 -1.4689
   69SAPC   C15 5837   3.997   6.580   2.297  0.0108  0.7595  0.3209
   69SAPC  H15A 5838   3.960   6.478   2.294 -0.7579  1.0229  0.9396
   69SAPC  H15B 5839   4.104   6.570   2.302  0.2614  3.5646  0.9514
   69SAPC  H15C 5840   3.950   6.628   2.381  0.7064  1.1705  0.4807
   69SAPC   C11 5841   3.975   6.418   2.048  0.1936 -0.5615  0.3683
   69SAPC  H11A 5842   3.870   6.411   2.013  0.9469 -0.2008 -2.0479
   69SAPC  H11B 5843   3.968   6.362   2.144  0.6066 -0.8764  0.2154
   69SAPC     P 5844   4.188   6.276   2.003  0.7164  0.1348  0.3580
   69SAPC   O13 5845   4.147   6.154   2.080 -0.1676  0.1499 -0.4891
   69SAPC   O14 5846   4.271   6.257   1.880  0.1781  0.4842 -0.3532
   69SAPC   O12 5847   4.061   6.346   1.967 -0.4086 -0.3855  0.1827
   69SAPC   O11 5848   4.261   6.376   2.101  0.0353  0.0599 -0.3316
   69SAPC    C1 5849   4.378   6.345   2.171 -0.0222  0.6166 -0.0303
   69SAPC    HA 5850   4.378   6.245   2.221  0.7203  1.6882  2.1825
   69SAPC    HB 5851   4.456   6.337   2.093  2.0038 -1.6891  2.1383
   69SAPC    C2 5852   4.422   6.456   2.269 -0.2988  0.1508  0.2037
   69SAPC    HS 5853   4.530   6.433   2.286 -0.3277 -1.0682 -1.1784
   69SAPC   O21 5854   4.338   6.457   2.387  0.0783  0.3618 -0.6859
   69SAPC   C21 5855   4.349   6.347   2.467  0.0029  0.3445 -0.3696
   69SAPC   O22 5856   4.432   6.257   2.456 -0.3547  0.0396  0.9964
   69SAPC   C22 5857   4.241   6.364   2.577 -0.2494 -0.5390 -0.5242
   69SAPC   H2R 5858   4.209   6.470   2.577 -1.1515 -0.7477  2.9824
   69SAPC   H2S 5859   4.162   6.296   2.539 -0.9189  0.7971 -1.5574
   69SAPC    C3 5860   4.417   6.588   2.191  0.1342 -0.2172 -0.0418
   69SAPC    HX 5861   4.312   6.604   2.158  0.4333 -0.9109 -1.3571
   69SAPC    HY 5862   4.471   6.572   2.095 -1.1042  0.5818 -0.9054
   69SAPC   O31 5863   4.471   6.694   2.267  0.2101 -0.0413  0.4245
   69SAPC   C31 5864   4.382   6.760   2.352  0.1736  0.9028  0.6092
   69SAPC   O32 5865   4.262   6.741   2.355 -0.3879  0.2520 -0.2957
   69SAPC   C32 5866   4.450   6.858   2.438 -0.6330  0.7917  0.0270
   69SAPC   H2X 5867   4.488   6.934   2.367 -0.1187  0.2285 -0.3066
   69SAPC   H2Y 5868   4.532   6.798   2.484 -2.4063 -1.2192  0.6394
   69SAPC   C23 5869   4.304   6.315   2.704 -0.4971 -0.0016  0.2793
   69SAPC   H3R 5870   4.408   6.351   2.716  0.1530 -1.9426  0.5895
   69SAPC   H3S 5871   4.302   6.205   2.696 -2.8938  0.0182  0.1064
   69SAPC   C24 5872   4.224   6.360   2.832 -0.6259 -0.3884  0.1078
   69SAPC   H4R 5873   4.203   6.469   2.822 -0.1911 -0.2883  0.2493
   69SAPC   H4S 5874   4.282   6.346   2.925  1.2735  2.8841 -0.4921
   69SAPC   C25 5875   4.101   6.267   2.841  0.6004 -0.1926 -0.1521
   69SAPC   H5R 5876   4.126   6.170   2.886  3.3394  1.2690  1.6196
   69SAPC   C26 5877   3.979   6.300   2.796  0.0803 -0.2020  0.0134
   69SAPC   H6R 5878   3.891   6.249   2.839 -0.1340  0.1113 -0.0475
   69SAPC   C27 5879   3.932   6.420   2.710  0.0967  0.5593 -0.3302
   69SAPC   H7R 5880   4.006   6.497   2.679 -1.0996  1.4113 -1.1460
   69SAPC   H7S 5881   3.846   6.469   2.761 -1.7307 -1.9657 -0.8810
   69SAPC   C28 5882   3.876   6.364   2.579  0.7350 -0.6306  0.0975
   69SAPC   H8R 5883   3.928   6.276   2.540  0.2203 -0.6706 -0.5185
   69SAPC   C29 5884   3.785   6.426   2.499 -0.9626  0.0751 -0.2110
   69SAPC   H9R 5885   3.758   6.383   2.402 -0.6634  1.1269 -0.7738
   69SAPC  C210 5886   3.730   6.560   2.536  0.2985 -0.1750 -0.0948
   69SAPC  H10R 5887   3.778   6.634   2.469 -1.1438  0.8486 -0.0197
   69SAPC  H10S 5888   3.761   6.594   2.637 -1.0506 -3.2293  1.4439
   69SAPC  C211 5889   3.579   6.570   2.530  0.8236 -0.4244  0.0883
   69SAPC  H11R 5890   3.542   6.600   2.431  1.8335  1.8756  0.3822
   69SAPC  C212 5891   3.493   6.542   2.631 -0.2211  0.1454  0.0565
   69SAPC  H12R 5892   3.384   6.543   2.619 -0.4362  0.2773  1.8507
   69SAPC  C213 5893   3.538   6.497   2.764  0.0909  0.2805  0.2664
   69SAPC  H13R 5894   3.606   6.572   2.808  1.4297 -1.6600  1.6158
   69SAPC  H13S 5895   3.613   6.415   2.754  0.4674  0.8148 -1.4920
   69SAPC  C214 5896   3.441   6.469   2.878  0.1937  0.4765 -0.6266
   69SAPC  H14R 5897   3.410   6.558   2.935 -0.4084 -0.1539  0.0385
   69SAPC  C215 5898   3.395   6.345   2.915 -1.0120  0.5900 -0.1993
   69SAPC  H15R 5899   3.345   6.334   3.013 -2.5506  1.5455 -0.8586
   69SAPC  C216 5900   3.428   6.216   2.849 -0.1446  0.7621 -0.0434
   69SAPC  H16R 5901   3.507   6.233   2.772  0.6497 -1.3178  0.2865
   69SAPC  H16S 5902   3.341   6.190   2.785 -0.3250  2.2942 -0.4552
   69SAPC  C217 5903   3.463   6.109   2.956 -0.7306 -0.2980 -0.9852
   69SAPC  H17R 5904   3.501   6.025   2.894 -0.9867 -0.0657 -1.4597
   69SAPC  H17S 5905   3.374   6.070   3.011 -1.0978  1.0628 -0.5817
   69SAPC  C218 5906   3.575   6.163   3.045 -0.3605  0.0786  0.8950
   69SAPC  H18R 5907   3.513   6.232   3.106 -0.3130  1.1633 -0.2642
   69SAPC  H18S 5908   3.653   6.220   2.990 -0.8916  0.0418  0.0999
   69SAPC  C219 5909   3.636   6.049   3.125 -0.4040 -0.2349 -0.2208
   69SAPC  H19R 5910   3.653   5.958   3.063 -2.2585 -0.3240 -0.6178
   69SAPC  H19S 5911   3.571   6.014   3.208 -0.9300 -1.7882 -1.2580
   69SAPC  C220 5912   3.770   6.079   3.193  0.0199  0.3987  0.3618
   69SAPC  H20R 5913   3.808   5.995   3.255  2.4723 -0.4384 -2.2019
   69SAPC  H20S 5914   3.768   6.172   3.254 -2.4488 -0.3377  1.4579
   69SAPC  H20T 5915   3.849   6.101   3.119 -1.5557  1.6861 -0.9786
   69SAPC   C33 5916   4.364   6.925   2.546  0.1635 -0.3950 -0.0605
   69SAPC   H3X 5917   4.331   6.850   2.622  0.1382 -0.9945 -0.6637
   69SAPC   H3Y 5918   4.280   6.991   2.517  1.7474  1.0810 -1.3505
   69SAPC   C34 5919   4.459   7.008   2.642 -0.1008 -0.0625  0.2166
   69SAPC   H4X 5920   4.477   7.107   2.594  1.2682 -0.4882 -0.1625
   69SAPC   H4Y 5921   4.558   6.961   2.657  1.0463  2.3817  0.4741
   69SAPC   C35 5922   4.394   7.031   2.779 -0.1015 -0.4174 -0.1542
   69SAPC   H5X 5923   4.287   7.059   2.771 -0.4313 -1.3751  0.8455
   69SAPC   H5Y 5924   4.433   7.121   2.833 -1.2231 -1.7434  2.9557
   69SAPC   C36 5925   4.401   6.923   2.882 -0.1044 -0.1814 -0.0947
   69SAPC   H6X 5926   4.495   6.914   2.941 -0.9014  1.0016  1.4013
   69SAPC   H6Y 5927   4.372   6.822   2.847 -4.0973  1.1624 -0.9401
   69SAPC   C37 5928   4.301   6.962   2.997 -0.0664  0.3052  0.2152
   69SAPC   H7X 5929   4.205   6.996   2.952 -1.8093 -3.4030  0.9935
   69SAPC   H7Y 5930   4.351   7.046   3.051 -0.1054  0.2081  0.4006
   69SAPC   C38 5931   4.259   6.851   3.096 -0.5346 -0.0526 -0.9384
   69SAPC   H8X 5932   4.346   6.790   3.127 -0.5604  0.2658 -0.2271
   69SAPC   H8Y 5933   4.202   6.775   3.039 -0.6632  1.8634 -3.4951
   69SAPC   C39 5934   4.207   6.903   3.229 -0.0275  0.1645  0.1848
   69SAPC   H9X 5935   4.140   6.987   3.205 -0.0228 -0.6553 -2.8445
   69SAPC   H9Y 5936   4.296   6.945   3.280  0.6176 -1.0695  0.1040
   69SAPC  C310 5937   4.129   6.796   3.316 -0.9587 -0.2595 -1.3573
   69SAPC  H10X 5938   4.200   6.759   3.393 -1.5983  0.8060 -0.2306
   69SAPC  H10Y 5939   4.099   6.714   3.247  1.7025 -0.9785 -1.7081
   69SAPC  C311 5940   4.009   6.854   3.393 -0.5563  0.9739  0.4827
   69SAPC  H11X 5941   3.941   6.767   3.404 -0.4707  0.7485 -0.7817
   69SAPC  H11Y 5942   3.959   6.937   3.338 -2.0531  0.0773  0.4754
   69SAPC  C312 5943   4.045   6.900   3.540  0.0617 -0.0343  0.5231
   69SAPC  H12X 5944   4.097   6.998   3.543  0.8514 -0.4422  0.2623
   69SAPC  H12Y 5945   4.116   6.829   3.588  1.8570  0.9966 -0.5621
   69SAPC  C313 5946   3.918   6.921   3.630 -0.0966  0.5673 -0.4010
   69SAPC  H13X 5947   3.866   6.823   3.626  0.6738  0.2357 -3.2624
   69SAPC  H13Y 5948   3.858   7.001   3.584 -0.2379 -0.9953 -3.0351
   69SAPC  C314 5949   3.946   6.940   3.783 -0.6723  0.7039  0.0335
   69SAPC  H14X 5950   4.026   6.871   3.817 -2.1618 -1.4850 -0.8271
   69SAPC  H14Y 5951   3.852   6.928   3.842  0.8188 -0.1921  2.2705
   69SAPC  C315 5952   4.002   7.088   3.809 -0.0486  0.1891  0.5305
   69SAPC  H15X 5953   3.926   7.162   3.775  0.9012  0.6541 -0.6166
   69SAPC  H15Y 5954   4.088   7.092   3.739 -0.7813  0.6646 -0.3557
   69SAPC  C316 5955   4.051   7.117   3.957  0.1165  0.0857  0.2833
   69SAPC  H16X 5956   4.106   7.213   3.963 -0.5162  0.3964  1.3317
   69SAPC  H16Y 5957   4.118   7.038   3.998  1.0592  0.5589 -0.3566
   69SAPC  C317 5958   3.937   7.138   4.058  0.3945 -0.4857  0.5068
   69SAPC  H17X 5959   3.966   7.131   4.165  1.5390 -0.4417  0.2097
   69SAPC  H17Y 5960   3.860   7.064   4.029  0.1092  0.1804 -0.4540
   69SAPC  C318 5961   3.876   7.274   4.036 -0.4151 -0.4074  0.7247
   69SAPC  H18X 5962   3.782   7.292   4.094 -1.2529  0.3171 -0.7980
   69SAPC  H18Y 5963   3.848   7.293   3.930 -0.3054 -2.1104  0.3776
   69SAPC  H18Z 5964   3.940   7.360   4.066  0.6296 -0.2776 -1.7726
   70SAPC     N 5965   6.504   3.667   1.738 -0.4865 -0.2499  0.9085
   70SAPC   C12 5966   6.651   3.699   1.761  0.0067  0.0635  0.6259
   70SAPC  H12A 5967   6.655   3.794   1.710  0.7021 -0.9857 -1.3321
   70SAPC  H12B 5968   6.720   3.626   1.721  1.2292  0.5364  1.8215
   70SAPC   C13 5969   6.468   3.538   1.810 -0.2634  0.2968  0.4074
   70SAPC  H13A 5970   6.369   3.504   1.785  1.9457 -4.0195 -3.3619
   70SAPC  H13B 5971   6.535   3.454   1.792 -0.2796  0.5971 -1.1449
   70SAPC  H13C 5972   6.460   3.556   1.916  0.1831 -1.5089  0.7771
   70SAPC   C14 5973   6.414   3.774   1.791  0.5162 -0.8350  0.8894
   70SAPC  H14A 5974   6.434   3.877   1.764 -0.7206 -0.3998  1.5860
   70SAPC  H14B 5975   6.310   3.757   1.765  0.6861  2.9092 -2.7711
   70SAPC  H14C 5976   6.428   3.774   1.898 -0.3344  1.1070  1.0235
   70SAPC   C15 5977   6.483   3.648   1.590  0.0337  0.7666 -0.7566
   70SAPC  H15A 5978   6.381   3.617   1.575 -0.0917  0.8538 -0.1226
   70SAPC  H15B 5979   6.492   3.744   1.541 -1.7280  2.1299  1.4839
   70SAPC  H15C 5980   6.559   3.585   1.547  1.5864  1.3378  1.0717
   70SAPC   C11 5981   6.707   3.710   1.907 -0.4106  0.0031  0.3383
   70SAPC  H11A 5982   6.692   3.613   1.958 -1.0179 -0.0029  0.1564
   70SAPC  H11B 5983   6.637   3.775   1.963 -2.2958 -0.0994 -1.8272
   70SAPC     P 5984   6.878   3.895   1.927 -0.0335  0.1154 -0.4376
   70SAPC   O13 5985   7.024   3.911   1.909 -0.0682 -0.6257  0.3025
   70SAPC   O14 5986   6.797   3.976   1.840  0.7602 -0.0453  0.4501
   70SAPC   O12 5987   6.839   3.745   1.913 -0.2454  0.1457  0.0128
   70SAPC   O11 5988   6.850   3.925   2.070 -0.5763  0.4369  0.0731
   70SAPC    C1 5989   6.902   3.851   2.187  0.6008  0.5225  0.0820
   70SAPC    HA 5990   7.004   3.814   2.159  0.5233  0.4515 -0.1091
   70SAPC    HB 5991   6.907   3.917   2.276  0.7520 -1.2022  1.3905
   70SAPC    C2 5992   6.811   3.741   2.240  0.6560 -0.5309 -0.6518
   70SAPC    HS 5993   6.750   3.703   2.155  0.4901  0.2014 -0.8677
   70SAPC   O21 5994   6.722   3.808   2.337  0.6570 -0.4959  0.8502
   70SAPC   C21 5995   6.612   3.746   2.363 -0.4616 -0.1561 -0.3805
   70SAPC   O22 5996   6.582   3.636   2.321  0.2570  0.1438 -0.0832
   70SAPC   C22 5997   6.535   3.809   2.477 -0.8162 -0.3973  0.0105
   70SAPC   H2R 5998   6.592   3.776   2.567 -0.0761  1.8640  0.3963
   70SAPC   H2S 5999   6.542   3.919   2.466 -1.6983 -0.2609  0.7233
   70SAPC    C3 6000   6.885   3.621   2.294 -0.2512  0.7847  0.6285
   70SAPC    HX 6001   6.919   3.562   2.206 -2.7871 -1.5415  1.1286
   70SAPC    HY 6002   6.805   3.567   2.349 -0.1381 -2.5381 -2.2657
   70SAPC   O31 6003   6.986   3.653   2.391  0.2835  0.1916  0.7788
   70SAPC   C31 6004   7.062   3.546   2.422  0.0485  0.4462 -0.4561
   70SAPC   O32 6005   7.028   3.433   2.403 -0.7273 -0.3342  0.2453
   70SAPC   C32 6006   7.187   3.590   2.498 -0.1219 -0.0896  0.1567
   70SAPC   H2X 6007   7.197   3.699   2.480 -1.2199  0.0437  0.3071
   70SAPC   H2Y 6008   7.276   3.550   2.445 -0.9501  0.8906 -2.0243
   70SAPC   C23 6009   6.381   3.776   2.473 -0.2791  0.0285  0.3070
   70SAPC   H3R 6010   6.360   3.667   2.465 -0.1638 -0.0001  0.3860
   70SAPC   H3S 6011   6.344   3.835   2.387  2.8282  0.2818 -0.9302
   70SAPC   C24 6012   6.314   3.824   2.600  0.1398  0.0970  0.0295
   70SAPC   H4R 6013   6.356   3.779   2.692 -0.2297 -0.5812 -0.1311
   70SAPC   H4S 6014   6.208   3.792   2.601 -0.3128  1.4090 -1.5782
   70SAPC   C25 6015   6.322   3.974   2.593  0.7512  0.0754  0.5983
   70SAPC   H5R 6016   6.263   4.019   2.511 -2.4252  1.9001  3.7454
   70SAPC   C26 6017   6.383   4.045   2.690 -0.6660 -0.5865  0.2164
   70SAPC   H6R 6018   6.395   4.154   2.680  0.3298 -0.5584  1.5295
   70SAPC   C27 6019   6.447   3.990   2.816 -0.2942  0.4400 -0.1276
   70SAPC   H7R 6020   6.517   4.064   2.860  0.4167 -0.6168  0.5378
   70SAPC   H7S 6021   6.516   3.907   2.788 -0.4154 -0.2151  1.4579
   70SAPC   C28 6022   6.360   3.934   2.921  0.2211  0.5425  0.5101
   70SAPC   H8R 6023   6.300   3.851   2.881  2.0178  0.0943 -1.3614
   70SAPC   C29 6024   6.337   3.971   3.052 -0.4738 -0.5362  0.1215
   70SAPC   H9R 6025   6.262   3.919   3.113  0.2433 -0.5521  1.0104
   70SAPC  C210 6026   6.414   4.077   3.136 -0.3838 -0.0635 -0.1807
   70SAPC  H10R 6027   6.365   4.176   3.139  1.3757  0.9362 -3.2459
   70SAPC  H10S 6028   6.514   4.095   3.091  0.8440 -1.4718  1.8900
   70SAPC  C211 6029   6.443   4.033   3.276  0.6443  0.3908  0.0110
   70SAPC  H11R 6030   6.357   4.043   3.344  1.7989 -0.1512  1.5800
   70SAPC  C212 6031   6.547   3.973   3.338  0.5066  0.0519  0.4047
   70SAPC  H12R 6032   6.539   3.951   3.445 -0.8856 -0.0081  0.2964
   70SAPC  C213 6033   6.675   3.937   3.272  0.3231  0.4906 -0.2511
   70SAPC  H13R 6034   6.694   4.019   3.199 -1.3633 -0.6485 -2.0324
   70SAPC  H13S 6035   6.647   3.851   3.207  0.4768  0.8259 -0.7614
   70SAPC  C214 6036   6.800   3.900   3.350  0.6775  0.1574  0.2313
   70SAPC  H14R 6037   6.819   3.792   3.359  1.7676  0.4006  0.9324
   70SAPC  C215 6038   6.884   3.983   3.409  0.0754 -0.1711  0.7467
   70SAPC  H15R 6039   6.966   3.935   3.464  1.8542  1.6658 -0.2361
   70SAPC  C216 6040   6.875   4.130   3.426  0.3987 -0.9343 -0.8222
   70SAPC  H16R 6041   6.869   4.195   3.336 -0.3753  1.2496  0.7499
   70SAPC  H16S 6042   6.968   4.166   3.475  0.0650  1.8293 -2.0932
   70SAPC  C217 6043   6.762   4.171   3.516  0.2685 -0.4830 -0.3817
   70SAPC  H17R 6044   6.659   4.143   3.484  0.3205 -0.5367 -0.5004
   70SAPC  H17S 6045   6.749   4.280   3.530 -0.4914 -0.3216 -2.2289
   70SAPC  C218 6046   6.793   4.118   3.658  0.2102  0.2156  0.2344
   70SAPC  H18R 6047   6.897   4.153   3.672 -0.1816  2.9233 -2.8329
   70SAPC  H18S 6048   6.787   4.008   3.668 -0.9299  0.1976 -0.5517
   70SAPC  C219 6049   6.713   4.192   3.771 -0.2791  0.5311 -0.5695
   70SAPC  H19R 6050   6.603   4.188   3.753 -0.4374 -1.5724  0.8009
   70SAPC  H19S 6051   6.749   4.297   3.758 -1.3881  0.8561 -1.1087
   70SAPC  C220 6052   6.747   4.128   3.907 -0.5381 -0.4506  0.3775
   70SAPC  H20R 6053   6.856   4.138   3.925 -0.3140  3.6669 -2.4212
   70SAPC  H20S 6054   6.708   4.026   3.927  0.4667 -0.7075  1.0320
   70SAPC  H20T 6055   6.696   4.181   3.990 -0.5902 -2.1763  1.4472
   70SAPC   C33 6056   7.194   3.544   2.643  0.4417  0.4575 -0.0034
   70SAPC   H3X 6057   7.188   3.433   2.635 -0.5068  0.4733  0.3550
   70SAPC   H3Y 6058   7.098   3.569   2.694  0.6830 -0.9857  1.1920
   70SAPC   C34 6059   7.304   3.596   2.736 -0.7270 -0.1579  0.1148
   70SAPC   H4X 6060   7.397   3.553   2.692 -0.5220  0.9123 -0.5104
   70SAPC   H4Y 6061   7.285   3.558   2.839  0.7062  0.8778  0.7696
   70SAPC   C35 6062   7.305   3.746   2.745 -0.0415 -0.2624  0.3786
   70SAPC   H5X 6063   7.199   3.780   2.747  0.0754  0.2792 -2.0310
   70SAPC   H5Y 6064   7.348   3.798   2.658 -1.7320  1.4797  0.5481
   70SAPC   C36 6065   7.368   3.795   2.870 -0.3843 -0.6993  0.0136
   70SAPC   H6X 6066   7.476   3.767   2.866 -0.0030  0.8205 -0.4824
   70SAPC   H6Y 6067   7.325   3.744   2.959  0.7788 -0.4538  0.7197
   70SAPC   C37 6068   7.360   3.952   2.868 -0.5420 -0.0422  0.1085
   70SAPC   H7X 6069   7.437   4.011   2.923  0.8887 -2.3118  0.6110
   70SAPC   H7Y 6070   7.376   3.981   2.762  1.7308  3.0028  1.2087
   70SAPC   C38 6071   7.218   4.000   2.909  0.0647  0.2195  0.1646
   70SAPC   H8X 6072   7.206   3.974   3.016  0.0315 -2.5976 -0.4824
   70SAPC   H8Y 6073   7.129   3.959   2.857  0.9739 -0.6354 -0.7463
   70SAPC   C39 6074   7.200   4.150   2.891 -0.2058 -0.5534  0.4460
   70SAPC   H9X 6075   7.195   4.154   2.780  1.5812  0.9135  0.4004
   70SAPC   H9Y 6076   7.293   4.205   2.914 -0.3922  1.0674 -2.4552
   70SAPC  C310 6077   7.071   4.202   2.951  0.3646 -0.4266 -0.0573
   70SAPC  H10X 6078   7.077   4.192   3.061 -1.2456  0.1787  0.1060
   70SAPC  H10Y 6079   6.982   4.148   2.912 -1.1247  3.7290 -2.8227
   70SAPC  C311 6080   7.051   4.352   2.929  1.0142  0.2940  0.0153
   70SAPC  H11X 6081   7.027   4.374   2.823 -1.5368  0.3358  0.5557
   70SAPC  H11Y 6082   7.142   4.411   2.953  1.1426 -0.5651  1.6673
   70SAPC  C312 6083   6.931   4.404   3.008  0.0504 -0.3103 -0.3861
   70SAPC  H12X 6084   6.957   4.390   3.115  0.4802 -1.8262 -0.6738
   70SAPC  H12Y 6085   6.848   4.332   2.987 -0.3956 -0.5041  1.8980
   70SAPC  C313 6086   6.878   4.550   2.991 -0.4927 -0.4285  0.9053
   70SAPC  H13X 6087   6.848   4.566   2.885  1.3585  0.6895  0.5179
   70SAPC  H13Y 6088   6.955   4.624   3.022 -0.5671 -0.4547  1.1554
   70SAPC  C314 6089   6.756   4.587   3.086 -0.7281  0.7926  0.8185
   70SAPC  H14X 6090   6.670   4.525   3.053  0.4665  0.3111 -1.5198
   70SAPC  H14Y 6091   6.738   4.695   3.067  3.8470  1.3743 -0.9815
   70SAPC  C315 6092   6.791   4.582   3.236 -0.1358 -0.2552 -0.7795
   70SAPC  H15X 6093   6.871   4.659   3.233  0.2658 -0.5704  1.4897
   70SAPC  H15Y 6094   6.845   4.495   3.277 -1.0837  0.2631  1.6313
   70SAPC  C316 6095   6.678   4.626   3.333  0.4942  0.6024  0.6117
   70SAPC  H16X 6096   6.608   4.683   3.269  1.0801  1.3249  0.6014
   70SAPC  H16Y 6097   6.709   4.689   3.419  0.5351  1.4075  0.0168
   70SAPC  C317 6098   6.602   4.511   3.405 -0.2606 -0.0943  0.3765
   70SAPC  H17X 6099   6.629   4.512   3.513  2.1043 -0.6445 -0.2024
   70SAPC  H17Y 6100   6.637   4.415   3.362  1.6316  0.4222  0.7513
   70SAPC  C318 6101   6.441   4.519   3.395  0.0156 -0.0297  0.3364
   70SAPC  H18X 6102   6.416   4.618   3.439  1.2645  0.6363 -0.4217
   70SAPC  H18Y 6103   6.389   4.437   3.450 -2.7542  1.3872 -0.0741
   70SAPC  H18Z 6104   6.414   4.514   3.288 -1.8640 -3.5350  0.8999
   71SAPC     N 6105   5.440   1.042   2.035 -0.6147  0.0830 -0.0695
   71SAPC   C12 6106   5.409   0.895   2.073 -0.5697 -0.3210  0.8046
   71SAPC  H12A 6107   5.413   0.836   1.983 -0.0717  3.1599 -1.5185
   71SAPC  H12B 6108   5.304   0.883   2.098 -0.8490  0.3492 -0.0572
   71SAPC   C13 6109   5.376   1.067   1.901  0.4264  0.0088  0.9957
   71SAPC  H13A 6110   5.423   1.148   1.848  2.3445 -0.4619  1.8979
   71SAPC  H13B 6111   5.364   0.976   1.844  3.6607  0.7422 -1.0463
   71SAPC  H13C 6112   5.275   1.101   1.915  0.0730 -0.7285  0.2809
   71SAPC   C14 6113   5.384   1.133   2.135  0.0989  0.1230  0.1344
   71SAPC  H14A 6114   5.420   1.232   2.111  1.6285 -0.5688 -0.4727
   71SAPC  H14B 6115   5.276   1.137   2.130 -0.0047 -0.7105  1.5712
   71SAPC  H14C 6116   5.420   1.110   2.234 -0.5422  0.5817  0.4787
   71SAPC   C15 6117   5.586   1.063   2.030  0.2959 -0.6971  0.2023
   71SAPC  H15A 6118   5.605   1.141   1.957 -0.7062  0.3163  0.9975
   71SAPC  H15B 6119   5.632   1.092   2.123 -0.0854  0.1422  0.1324
   71SAPC  H15C 6120   5.644   0.982   1.990  0.3548 -0.8344  0.5648
   71SAPC   C11 6121   5.494   0.826   2.177  0.6551  0.0412 -0.6009
   71SAPC  H11A 6122   5.450   0.742   2.236  2.1747  0.5092  1.2140
   71SAPC  H11B 6123   5.512   0.904   2.254  1.9432 -2.5260  1.8078
   71SAPC     P 6124   5.637   0.686   2.003  0.3959 -0.2184  0.4225
   71SAPC   O13 6125   5.568   0.743   1.890  0.1573 -0.0731  0.0021
   71SAPC   O14 6126   5.774   0.634   1.983 -0.3451  0.4180  0.0083
   71SAPC   O12 6127   5.622   0.786   2.126  0.1764  0.3486 -0.9455
   71SAPC   O11 6128   5.544   0.568   2.065  0.1022  0.0413 -0.3247
   71SAPC    C1 6129   5.599   0.450   2.117 -0.0924 -0.0959 -0.8181
   71SAPC    HA 6130   5.549   0.357   2.079  1.5175 -1.7545  1.0145
   71SAPC    HB 6131   5.707   0.442   2.094 -0.2006  0.5414 -1.5496
   71SAPC    C2 6132   5.583   0.434   2.273 -0.3454  0.1683 -0.4727
   71SAPC    HS 6133   5.581   0.324   2.287  2.4181  0.2433  0.6837
   71SAPC   O21 6134   5.453   0.496   2.323  0.1160 -0.3048 -0.1527
   71SAPC   C21 6135   5.337   0.445   2.276  0.0483 -0.5426  0.2905
   71SAPC   O22 6136   5.328   0.339   2.215 -0.0430 -0.0914 -0.0936
   71SAPC   C22 6137   5.215   0.534   2.318  0.4488  0.6605 -0.0009
   71SAPC   H2R 6138   5.236   0.639   2.288  0.8612  0.0619 -1.8758
   71SAPC   H2S 6139   5.133   0.485   2.261 -0.7631  1.1695  1.2587
   71SAPC    C3 6140   5.701   0.498   2.343 -0.2298  0.2302  0.1632
   71SAPC    HX 6141   5.687   0.606   2.320 -0.2551  0.2130  0.0974
   71SAPC    HY 6142   5.801   0.468   2.305  1.0102  1.5981  2.2724
   71SAPC   O31 6143   5.701   0.474   2.486  0.6722 -0.0006 -0.2480
   71SAPC   C31 6144   5.798   0.521   2.550 -0.4534  0.1362  0.5742
   71SAPC   O32 6145   5.893   0.584   2.507  0.0713  0.0541  0.2184
   71SAPC   C32 6146   5.783   0.478   2.694 -0.5166 -0.4076 -1.0852
   71SAPC   H2X 6147   5.856   0.395   2.702  1.8771  1.7571  0.3508
   71SAPC   H2Y 6148   5.680   0.446   2.720  0.1346 -0.2656  1.9373
   71SAPC   C23 6149   5.187   0.529   2.475  0.0269 -0.5366 -0.1377
   71SAPC   H3R 6150   5.271   0.578   2.528  0.4406 -0.7147 -0.6161
   71SAPC   H3S 6151   5.169   0.420   2.490  1.1245 -0.6909  0.1037
   71SAPC   C24 6152   5.066   0.623   2.500 -0.1176 -0.0394  0.4396
   71SAPC   H4R 6153   4.973   0.598   2.444 -0.8447 -0.1820  1.6823
   71SAPC   H4S 6154   5.103   0.723   2.467 -1.5601  0.4002  0.1080
   71SAPC   C25 6155   5.027   0.613   2.647 -0.1549  0.3847 -0.2516
   71SAPC   H5R 6156   5.029   0.511   2.686  0.9606  0.0437 -1.1465
   71SAPC   C26 6157   4.991   0.711   2.737  0.3163 -0.1800 -0.2803
   71SAPC   H6R 6158   4.952   0.682   2.835 -3.3421 -0.3918 -1.7158
   71SAPC   C27 6159   4.985   0.858   2.715 -0.8352  0.2751  0.6821
   71SAPC   H7R 6160   4.885   0.892   2.751 -1.2718  1.1378 -1.2683
   71SAPC   H7S 6161   4.988   0.893   2.609  1.3891  0.9733  0.9557
   71SAPC   C28 6162   5.098   0.932   2.782 -0.0608  0.5436 -0.3133
   71SAPC   H8R 6163   5.195   0.899   2.742 -0.1337 -0.0416 -0.0149
   71SAPC   C29 6164   5.089   1.019   2.886 -0.2511  0.9192  0.0939
   71SAPC   H9R 6165   5.180   1.065   2.927  0.1655  0.5576 -0.4095
   71SAPC  C210 6166   4.969   1.077   2.953  0.2929  0.2380 -0.7305
   71SAPC  H10R 6167   4.961   1.023   3.050 -1.4341  0.4441 -0.7337
   71SAPC  H10S 6168   4.874   1.058   2.900 -0.8492  1.1504  0.9118
   71SAPC  C211 6169   4.975   1.229   2.981  0.4641 -0.0811 -0.7152
   71SAPC  H11R 6170   4.991   1.298   2.897  1.0647  1.1920  0.4440
   71SAPC  C212 6171   4.966   1.281   3.103 -0.0339  0.8069 -0.3700
   71SAPC  H12R 6172   4.985   1.388   3.120 -0.0229  0.5955  1.0053
   71SAPC  C213 6173   4.933   1.212   3.238 -0.0471 -0.1273  0.0266
   71SAPC  H13R 6174   4.961   1.105   3.228  1.3893  0.1981  0.3673
   71SAPC  H13S 6175   4.824   1.222   3.256  0.1483  1.7990  0.2332
   71SAPC  C214 6176   5.010   1.264   3.353  0.1918  0.4121  0.1793
   71SAPC  H14R 6177   5.118   1.258   3.335  0.3774  1.4148  0.8965
   71SAPC  C215 6178   4.975   1.335   3.461  0.0357 -0.1623  0.3313
   71SAPC  H15R 6179   5.055   1.357   3.534  1.5249 -1.5592 -0.8470
   71SAPC  C216 6180   4.834   1.379   3.485  0.1362 -0.1496 -0.1646
   71SAPC  H16R 6181   4.808   1.365   3.592 -0.5253  1.3589 -0.1216
   71SAPC  H16S 6182   4.762   1.308   3.438 -0.6420  0.5375 -0.0267
   71SAPC  C217 6183   4.796   1.529   3.443 -0.1299 -0.4006  0.6663
   71SAPC  H17R 6184   4.867   1.604   3.484 -0.3958 -1.0761  2.3960
   71SAPC  H17S 6185   4.695   1.547   3.484  0.1315  2.6484  0.1048
   71SAPC  C218 6186   4.788   1.549   3.291 -0.1920  0.0882 -0.4573
   71SAPC  H18R 6187   4.734   1.463   3.248 -0.4042 -0.0083  0.0016
   71SAPC  H18S 6188   4.893   1.537   3.258  0.6167  1.2554  1.5794
   71SAPC  C219 6189   4.744   1.691   3.235  0.3761 -0.2200 -0.6337
   71SAPC  H19R 6190   4.778   1.769   3.307  1.3520 -0.9656 -0.2856
   71SAPC  H19S 6191   4.634   1.689   3.251  0.6220  0.1740  1.2789
   71SAPC  C220 6192   4.776   1.726   3.094  0.0454  0.3361 -0.2840
   71SAPC  H20R 6193   4.701   1.795   3.050 -1.3686 -1.4480 -0.7667
   71SAPC  H20S 6194   4.783   1.635   3.031  2.7290  0.9889 -0.9880
   71SAPC  H20T 6195   4.884   1.752   3.097  0.4903 -1.5615  1.4348
   71SAPC   C33 6196   5.824   0.584   2.801 -0.4074 -0.4657  0.7326
   71SAPC   H3X 6197   5.762   0.674   2.787  2.4154  1.5112  0.4209
   71SAPC   H3Y 6198   5.932   0.609   2.793  0.8575 -5.3848  0.6718
   71SAPC   C34 6199   5.806   0.540   2.952  0.1059  0.8104 -0.4299
   71SAPC   H4X 6200   5.872   0.455   2.980 -0.5790  0.5765  0.4729
   71SAPC   H4Y 6201   5.702   0.504   2.966 -0.1504  0.5314 -2.7819
   71SAPC   C35 6202   5.834   0.653   3.056 -0.2361  0.8904 -0.4858
   71SAPC   H5X 6203   5.792   0.753   3.031  0.9327  1.9617  1.7536
   71SAPC   H5Y 6204   5.943   0.675   3.064 -0.1426  0.1486  0.2881
   71SAPC   C36 6205   5.787   0.615   3.194  0.3952 -0.0438  0.4057
   71SAPC   H6X 6206   5.685   0.573   3.186 -0.3418  1.6595  0.5776
   71SAPC   H6Y 6207   5.783   0.710   3.251 -1.3513  1.2355 -1.7908
   71SAPC   C37 6208   5.883   0.522   3.274  0.9631 -0.0626 -0.3332
   71SAPC   H7X 6209   5.975   0.580   3.297  0.6837 -0.1842  1.1448
   71SAPC   H7Y 6210   5.904   0.434   3.209 -0.2136 -1.4347  1.1088
   71SAPC   C38 6211   5.813   0.465   3.397 -0.1533 -0.3160 -0.6623
   71SAPC   H8X 6212   5.844   0.360   3.417  0.2498 -0.0653  0.0720
   71SAPC   H8Y 6213   5.706   0.446   3.374  0.1264  0.3122 -2.5321
   71SAPC   C39 6214   5.827   0.551   3.524 -0.2202 -0.2081 -0.0572
   71SAPC   H9X 6215   5.763   0.640   3.507  0.2431  0.3654  1.1205
   71SAPC   H9Y 6216   5.924   0.603   3.540 -0.2586  0.6980 -2.5689
   71SAPC  C310 6217   5.786   0.474   3.644 -0.1307 -0.4014 -0.8686
   71SAPC  H10X 6218   5.851   0.385   3.660 -0.9378 -1.0323 -1.0311
   71SAPC  H10Y 6219   5.685   0.435   3.617  1.2077 -3.4222 -1.8015
   71SAPC  C311 6220   5.773   0.550   3.778  0.1428  0.1551 -0.5513
   71SAPC  H11X 6221   5.746   0.472   3.852 -3.3642 -0.2654 -2.1674
   71SAPC  H11Y 6222   5.687   0.620   3.779  0.6943  0.8338  0.2437
   71SAPC  C312 6223   5.893   0.641   3.812 -0.5307 -0.8951 -0.0651
   71SAPC  H12X 6224   5.911   0.713   3.729  0.0210 -1.5928 -0.5671
   71SAPC  H12Y 6225   5.980   0.572   3.806  1.3055  1.3162  0.5831
   71SAPC  C313 6226   5.892   0.716   3.948  0.7495 -0.6555  0.0361
   71SAPC  H13X 6227   5.795   0.770   3.949  0.8409 -0.4716 -0.4880
   71SAPC  H13Y 6228   5.963   0.800   3.961 -0.0358 -0.3261  2.3117
   71SAPC  C314 6229   5.895   0.623   4.064  0.2089 -0.2702 -0.3628
   71SAPC  H14X 6230   5.957   0.535   4.036  2.3583  0.0952  2.9376
   71SAPC  H14Y 6231   5.795   0.584   4.091  1.1729 -1.0508  2.2051
   71SAPC  C315 6232   5.945   0.687   4.188  0.7766  0.9009 -0.0515
   71SAPC  H15X 6233   5.874   0.770   4.208  0.8620  1.3306 -1.4631
   71SAPC  H15Y 6234   6.038   0.745   4.167  1.7724 -0.6581 -0.0633
   71SAPC  C316 6235   5.947   0.600   4.309 -0.3988  0.1074  0.1728
   71SAPC  H16X 6236   5.856   0.541   4.328 -1.6792  1.8358 -0.4952
   71SAPC  H16Y 6237   5.966   0.659   4.401 -0.1434 -0.1334  0.2762
   71SAPC  C317 6238   6.059   0.496   4.303 -0.6943  0.1459  0.4970
   71SAPC  H17X 6239   6.150   0.549   4.268 -0.7086 -0.2444 -0.1310
   71SAPC  H17Y 6240   6.041   0.427   4.218 -0.4302  2.0392 -1.1260
   71SAPC  C318 6241   6.075   0.421   4.436  0.3217 -0.0534  0.3536
   71SAPC  H18X 6242   5.974   0.384   4.463 -0.2607  0.5196 -1.0272
   71SAPC  H18Y 6243   6.105   0.493   4.516 -0.5742  1.7910 -0.9436
   71SAPC  H18Z 6244   6.149   0.338   4.427 -0.8500 -1.1786  0.9984
   72SAPC     N 6245   5.367   7.140   2.045 -0.3919  0.3686 -0.1416
   72SAPC   C12 6246   5.394   7.192   2.185 -0.3045  0.4422 -0.3665
   72SAPC  H12A 6247   5.325   7.146   2.253 -0.8805  1.8241 -0.0079
   72SAPC  H12B 6248   5.357   7.293   2.190 -0.1947  0.4928 -0.5484
   72SAPC   C13 6249   5.462   7.181   1.937  0.3728  0.0733 -0.4277
   72SAPC  H13A 6250   5.561   7.152   1.969  0.5632  1.7281  0.5080
   72SAPC  H13B 6251   5.437   7.126   1.847  0.4260 -0.5663 -0.0576
   72SAPC  H13C 6252   5.472   7.286   1.916 -1.8949  0.1009 -1.5163
   72SAPC   C14 6253   5.372   6.988   2.056  0.1865 -0.5600  0.0285
   72SAPC  H14A 6254   5.368   6.937   1.961  0.5325 -0.1102 -0.2286
   72SAPC  H14B 6255   5.463   6.966   2.110  0.6944 -0.0790 -0.6143
   72SAPC  H14C 6256   5.287   6.950   2.111 -0.1259 -1.4470 -1.0411
   72SAPC   C15 6257   5.227   7.171   2.003 -0.1933  0.1496 -0.2300
   72SAPC  H15A 6258   5.149   7.145   2.073  1.6948 -2.5322  0.9732
   72SAPC  H15B 6259   5.219   7.276   1.981 -0.9402  0.2369  0.4521
   72SAPC  H15C 6260   5.208   7.111   1.915 -0.1786  1.3768 -1.0874
   72SAPC   C11 6261   5.537   7.198   2.241 -0.1936  0.6294 -0.6701
   72SAPC  H11A 6262   5.535   7.243   2.342  2.7589 -0.3886 -0.0927
   72SAPC  H11B 6263   5.591   7.262   2.168 -2.5131 -0.7021 -3.6582
   72SAPC     P 6264   5.722   7.011   2.203 -0.2363  0.1640 -0.2728
   72SAPC   O13 6265   5.716   6.873   2.150  0.4089  0.5677  0.1284
   72SAPC   O14 6266   5.779   7.113   2.107  0.4867  0.0046 -0.6143
   72SAPC   O12 6267   5.587   7.067   2.256  0.0488  0.0108  0.4800
   72SAPC   O11 6268   5.793   7.006   2.338  0.7694 -0.2568  0.1282
   72SAPC    C1 6269   5.794   7.110   2.431  0.3364 -0.1938  0.0438
   72SAPC    HA 6270   5.782   7.208   2.380  0.8558 -0.6084 -0.8666
   72SAPC    HB 6271   5.716   7.107   2.511 -1.4634 -1.5949 -1.7143
   72SAPC    C2 6272   5.936   7.134   2.494  0.2761  0.0807  0.1774
   72SAPC    HS 6273   6.008   7.148   2.411 -1.0070 -2.7596 -1.5110
   72SAPC   O21 6274   5.970   7.021   2.572 -0.0540  0.4867  0.3243
   72SAPC   C21 6275   6.092   7.013   2.617 -0.4754 -0.5653  1.0100
   72SAPC   O22 6276   6.180   7.090   2.582  0.5046 -0.2361  0.0103
   72SAPC   C22 6277   6.103   6.899   2.714 -0.6115 -0.8499  0.3304
   72SAPC   H2R 6278   6.001   6.883   2.756 -0.5473 -0.3767  0.6648
   72SAPC   H2S 6279   6.134   6.815   2.649  0.7710 -0.8719  1.0131
   72SAPC    C3 6280   5.949   7.269   2.578  0.6053 -0.1947 -0.1860
   72SAPC    HX 6281   5.926   7.355   2.511 -0.6058 -1.8078 -1.9048
   72SAPC    HY 6282   6.050   7.293   2.616  0.3869 -1.1261  1.0102
   72SAPC   O31 6283   5.842   7.276   2.671 -0.2724 -0.4020  0.5594
   72SAPC   C31 6284   5.881   7.261   2.799  0.2206  0.3200  0.3083
   72SAPC   O32 6285   5.997   7.241   2.837  0.2871  0.0852 -0.1011
   72SAPC   C32 6286   5.768   7.261   2.895 -0.4167 -0.8904 -0.0402
   72SAPC   H2X 6287   5.680   7.210   2.851 -2.7132  1.6564  1.4685
   72SAPC   H2Y 6288   5.749   7.370   2.909  3.9925 -0.2050  1.3661
   72SAPC   C23 6289   6.193   6.938   2.828 -0.2404 -0.5289 -0.3998
   72SAPC   H3R 6290   6.168   7.040   2.864 -2.2719 -0.4412 -1.9167
   72SAPC   H3S 6291   6.302   6.937   2.805  0.2014  1.4830  1.4802
   72SAPC   C24 6292   6.161   6.847   2.951 -0.0743 -0.4465  0.3616
   72SAPC   H4R 6293   6.150   6.744   2.912  0.2070 -0.3158 -0.0741
   72SAPC   H4S 6294   6.064   6.884   2.990 -0.3374  0.1740 -0.8564
   72SAPC   C25 6295   6.274   6.866   3.045  0.1637  0.5584 -0.2410
   72SAPC   H5R 6296   6.374   6.848   3.003  0.0690  0.9686 -0.6402
   72SAPC   C26 6297   6.273   6.936   3.160  0.0106 -0.0764  0.1460
   72SAPC   H6R 6298   6.365   6.924   3.218  0.2163  1.5761  0.1811
   72SAPC   C27 6299   6.149   6.994   3.224 -0.0667  0.9312  0.1850
   72SAPC   H7R 6300   6.161   6.979   3.333  2.4747  0.3284 -0.1407
   72SAPC   H7S 6301   6.069   6.922   3.198  1.9402 -2.2791  2.5284
   72SAPC   C28 6302   6.105   7.130   3.185  0.2423 -0.9889  0.2136
   72SAPC   H8R 6303   6.113   7.165   3.080 -1.5487  1.9744  0.9891
   72SAPC   C29 6304   6.054   7.222   3.268 -0.2122 -0.6428 -0.6245
   72SAPC   H9R 6305   6.030   7.321   3.227  0.6430 -0.0970  0.1592
   72SAPC  C210 6306   6.035   7.206   3.418  0.1752  0.4944 -0.0439
   72SAPC  H10R 6307   6.048   7.309   3.458 -0.4039  0.2147  0.8879
   72SAPC  H10S 6308   6.117   7.144   3.461 -0.7404 -0.7588 -0.0772
   72SAPC  C211 6309   5.898   7.153   3.454 -0.6814  0.5842  0.3628
   72SAPC  H11R 6310   5.854   7.077   3.387 -2.2683 -0.2104  2.2611
   72SAPC  C212 6311   5.845   7.174   3.574 -0.4391 -0.2688 -0.5034
   72SAPC  H12R 6312   5.758   7.118   3.612 -0.4559  0.6920  0.9160
   72SAPC  C213 6313   5.907   7.247   3.689 -0.0956 -0.2219 -0.1046
   72SAPC  H13R 6314   5.900   7.355   3.666  0.3957  0.4211  2.5733
   72SAPC  H13S 6315   6.016   7.225   3.678 -0.2727 -0.9188 -0.5317
   72SAPC  C214 6316   5.847   7.216   3.826 -0.5504 -0.0775  0.3285
   72SAPC  H14R 6317   5.782   7.295   3.867  1.1525  2.2279 -1.3207
   72SAPC  C215 6318   5.869   7.108   3.905 -0.4177 -0.1686  0.0586
   72SAPC  H15R 6319   5.833   7.093   4.008  0.7066  0.4864  0.5562
   72SAPC  C216 6320   5.955   6.989   3.858  0.2168 -0.1416  0.4101
   72SAPC  H16R 6321   5.959   6.988   3.747 -1.7259  1.0567  0.3086
   72SAPC  H16S 6322   5.902   6.897   3.890 -1.0102  0.7457  0.9733
   72SAPC  C217 6323   6.083   6.985   3.927 -0.0785 -1.2931  0.1490
   72SAPC  H17R 6324   6.159   6.909   3.901  0.6505 -0.7339  0.6286
   72SAPC  H17S 6325   6.063   6.980   4.036  1.5763 -0.2966  0.5036
   72SAPC  C218 6326   6.166   7.120   3.906  0.0207 -0.0405  0.1012
   72SAPC  H18R 6327   6.117   7.212   3.943 -1.1705 -0.0887 -1.3015
   72SAPC  H18S 6328   6.185   7.128   3.796 -1.3265  1.4958 -0.0382
   72SAPC  C219 6329   6.305   7.108   3.955  0.1395 -0.3342  0.6288
   72SAPC  H19R 6330   6.372   7.168   3.890 -0.0817 -0.1771  0.5462
   72SAPC  H19S 6331   6.345   7.005   3.940  0.8691  0.3234 -2.1783
   72SAPC  C220 6332   6.331   7.149   4.101 -0.2405 -0.5098 -0.5900
   72SAPC  H20R 6333   6.293   7.251   4.127 -1.4924 -0.3249 -3.0202
   72SAPC  H20S 6334   6.439   7.141   4.126 -0.5200  1.5820  1.4493
   72SAPC  H20T 6335   6.282   7.077   4.170 -0.0196 -0.7811 -0.7182
   72SAPC   C33 6336   5.802   7.193   3.028  0.3526  0.2326 -0.0872
   72SAPC   H3X 6337   5.888   7.249   3.068 -1.2507  2.5771  0.1928
   72SAPC   H3Y 6338   5.836   7.089   3.007 -1.0907 -0.0282 -1.2816
   72SAPC   C34 6339   5.676   7.195   3.106 -0.3202  0.7009 -0.0958
   72SAPC   H4X 6340   5.695   7.132   3.196 -2.1589 -1.0664 -0.9262
   72SAPC   H4Y 6341   5.598   7.135   3.055 -2.5315  1.0027  2.7895
   72SAPC   C35 6342   5.608   7.330   3.148 -0.8391  0.1105 -0.3729
   72SAPC   H5X 6343   5.563   7.366   3.053 -1.2167  0.8205  0.0645
   72SAPC   H5Y 6344   5.683   7.409   3.172 -0.6323  0.4909 -2.2109
   72SAPC   C36 6345   5.496   7.313   3.250  0.0783  0.8527  0.8043
   72SAPC   H6X 6346   5.466   7.207   3.254 -0.7837  1.0229 -0.5838
   72SAPC   H6Y 6347   5.410   7.376   3.219 -1.9393 -1.7882  0.9091
   72SAPC   C37 6348   5.539   7.363   3.387 -0.0304  0.1746 -0.0169
   72SAPC   H7X 6349   5.536   7.474   3.392 -2.4676  0.1896 -0.8764
   72SAPC   H7Y 6350   5.640   7.326   3.413  1.0073  1.1518 -2.5161
   72SAPC   C38 6351   5.438   7.311   3.491  0.2918  0.5831 -0.1433
   72SAPC   H8X 6352   5.452   7.201   3.485  1.6080  0.7033  0.5292
   72SAPC   H8Y 6353   5.335   7.341   3.463  0.2761  0.3603 -0.3316
   72SAPC   C39 6354   5.471   7.354   3.637  0.3925  0.2729  0.6487
   72SAPC   H9X 6355   5.474   7.465   3.637  0.3567  0.2807 -0.7136
   72SAPC   H9Y 6356   5.574   7.317   3.659  0.5228  0.7603  0.8726
   72SAPC  C310 6357   5.374   7.292   3.745 -0.6927 -0.0166 -0.5332
   72SAPC  H10X 6358   5.385   7.181   3.742 -0.2000  0.0162  0.0043
   72SAPC  H10Y 6359   5.275   7.319   3.703 -1.1570  1.3430  1.3712
   72SAPC  C311 6360   5.402   7.348   3.887  0.0528  0.8780 -0.0753
   72SAPC  H11X 6361   5.386   7.458   3.893  2.4072  1.2416 -0.1517
   72SAPC  H11Y 6362   5.509   7.322   3.901 -0.1077 -0.5275 -1.3297
   72SAPC  C312 6363   5.329   7.284   3.998 -0.2479  0.0874 -0.2754
   72SAPC  H12X 6364   5.331   7.173   3.990 -0.3920  0.1342 -0.9833
   72SAPC  H12Y 6365   5.221   7.300   3.978 -0.4832 -1.5213 -0.3078
   72SAPC  C313 6366   5.375   7.327   4.133 -0.3124  0.4063 -0.4308
   72SAPC  H13X 6367   5.360   7.436   4.149  1.3839  0.6073 -0.1006
   72SAPC  H13Y 6368   5.485   7.313   4.141 -0.5997 -1.6072  0.3213
   72SAPC  C314 6369   5.295   7.246   4.240  0.4535 -0.6981  0.3551
   72SAPC  H14X 6370   5.305   7.138   4.214 -0.5133 -0.4707 -1.0212
   72SAPC  H14Y 6371   5.191   7.285   4.243 -0.3305 -2.7264  0.9571
   72SAPC  C315 6372   5.337   7.269   4.389 -0.3258 -0.5327 -0.1412
   72SAPC  H15X 6373   5.324   7.378   4.410 -3.0541 -1.0522  0.9612
   72SAPC  H15Y 6374   5.447   7.257   4.403 -0.0972 -0.1160 -1.5320
   72SAPC  C316 6375   5.257   7.186   4.486 -0.2761 -0.1880 -0.7044
   72SAPC  H16X 6376   5.149   7.204   4.470 -0.5050  0.0252  0.9921
   72SAPC  H16Y 6377   5.265   7.219   4.592 -0.4211 -0.2760 -0.6652
   72SAPC  C317 6378   5.257   7.037   4.472 -0.2261  1.0837 -0.4086
   72SAPC  H17X 6379   5.359   6.994   4.482 -1.4392 -2.1096 -1.3794
   72SAPC  H17Y 6380   5.227   7.001   4.371 -1.7350  2.0701 -0.3328
   72SAPC  C318 6381   5.156   6.969   4.564 -0.2218 -0.3512  0.2340
   72SAPC  H18X 6382   5.186   6.988   4.669  3.1729 -0.0180 -0.7500
   72SAPC  H18Y 6383   5.170   6.861   4.542  0.5130 -0.6899  2.2369
   72SAPC  H18Z 6384   5.047   6.992   4.558 -0.0945  0.5878  1.2996
   73SLPC     N 6385   5.059   4.026   5.857 -0.5131  0.4106 -0.5124
   73SLPC   C13 6386   4.918   4.078   5.884  0.3391 -0.1917 -1.0189
   73SLPC  H13A 6387   4.872   4.108   5.791  0.8055  2.3026 -0.4850
   73SLPC  H13B 6388   4.850   4.001   5.917 -2.3461  2.1474 -0.9464
   73SLPC  H13C 6389   4.920   4.154   5.961  1.7434 -3.0702  1.9195
   73SLPC   C14 6390   5.104   3.962   5.981 -0.4429  0.4324  0.3394
   73SLPC  H14A 6391   5.043   3.878   6.011 -0.2841 -0.2938 -1.3124
   73SLPC  H14B 6392   5.204   3.921   5.974 -0.8406 -0.8199  1.6581
   73SLPC  H14C 6393   5.104   4.031   6.064  1.9501 -0.0195  0.7538
   73SLPC   C15 6394   5.146   4.140   5.813  0.0720 -0.3540  0.2741
   73SLPC  H15A 6395   5.244   4.110   5.780  0.6894  0.5994  1.1889
   73SLPC  H15B 6396   5.110   4.192   5.726 -0.2835 -0.4274  0.3766
   73SLPC  H15C 6397   5.159   4.216   5.889  1.3479 -0.9577  0.6773
   73SLPC   C12 6398   5.055   3.917   5.750 -0.3919  1.3288 -0.2803
   73SLPC  H12A 6399   4.970   3.859   5.783  0.3757  0.3482  0.0063
   73SLPC  H12B 6400   5.150   3.866   5.749 -1.1286 -0.0742 -0.7470
   73SLPC   C11 6401   5.022   3.964   5.604  0.6178 -0.8049 -0.8565
   73SLPC  H11A 6402   5.031   3.872   5.541 -0.0721 -3.1936  2.4237
   73SLPC  H11B 6403   5.101   4.037   5.576  0.0145 -0.0149 -0.5142
   73SLPC     P 6404   4.763   3.952   5.555  0.2879 -0.2841 -0.1597
   73SLPC   O13 6405   4.783   3.813   5.600 -0.0955 -0.3974  0.7525
   73SLPC   O14 6406   4.645   4.026   5.604  0.3035  0.3298  0.1010
   73SLPC   O12 6407   4.896   4.036   5.585 -0.0385 -0.0931 -0.1032
   73SLPC   O11 6408   4.751   3.950   5.400 -0.3946  0.1202 -0.0743
   73SLPC    C1 6409   4.763   4.062   5.316  0.4467 -0.1387  0.4575
   73SLPC    HA 6410   4.698   4.030   5.232  1.3888 -1.0430  0.0656
   73SLPC    HB 6411   4.717   4.153   5.359  2.1447  0.6429  0.6298
   73SLPC    C2 6412   4.905   4.090   5.263  0.1472  0.5847  0.2225
   73SLPC    HS 6413   4.971   4.126   5.345 -0.2851 -0.3847  1.0143
   73SLPC   O21 6414   4.900   4.203   5.170  0.0600 -0.6754 -0.6479
   73SLPC   C21 6415   4.881   4.323   5.212  0.2987 -0.1452  0.7140
   73SLPC   O22 6416   4.890   4.358   5.327 -0.0065  0.2767  0.3294
   73SLPC   C22 6417   4.837   4.415   5.091 -0.7731 -0.7767  0.3654
   73SLPC   H2R 6418   4.727   4.417   5.100 -0.8018 -1.3946  0.1983
   73SLPC   H2S 6419   4.864   4.522   5.104  1.6121 -1.0472 -1.7256
   73SLPC    C3 6420   4.969   3.966   5.199 -0.2856 -0.0703  0.2026
   73SLPC    HX 6421   4.967   3.885   5.274 -0.7040 -1.9509 -1.7974
   73SLPC    HY 6422   5.074   3.985   5.166  0.4893 -3.2306  0.7138
   73SLPC   O31 6423   4.888   3.934   5.086 -0.0766 -0.0897  0.5899
   73SLPC   C31 6424   4.944   3.913   4.967 -0.3268 -0.8498 -0.7023
   73SLPC   O32 6425   5.062   3.892   4.949  0.4745 -0.1820  0.0268
   73SLPC   C32 6426   4.842   3.890   4.863  0.0405  0.0675 -0.1136
   73SLPC   H2X 6427   4.825   3.780   4.864 -0.0980  0.0889 -0.0832
   73SLPC   H2Y 6428   4.887   3.921   4.766 -1.4487  3.8687  0.3298
   73SLPC   C23 6429   4.874   4.366   4.951  0.3908 -0.4173  0.2075
   73SLPC   H3R 6430   4.811   4.422   4.878  0.8162  0.7671  0.7284
   73SLPC   H3S 6431   4.846   4.259   4.943 -1.8645  0.3170 -2.6244
   73SLPC   C24 6432   5.021   4.389   4.926  0.7361 -0.6303 -0.0186
   73SLPC   H4R 6433   5.079   4.317   4.986 -0.6208 -2.5375 -0.9308
   73SLPC   H4S 6434   5.039   4.493   4.960  1.1438 -0.2857 -1.2614
   73SLPC   C25 6435   5.062   4.384   4.770 -0.3570  0.0321 -0.4928
   73SLPC   H5R 6436   5.155   4.439   4.744 -0.4370  0.0865 -0.6616
   73SLPC   H5S 6437   4.986   4.445   4.716  0.3689  0.2356 -1.2936
   73SLPC   C26 6438   5.070   4.238   4.714  0.7317 -0.9343  0.3441
   73SLPC   H6R 6439   4.987   4.174   4.750 -0.4013  1.8594  2.7833
   73SLPC   H6S 6440   5.160   4.194   4.762  1.5282  1.8420  1.4553
   73SLPC   C27 6441   5.086   4.236   4.563  0.5252 -0.1442  0.7386
   73SLPC   H7R 6442   5.177   4.288   4.527 -0.6886  1.5907  0.1336
   73SLPC   H7S 6443   5.011   4.308   4.523  0.1887 -0.8952  0.0018
   73SLPC   C28 6444   5.073   4.101   4.490  0.6399  0.4349 -0.0856
   73SLPC   H8R 6445   5.082   4.129   4.383 -2.8353  1.6002 -0.1191
   73SLPC   H8S 6446   4.971   4.064   4.511  0.0470  0.7286 -2.3194
   73SLPC   C29 6447   5.191   4.017   4.538 -0.5473  0.2667  0.9272
   73SLPC   H9R 6448   5.289   4.065   4.548  0.3330 -1.4656  0.9425
   73SLPC  C210 6449   5.184   3.885   4.566  0.4032 -0.3143  0.0549
   73SLPC  H10R 6450   5.280   3.836   4.588  0.8201  0.3850 -0.1861
   73SLPC  C211 6451   5.063   3.794   4.555 -0.2830 -0.4317  0.2713
   73SLPC  H11R 6452   5.035   3.768   4.451  0.0060 -0.2173  0.1411
   73SLPC  H11S 6453   4.971   3.849   4.584 -0.9163  0.4702 -3.2303
   73SLPC  C212 6454   5.066   3.669   4.647  0.0301  0.1991 -0.0687
   73SLPC  H12R 6455   5.040   3.690   4.751 -1.7468  1.0815 -0.6681
   73SLPC  C213 6456   5.114   3.551   4.603 -0.2009  0.2755  0.1997
   73SLPC  H13R 6457   5.114   3.462   4.669  0.4752 -1.2482 -1.8043
   73SLPC  C214 6458   5.168   3.517   4.465  0.1486 -0.6681  0.0812
   73SLPC  H14R 6459   5.269   3.471   4.470 -1.4142 -4.1524  1.4428
   73SLPC  H14S 6460   5.178   3.619   4.422 -3.2886 -0.5796 -0.5996
   73SLPC  C215 6461   5.079   3.422   4.382  0.0351 -0.0449 -0.1658
   73SLPC  H15R 6462   5.126   3.426   4.282  1.9077 -0.5120  0.6608
   73SLPC  H15S 6463   4.978   3.467   4.375 -0.3674 -0.7237  0.9945
   73SLPC  C216 6464   5.057   3.277   4.434 -0.0598 -0.2687  0.0569
   73SLPC  H16R 6465   4.990   3.282   4.522  3.5964 -1.9573  3.1233
   73SLPC  H16S 6466   5.146   3.223   4.475  1.2154  0.9848 -1.0066
   73SLPC  C217 6467   4.985   3.192   4.328 -0.8574 -0.0585 -0.0351
   73SLPC  H17R 6468   5.050   3.202   4.238  0.8705  2.3427  1.4127
   73SLPC  H17S 6469   4.889   3.241   4.303 -0.5778  0.8128  0.5679
   73SLPC  C218 6470   4.966   3.046   4.367  0.2679 -0.1945  0.1785
   73SLPC  H18R 6471   4.891   2.995   4.303 -0.2368 -0.1157  0.7085
   73SLPC  H18S 6472   4.934   3.042   4.473  1.6086  0.7063  0.6249
   73SLPC  H18T 6473   5.057   2.984   4.359  1.2188  1.1837  0.1146
   73SLPC   C33 6474   4.714   3.965   4.894  0.4052  0.3200  0.9265
   73SLPC   H3X 6475   4.752   4.055   4.947  0.8902 -0.5841  2.1470
   73SLPC   H3Y 6476   4.655   3.910   4.971 -1.4331 -1.2866 -1.5324
   73SLPC   C34 6477   4.624   3.991   4.777 -0.6387 -1.0901 -0.4059
   73SLPC   H4X 6478   4.573   3.897   4.747 -1.3917 -0.7356 -0.2439
   73SLPC   H4Y 6479   4.680   4.015   4.684  0.5999 -0.2444  0.5418
   73SLPC   C35 6480   4.514   4.098   4.800 -0.3565 -0.0305 -1.0910
   73SLPC   H5X 6481   4.556   4.201   4.802 -0.9342  0.2075  2.8296
   73SLPC   H5Y 6482   4.472   4.090   4.903 -0.4160  0.7975 -1.0509
   73SLPC   C36 6483   4.394   4.091   4.698  0.5155  0.5003 -0.5399
   73SLPC   H6X 6484   4.312   4.029   4.741 -1.3721  0.6981 -3.6904
   73SLPC   H6Y 6485   4.431   4.033   4.610  1.2930 -0.3976  0.3629
   73SLPC   C37 6486   4.339   4.228   4.650  0.9269 -0.2449 -0.5791
   73SLPC   H7X 6487   4.298   4.279   4.740 -1.7125 -2.1159 -0.6442
   73SLPC   H7Y 6488   4.254   4.213   4.580 -2.2998 -0.8088  3.2958
   73SLPC   C38 6489   4.445   4.320   4.587 -0.9268 -0.0470  0.1533
   73SLPC   H8X 6490   4.495   4.274   4.498  1.3644  0.6086  1.0783
   73SLPC   H8Y 6491   4.538   4.333   4.647 -1.5185  1.1062  0.8344
   73SLPC   C39 6492   4.384   4.456   4.572  0.4546 -0.3631 -0.4261
   73SLPC   H9X 6493   4.473   4.522   4.566  0.9579 -0.8525  1.5147
   73SLPC   H9Y 6494   4.322   4.485   4.660  1.4597  0.0274  0.1596
   73SLPC  C310 6495   4.300   4.473   4.432 -1.0963 -0.5816 -0.4613
   73SLPC  H10X 6496   4.251   4.572   4.442  1.5593  0.5920  1.2413
   73SLPC  H10Y 6497   4.218   4.399   4.424 -3.1910  1.5165  1.0453
   73SLPC  C311 6498   4.394   4.487   4.310  0.1420  0.3451 -0.9391
   73SLPC  H11X 6499   4.479   4.417   4.301  3.4873  4.1107 -0.0451
   73SLPC  H11Y 6500   4.443   4.584   4.334 -0.5821  0.5692 -0.3455
   73SLPC  C312 6501   4.325   4.482   4.176 -0.4070 -0.7290  0.4282
   73SLPC  H12X 6502   4.240   4.553   4.178  1.5210  1.7694 -2.1208
   73SLPC  H12Y 6503   4.278   4.382   4.165 -3.3300  0.8905 -2.7173
   73SLPC  C313 6504   4.404   4.520   4.054  0.1271  0.4798 -0.2982
   73SLPC  H13X 6505   4.340   4.522   3.963 -1.6347  1.2888  0.9255
   73SLPC  H13Y 6506   4.472   4.434   4.039  1.4891  1.4370  0.3031
   73SLPC  C314 6507   4.487   4.652   4.060 -0.3079 -0.0370 -0.1867
   73SLPC  H14X 6508   4.560   4.644   4.143 -2.0872 -0.2682  1.3854
   73SLPC  H14Y 6509   4.420   4.731   4.101 -0.9193 -1.8472  2.4059
   73SLPC  C315 6510   4.550   4.695   3.933  0.1533  0.0469  0.6387
   73SLPC  H15X 6511   4.611   4.785   3.958  1.8091 -1.9819  4.3212
   73SLPC  H15Y 6512   4.475   4.702   3.851  0.0654 -1.2443  0.6066
   73SLPC  C316 6513   4.658   4.596   3.886 -0.2081  0.0010 -0.2288
   73SLPC  H16X 6514   4.613   4.496   3.906 -0.5866  0.2775  0.2959
   73SLPC  H16Y 6515   4.753   4.602   3.943 -0.1817 -2.2435  0.0110
   73SLPC  C317 6516   4.684   4.608   3.733  0.2728  0.2382  0.3714
   73SLPC  H17X 6517   4.711   4.714   3.716 -0.8190  0.4287 -0.1921
   73SLPC  H17Y 6518   4.588   4.598   3.678  0.8934 -0.6708 -0.5702
   73SLPC  C318 6519   4.795   4.522   3.672 -0.0748  0.0601  0.0711
   73SLPC  H18X 6520   4.894   4.543   3.717  0.7197  1.1870 -2.1318
   73SLPC  H18Y 6521   4.802   4.549   3.564 -0.7064  0.9312  0.2486
   73SLPC  H18Z 6522   4.769   4.413   3.674 -0.2618  0.1341  2.2694
   74SLPC     N 6523   2.610   4.021   6.021 -0.1857 -0.0923 -0.3771
   74SLPC   C13 6524   2.652   4.081   6.148 -0.3397 -0.8804  0.5662
   74SLPC  H13A 6525   2.710   4.171   6.137  0.6939 -1.7437 -1.3259
   74SLPC  H13B 6526   2.569   4.103   6.214 -0.3355  1.4530 -0.1675
   74SLPC  H13C 6527   2.715   4.013   6.204 -0.6960 -2.1632 -0.5527
   74SLPC   C14 6528   2.735   3.992   5.941  0.5155 -0.0405  0.3774
   74SLPC  H14A 6529   2.798   4.077   5.919 -1.2031  1.3011  0.5370
   74SLPC  H14B 6530   2.800   3.915   5.979 -0.0389 -0.5839  0.2433
   74SLPC  H14C 6531   2.694   3.963   5.845  1.2090 -1.3926  0.4778
   74SLPC   C15 6532   2.529   4.114   5.943  0.2896 -0.5091 -0.1093
   74SLPC  H15A 6533   2.458   4.160   6.011  0.1764 -0.6593 -0.1255
   74SLPC  H15B 6534   2.582   4.186   5.883  1.5801 -0.7524  0.7075
   74SLPC  H15C 6535   2.467   4.061   5.873 -1.4825  0.4791  0.6759
   74SLPC   C12 6536   2.535   3.888   6.042 -0.4389 -0.0986 -0.3116
   74SLPC  H12A 6537   2.433   3.918   6.064  0.2526  2.0221  0.0952
   74SLPC  H12B 6538   2.565   3.827   6.125 -0.2718  0.4245  0.0122
   74SLPC   C11 6539   2.530   3.792   5.923 -0.4397 -0.0992  0.2523
   74SLPC  H11A 6540   2.460   3.710   5.947  0.4879 -0.6149  1.2584
   74SLPC  H11B 6541   2.631   3.748   5.935  0.2347  1.6215  1.0886
   74SLPC     P 6542   2.343   3.835   5.746  0.0062 -0.3666  0.2214
   74SLPC   O13 6543   2.298   3.691   5.765  0.7908 -0.7785 -0.0282
   74SLPC   O14 6544   2.261   3.938   5.815 -0.0128  0.1384 -0.2312
   74SLPC   O12 6545   2.494   3.851   5.798 -0.1451  0.5265  0.4744
   74SLPC   O11 6546   2.355   3.871   5.597 -0.5011 -0.0125 -0.0648
   74SLPC    C1 6547   2.472   3.900   5.530 -0.1571 -0.3622  0.1114
   74SLPC    HA 6548   2.546   3.817   5.532  0.1716 -0.2362 -3.2864
   74SLPC    HB 6549   2.450   3.909   5.421  1.8293 -1.9590 -0.4636
   74SLPC    C2 6550   2.525   4.048   5.560  0.6983 -0.2052  0.2680
   74SLPC    HS 6551   2.523   4.045   5.671  0.9770  0.0350  0.2829
   74SLPC   O21 6552   2.433   4.143   5.513 -0.2187 -0.5766 -0.1858
   74SLPC   C21 6553   2.428   4.247   5.583  0.1318 -0.1037  0.6915
   74SLPC   O22 6554   2.495   4.275   5.683  0.1791  0.2290 -0.2424
   74SLPC   C22 6555   2.323   4.350   5.531 -0.4599 -0.1071 -0.0372
   74SLPC   H2R 6556   2.237   4.297   5.485 -1.7776  0.1228  2.1242
   74SLPC   H2S 6557   2.273   4.400   5.617 -0.9846  0.5604 -0.7174
   74SLPC    C3 6558   2.662   4.071   5.509 -0.0208  0.5546 -0.5005
   74SLPC    HX 6559   2.734   4.009   5.567  0.6215 -0.3961 -2.2702
   74SLPC    HY 6560   2.682   4.178   5.531 -2.0849  0.6909  0.8527
   74SLPC   O31 6561   2.670   4.027   5.369  0.3504  0.6125 -0.2539
   74SLPC   C31 6562   2.715   4.124   5.290  0.6563 -0.3596  0.5493
   74SLPC   O32 6563   2.775   4.225   5.326 -0.1392 -0.5674 -0.0200
   74SLPC   C32 6564   2.691   4.096   5.136 -0.8354 -0.0537  0.3362
   74SLPC   H2X 6565   2.582   4.075   5.136 -0.7954 -0.3176 -0.6710
   74SLPC   H2Y 6566   2.756   4.011   5.106  0.5891  0.9010  0.6428
   74SLPC   C23 6567   2.390   4.448   5.435  0.2148 -0.4419  0.2633
   74SLPC   H3R 6568   2.479   4.500   5.475  0.4587 -0.5802 -0.0981
   74SLPC   H3S 6569   2.310   4.526   5.433 -0.5902 -1.2760 -0.6028
   74SLPC   C24 6570   2.425   4.410   5.286 -0.4191  0.4019 -0.3846
   74SLPC   H4R 6571   2.369   4.318   5.258  2.0747 -1.0838 -0.6433
   74SLPC   H4S 6572   2.532   4.381   5.283 -0.3921  0.5855 -1.1091
   74SLPC   C25 6573   2.399   4.524   5.183 -0.5105  0.1001 -0.7986
   74SLPC   H5R 6574   2.456   4.613   5.215  1.5043 -2.4141  3.0831
   74SLPC   H5S 6575   2.291   4.549   5.176 -0.5665 -0.3488 -1.5707
   74SLPC   C26 6576   2.439   4.475   5.041 -0.5089 -0.2855  0.4219
   74SLPC   H6R 6577   2.422   4.367   5.022 -0.0380 -0.5358  1.3909
   74SLPC   H6S 6578   2.550   4.483   5.046 -0.6939  2.2371  1.2568
   74SLPC   C27 6579   2.405   4.571   4.923  0.2062 -0.4785 -0.3468
   74SLPC   H7R 6580   2.422   4.676   4.952 -0.2790  0.0017 -1.7635
   74SLPC   H7S 6581   2.301   4.557   4.887 -0.2216  0.8302  0.3633
   74SLPC   C28 6582   2.480   4.526   4.788  0.3755  0.2652 -0.6566
   74SLPC   H8R 6583   2.411   4.452   4.742 -1.0773  0.7491  0.7117
   74SLPC   H8S 6584   2.582   4.486   4.803 -0.2709 -0.1282  3.0932
   74SLPC   C29 6585   2.487   4.644   4.693 -0.4574 -0.2885  0.5396
   74SLPC   H9R 6586   2.543   4.732   4.729  1.9539 -0.8598 -1.6743
   74SLPC  C210 6587   2.453   4.644   4.558  0.0937  0.1630 -0.1807
   74SLPC  H10R 6588   2.456   4.739   4.504 -3.3890  1.4460  1.6840
   74SLPC  C211 6589   2.394   4.533   4.477  0.5827  0.3232  0.8619
   74SLPC  H11R 6590   2.336   4.458   4.535 -0.2407 -0.0880 -0.4479
   74SLPC  H11S 6591   2.477   4.473   4.432 -1.9260 -0.4672 -2.9707
   74SLPC  C212 6592   2.298   4.568   4.368  0.3189 -0.2433 -0.0139
   74SLPC  H12R 6593   2.194   4.569   4.403  0.8488  1.3474  1.5966
   74SLPC  C213 6594   2.333   4.601   4.243 -0.7614  0.2516  0.5622
   74SLPC  H13R 6595   2.253   4.647   4.182  0.4957 -0.0838 -1.3451
   74SLPC  C214 6596   2.472   4.615   4.174  0.1694  0.1609 -0.1596
   74SLPC  H14R 6597   2.480   4.577   4.070  0.8644  1.5428 -0.6275
   74SLPC  H14S 6598   2.557   4.575   4.234 -0.6489  0.9047  1.5100
   74SLPC  C215 6599   2.505   4.766   4.169  0.1880 -0.6052  0.1644
   74SLPC  H15R 6600   2.534   4.798   4.271 -2.0109  1.6134  0.1462
   74SLPC  H15S 6601   2.423   4.838   4.146 -0.9877 -0.7309  3.6771
   74SLPC  C216 6602   2.636   4.806   4.084  1.3253 -0.2997 -0.3214
   74SLPC  H16R 6603   2.651   4.916   4.089  1.8492 -0.4061  0.6671
   74SLPC  H16S 6604   2.630   4.782   3.976 -2.2390 -0.5468 -0.1042
   74SLPC  C217 6605   2.770   4.756   4.145 -0.1108  0.9505 -0.1743
   74SLPC  H17R 6606   2.771   4.645   4.153  0.0500  0.6549 -3.3703
   74SLPC  H17S 6607   2.796   4.802   4.242  3.1381  0.0703 -0.5637
   74SLPC  C218 6608   2.888   4.783   4.046 -0.0110  0.3384 -0.1830
   74SLPC  H18R 6609   2.876   4.712   3.962  1.5480 -0.0034 -0.1216
   74SLPC  H18S 6610   2.987   4.775   4.095  0.7863 -0.1550 -1.8569
   74SLPC  H18T 6611   2.881   4.887   4.006 -0.2257  1.0818  1.7292
   74SLPC   C33 6612   2.722   4.217   5.042  0.0449 -0.3049  0.1749
   74SLPC   H3X 6613   2.818   4.268   5.066  0.0090  0.4338 -1.2237
   74SLPC   H3Y 6614   2.643   4.293   5.063 -0.2399  0.0321 -2.0521
   74SLPC   C34 6615   2.738   4.180   4.895  0.2389 -0.1736 -0.2964
   74SLPC   H4X 6616   2.817   4.103   4.885 -1.1032 -1.3381 -2.2634
   74SLPC   H4Y 6617   2.758   4.277   4.844 -0.4321  0.6133  0.9000
   74SLPC   C35 6618   2.611   4.123   4.825 -0.5861 -0.2528 -0.7307
   74SLPC   H5X 6619   2.527   4.190   4.854 -0.5020 -0.2382 -0.5218
   74SLPC   H5Y 6620   2.580   4.023   4.863  0.5227 -0.1256  0.5314
   74SLPC   C36 6621   2.616   4.121   4.674 -0.4648  0.1780 -0.0205
   74SLPC   H6X 6622   2.675   4.034   4.640 -0.5081  0.6645 -1.3893
   74SLPC   H6Y 6623   2.666   4.215   4.642 -3.3570  1.4639 -0.9209
   74SLPC   C37 6624   2.474   4.121   4.611  0.4390 -0.5595 -0.1562
   74SLPC   H7X 6625   2.410   4.204   4.646 -0.9766 -1.8610  0.3709
   74SLPC   H7Y 6626   2.427   4.021   4.617  1.2091 -0.9808 -1.0002
   74SLPC   C38 6627   2.496   4.137   4.458  0.7282 -0.0844 -0.9399
   74SLPC   H8X 6628   2.545   4.043   4.425  0.4352 -0.4402 -0.3565
   74SLPC   H8Y 6629   2.562   4.226   4.450 -0.5500  1.1426  1.7144
   74SLPC   C39 6630   2.369   4.171   4.371  0.6628 -0.1933 -0.0956
   74SLPC   H9X 6631   2.338   4.274   4.401 -0.3538 -0.6429  0.4393
   74SLPC   H9Y 6632   2.280   4.111   4.399  2.7105 -2.8788  0.8708
   74SLPC  C310 6633   2.384   4.168   4.213  0.3465 -0.0216 -0.2046
   74SLPC  H10X 6634   2.426   4.070   4.181 -1.1356 -1.1542  1.2130
   74SLPC  H10Y 6635   2.449   4.251   4.179  0.3527  0.4516  0.9467
   74SLPC  C311 6636   2.252   4.185   4.140  0.0894 -0.0566 -0.4524
   74SLPC  H11X 6637   2.206   4.281   4.170 -2.1408 -1.1474 -0.2168
   74SLPC  H11Y 6638   2.180   4.106   4.171  1.4029 -0.8349  0.6659
   74SLPC  C312 6639   2.252   4.180   3.983 -0.4532  0.2772  0.5260
   74SLPC  H12X 6640   2.213   4.082   3.948  3.2676 -0.0784 -2.9556
   74SLPC  H12Y 6641   2.356   4.202   3.953 -0.4871  0.2942  0.4191
   74SLPC  C313 6642   2.157   4.283   3.922  0.1540 -0.1545 -0.0913
   74SLPC  H13X 6643   2.065   4.293   3.985  0.3701  0.3863  0.1431
   74SLPC  H13Y 6644   2.134   4.248   3.820  1.9888 -0.1378 -0.5287
   74SLPC  C314 6645   2.228   4.427   3.905  0.0586  0.1253 -0.7106
   74SLPC  H14X 6646   2.321   4.411   3.847  1.8479 -1.0659  2.3673
   74SLPC  H14Y 6647   2.256   4.469   4.004  1.8550  0.6339 -1.4310
   74SLPC  C315 6648   2.126   4.528   3.842  0.2771 -0.8742  0.4195
   74SLPC  H15X 6649   2.032   4.522   3.900 -0.5105  0.0915 -0.7273
   74SLPC  H15Y 6650   2.086   4.509   3.740 -0.2823  2.0547  0.0320
   74SLPC  C316 6651   2.177   4.680   3.848  0.2112  0.3799 -0.3451
   74SLPC  H16X 6652   2.206   4.700   3.953 -0.8298  0.9179 -0.1578
   74SLPC  H16Y 6653   2.084   4.736   3.824 -0.4765 -0.5577  0.1340
   74SLPC  C317 6654   2.283   4.708   3.735  0.4290  0.0031 -0.2795
   74SLPC  H17X 6655   2.225   4.685   3.643 -1.9739  0.5857  1.0674
   74SLPC  H17Y 6656   2.364   4.634   3.752  1.5279  1.1854 -0.2612
   74SLPC  C318 6657   2.344   4.847   3.727  1.2533  0.6233 -0.0477
   74SLPC  H18X 6658   2.427   4.848   3.654  1.5106  0.6645  0.2432
   74SLPC  H18Y 6659   2.386   4.872   3.827  0.2826 -1.4494  0.9247
   74SLPC  H18Z 6660   2.267   4.922   3.698  1.3708  0.2252 -1.4163
   75SLPC     N 6661   5.731   4.198   5.928 -0.0402 -0.2188  0.0667
   75SLPC   C13 6662   5.624   4.221   6.036  0.1120 -0.0104  0.3890
   75SLPC  H13A 6663   5.657   4.178   6.129  0.7178  1.1341  0.7047
   75SLPC  H13B 6664   5.605   4.326   6.046  1.1859  0.2060  0.2466
   75SLPC  H13C 6665   5.531   4.171   6.014 -0.0372 -0.1733  1.3794
   75SLPC   C14 6666   5.743   4.056   5.903 -0.2973 -0.0759 -1.0503
   75SLPC  H14A 6667   5.652   4.025   5.854 -2.1417 -0.1518  2.2175
   75SLPC  H14B 6668   5.840   4.040   5.859  1.9518  0.5519  3.3391
   75SLPC  H14C 6669   5.753   3.996   5.993 -1.0410  0.3744 -0.6585
   75SLPC   C15 6670   5.856   4.244   5.995  1.1574  0.5578 -0.1294
   75SLPC  H15A 6671   5.834   4.336   6.047 -0.2385 -0.6973  1.5695
   75SLPC  H15B 6672   5.877   4.179   6.079 -1.6897  0.5153  0.6122
   75SLPC  H15C 6673   5.943   4.243   5.932  0.9906 -0.3943 -0.3541
   75SLPC   C12 6674   5.690   4.278   5.806  0.3322 -0.1742 -0.5280
   75SLPC  H12A 6675   5.681   4.383   5.832  1.6883 -0.2956  0.5412
   75SLPC  H12B 6676   5.590   4.245   5.783 -0.7676  0.1563  3.2817
   75SLPC   C11 6677   5.772   4.264   5.679 -0.6591 -0.6222 -0.4651
   75SLPC  H11A 6678   5.711   4.293   5.592  0.0862 -0.2485 -0.8741
   75SLPC  H11B 6679   5.793   4.156   5.662  0.2867 -0.6799  0.8863
   75SLPC     P 6680   6.042   4.310   5.662 -0.2903  0.1422  0.3938
   75SLPC   O13 6681   6.113   4.439   5.648  0.3333  0.2489  0.2694
   75SLPC   O14 6682   6.089   4.221   5.775  0.0579  0.2432 -0.0625
   75SLPC   O12 6683   5.892   4.350   5.685 -0.7878  0.0174 -0.1185
   75SLPC   O11 6684   6.039   4.224   5.528  0.1825  0.1195  0.4627
   75SLPC    C1 6685   6.052   4.309   5.407 -0.4234  0.3119 -0.2680
   75SLPC    HA 6686   6.120   4.397   5.412 -1.2579  1.0735 -1.8368
   75SLPC    HB 6687   6.106   4.239   5.339  0.3912 -1.1875  1.8796
   75SLPC    C2 6688   5.928   4.355   5.338  0.4430 -0.0209 -0.5835
   75SLPC    HS 6689   5.887   4.434   5.403  2.2901  2.6782 -2.5986
   75SLPC   O21 6690   5.834   4.248   5.311  0.4885  0.8590 -0.8351
   75SLPC   C21 6691   5.711   4.298   5.296 -0.1170  0.5281 -1.1261
   75SLPC   O22 6692   5.680   4.411   5.308  0.5431  0.0466  0.4669
   75SLPC   C22 6693   5.605   4.184   5.271 -0.1911 -0.3160  0.1099
   75SLPC   H2R 6694   5.653   4.097   5.222 -1.0639 -0.1176 -1.1221
   75SLPC   H2S 6695   5.583   4.160   5.377 -1.6555 -3.2721 -0.8195
   75SLPC    C3 6696   5.967   4.433   5.202 -0.0459  0.1241  0.0853
   75SLPC    HX 6697   6.023   4.522   5.239 -0.1833 -0.5115  1.8203
   75SLPC    HY 6698   5.874   4.479   5.162 -0.8558 -1.4455  0.1176
   75SLPC   O31 6699   6.050   4.356   5.117  0.1177  0.1551  0.1348
   75SLPC   C31 6700   6.061   4.382   4.984 -0.6200 -0.2256 -0.1164
   75SLPC   O32 6701   6.008   4.476   4.926 -0.7163 -0.3728  0.3350
   75SLPC   C32 6702   6.122   4.263   4.913 -0.2599  0.4417  0.5430
   75SLPC   H2X 6703   6.112   4.167   4.968 -1.6766  0.3386  0.1118
   75SLPC   H2Y 6704   6.232   4.281   4.907  0.1352 -2.2855 -0.8990
   75SLPC   C23 6705   5.491   4.235   5.180  0.6819  0.2045 -0.2631
   75SLPC   H3R 6706   5.456   4.333   5.216 -0.5747 -0.9231  1.6310
   75SLPC   H3S 6707   5.400   4.172   5.170  1.7069 -1.0139 -2.3243
   75SLPC   C24 6708   5.549   4.253   5.034  0.2482 -0.2802  0.0051
   75SLPC   H4R 6709   5.615   4.165   5.018 -0.4102 -0.4610 -1.8580
   75SLPC   H4S 6710   5.606   4.346   5.014 -0.4416  0.4997  1.5836
   75SLPC   C25 6711   5.439   4.238   4.929 -0.0572  0.1061 -0.0854
   75SLPC   H5R 6712   5.383   4.334   4.917  0.2958  0.4007  0.6263
   75SLPC   H5S 6713   5.362   4.161   4.952  1.2427 -0.6640  1.7323
   75SLPC   C26 6714   5.485   4.191   4.796 -0.5287 -0.7994  0.3109
   75SLPC   H6R 6715   5.405   4.210   4.721  0.0971 -0.0953 -0.1923
   75SLPC   H6S 6716   5.513   4.084   4.802  1.8610 -0.3431 -1.8818
   75SLPC   C27 6717   5.610   4.263   4.751  0.3337  0.1339 -0.8765
   75SLPC   H7R 6718   5.654   4.222   4.658  1.7756  0.8347 -0.5173
   75SLPC   H7S 6719   5.687   4.242   4.828 -1.9032  1.0353  1.6851
   75SLPC   C28 6720   5.586   4.407   4.721  0.3483 -0.5040 -0.0270
   75SLPC   H8R 6721   5.543   4.457   4.811  2.3472 -0.9813  1.2136
   75SLPC   H8S 6722   5.510   4.405   4.640  0.2588 -0.4576  0.0561
   75SLPC   C29 6723   5.716   4.476   4.676  0.1241  0.3194 -0.0829
   75SLPC   H9R 6724   5.782   4.499   4.761 -0.2269  0.5071  0.1426
   75SLPC  C210 6725   5.759   4.494   4.548 -0.0732 -0.7273 -0.3193
   75SLPC  H10R 6726   5.859   4.535   4.529 -1.1061  1.8811 -0.3547
   75SLPC  C211 6727   5.673   4.470   4.426  0.3332  0.1024  0.3684
   75SLPC  H11R 6728   5.709   4.543   4.351 -0.8700 -0.5896 -0.9280
   75SLPC  H11S 6729   5.571   4.510   4.445  0.7709  0.5165  1.9096
   75SLPC  C212 6730   5.673   4.334   4.370 -0.1276  0.1567  0.0775
   75SLPC  H12R 6731   5.773   4.289   4.363 -0.1167 -0.0344  1.3904
   75SLPC  C213 6732   5.573   4.258   4.321  0.1060 -0.0008  0.2557
   75SLPC  H13R 6733   5.592   4.151   4.303 -0.4325 -0.5246  2.5627
   75SLPC  C214 6734   5.427   4.307   4.319 -0.4867 -0.6577  0.0621
   75SLPC  H14R 6735   5.408   4.350   4.419  1.0603  0.1795  0.0118
   75SLPC  H14S 6736   5.353   4.224   4.319  1.7096 -2.6878 -1.4992
   75SLPC  C215 6737   5.395   4.407   4.207 -0.1895 -0.0029 -0.2722
   75SLPC  H15R 6738   5.421   4.351   4.115  0.6045 -0.7581  0.3977
   75SLPC  H15S 6739   5.454   4.500   4.222 -0.1183 -0.1534  0.4004
   75SLPC  C216 6740   5.250   4.442   4.207 -1.0047  0.0015  0.2869
   75SLPC  H16R 6741   5.236   4.525   4.280 -0.2443  0.6897 -0.3411
   75SLPC  H16S 6742   5.189   4.356   4.245  0.4619 -1.5766 -0.8306
   75SLPC  C217 6743   5.195   4.495   4.073  0.5185  0.7201  1.0601
   75SLPC  H17R 6744   5.276   4.549   4.019  0.5423 -1.8081 -1.6177
   75SLPC  H17S 6745   5.102   4.555   4.077 -1.5299 -1.9222 -3.1031
   75SLPC  C218 6746   5.161   4.374   3.991  0.3667  0.2413  0.0357
   75SLPC  H18R 6747   5.113   4.413   3.899  0.0191 -0.8599 -0.2655
   75SLPC  H18S 6748   5.096   4.309   4.053  0.1209 -0.5714 -1.0395
   75SLPC  H18T 6749   5.247   4.314   3.953 -0.6685 -0.2385 -1.6297
   75SLPC   C33 6750   6.067   4.250   4.773 -0.6642 -0.4683 -0.1572
   75SLPC   H3X 6751   5.959   4.275   4.772 -1.3852 -3.3511  0.8579
   75SLPC   H3Y 6752   6.082   4.145   4.740 -0.3814 -0.4808  0.0121
   75SLPC   C34 6753   6.132   4.338   4.664  0.4705 -0.5026  0.6046
   75SLPC   H4X 6754   6.238   4.349   4.693  1.6322 -3.1731 -2.3664
   75SLPC   H4Y 6755   6.091   4.441   4.654  1.9896  0.2709  2.0437
   75SLPC   C35 6756   6.132   4.265   4.529 -0.1080  0.3633 -0.1078
   75SLPC   H5X 6757   6.028   4.231   4.509 -0.1954  0.4053  0.2807
   75SLPC   H5Y 6758   6.197   4.174   4.523 -1.7308 -0.8726  0.5694
   75SLPC   C36 6759   6.196   4.357   4.421 -0.3974  0.5099  0.7573
   75SLPC   H6X 6760   6.305   4.350   4.442 -0.3258  0.2997  0.3231
   75SLPC   H6Y 6761   6.166   4.464   4.429 -2.1534  0.0227  0.7852
   75SLPC   C37 6762   6.152   4.312   4.284 -0.1591 -0.1278  0.3433
   75SLPC   H7X 6763   6.043   4.294   4.294 -0.9044  3.6939 -0.3612
   75SLPC   H7Y 6764   6.212   4.218   4.278  0.1696  0.1159 -0.2632
   75SLPC   C38 6765   6.164   4.410   4.170 -0.3359  0.4697 -0.0710
   75SLPC   H8X 6766   6.265   4.400   4.124  0.3443  1.9040  1.0701
   75SLPC   H8Y 6767   6.153   4.515   4.206 -0.0590  0.2661  0.6133
   75SLPC   C39 6768   6.060   4.383   4.059  0.4328 -0.5230 -1.0719
   75SLPC   H9X 6769   6.072   4.278   4.025  1.2741 -0.5514 -0.7046
   75SLPC   H9Y 6770   6.103   4.449   3.981 -1.5973 -0.0803 -1.8238
   75SLPC  C310 6771   5.912   4.422   4.084 -0.0935 -0.6161  0.4756
   75SLPC  H10X 6772   5.920   4.524   4.127  1.4726 -0.4310 -0.2074
   75SLPC  H10Y 6773   5.864   4.363   4.165 -1.7177 -0.9633 -0.7332
   75SLPC  C311 6774   5.836   4.425   3.951  0.9127  0.7499  0.4014
   75SLPC  H11X 6775   5.905   4.469   3.876  1.0462  0.1164  0.1469
   75SLPC  H11Y 6776   5.745   4.486   3.973  0.0770  0.9333 -3.2191
   75SLPC  C312 6777   5.787   4.283   3.894  0.1574 -0.2362 -0.3130
   75SLPC  H12X 6778   5.866   4.222   3.845  0.2571  1.0047 -1.7316
   75SLPC  H12Y 6779   5.731   4.316   3.804 -0.7127 -1.7221 -0.3403
   75SLPC  C313 6780   5.709   4.200   3.989 -0.6528  0.2867  0.3272
   75SLPC  H13X 6781   5.616   4.248   4.027 -1.8913 -1.4382 -0.4867
   75SLPC  H13Y 6782   5.768   4.186   4.082 -0.5037 -0.0197  0.1859
   75SLPC  C314 6783   5.661   4.080   3.910  0.6661 -0.5058  0.0296
   75SLPC  H14X 6784   5.749   4.028   3.865  1.1179  0.0570  0.2567
   75SLPC  H14Y 6785   5.596   4.113   3.826 -0.7284 -1.6418  0.6397
   75SLPC  C315 6786   5.573   3.985   3.995 -0.1989 -0.1381 -0.0807
   75SLPC  H15X 6787   5.613   3.964   4.097  1.0957  2.7197  0.0525
   75SLPC  H15Y 6788   5.558   3.903   3.922 -3.3555  1.6804 -1.5315
   75SLPC  C316 6789   5.433   4.033   4.031 -0.1348 -0.3158  0.1169
   75SLPC  H16X 6790   5.373   4.057   3.941 -1.2454 -1.6976  0.4765
   75SLPC  H16Y 6791   5.438   4.122   4.097  1.7055 -0.7840  0.6529
   75SLPC  C317 6792   5.346   3.935   4.112  0.2044  0.2798 -0.2095
   75SLPC  H17X 6793   5.398   3.918   4.209 -0.5630  2.6750  0.6628
   75SLPC  H17Y 6794   5.347   3.839   4.055 -1.2668  0.3625 -0.3898
   75SLPC  C318 6795   5.212   3.994   4.137 -0.3045 -0.0051 -0.2290
   75SLPC  H18X 6796   5.160   4.028   4.044  0.6413  1.0366 -0.3870
   75SLPC  H18Y 6797   5.220   4.086   4.199 -0.6822 -0.8562  1.1008
   75SLPC  H18Z 6798   5.151   3.931   4.205  1.4136 -0.4078  0.9734
   76SLPC     N 6799   0.008   3.000   5.876 -0.0427 -1.0079 -0.0578
   76SLPC   C13 6800  -0.113   2.946   5.798 -0.6573  0.4280 -0.2833
   76SLPC  H13A 6801  -0.176   3.026   5.762 -3.0901 -0.9137  0.8335
   76SLPC  H13B 6802  -0.090   2.884   5.713  0.9718 -0.1848  0.5762
   76SLPC  H13C 6803  -0.177   2.889   5.864  0.8573  1.1477  1.8762
   76SLPC   C14 6804   0.089   3.086   5.790  0.1398  0.3022  0.6965
   76SLPC  H14A 6805   0.182   3.108   5.840 -0.7071  1.1601  1.9536
   76SLPC  H14B 6806   0.112   3.033   5.699 -3.2602  3.0959 -1.9633
   76SLPC  H14C 6807   0.050   3.186   5.772 -1.9541 -0.5718  0.1883
   76SLPC   C15 6808   0.082   2.881   5.922  0.0020  0.2397 -0.5335
   76SLPC  H15A 6809   0.156   2.912   5.993  0.5084  1.3984 -1.5514
   76SLPC  H15B 6810   0.014   2.816   5.976 -0.0686 -0.3486 -1.3053
   76SLPC  H15C 6811   0.132   2.835   5.838  0.2662 -1.3790  0.4808
   76SLPC   C12 6812  -0.040   3.082   5.997  0.2398 -0.5029  0.2771
   76SLPC  H12A 6813   0.042   3.119   6.058  0.8929  0.2442 -1.0379
   76SLPC  H12B 6814  -0.100   3.021   6.062 -0.0694  0.7344  1.1706
   76SLPC   C11 6815  -0.132   3.207   5.983  0.3257  0.2728  0.0216
   76SLPC  H11A 6816  -0.138   3.250   6.085  2.9468  0.7766  0.0134
   76SLPC  H11B 6817  -0.230   3.172   5.946 -0.2071  0.6646  1.0549
   76SLPC     P 6818  -0.133   3.399   5.789  0.0276 -0.1037 -0.0260
   76SLPC   O13 6819  -0.182   3.527   5.848 -0.0836  0.7861 -0.0599
   76SLPC   O14 6820  -0.036   3.408   5.678 -0.0425 -0.3656  0.1566
   76SLPC   O12 6821  -0.069   3.308   5.901 -0.0682 -0.5458  0.1725
   76SLPC   O11 6822  -0.262   3.314   5.758  0.4263 -0.5509  0.5036
   76SLPC    C1 6823  -0.275   3.261   5.626  0.2263 -0.3485  0.6626
   76SLPC    HA 6824  -0.192   3.202   5.583  0.0460 -0.0452 -0.0959
   76SLPC    HB 6825  -0.361   3.191   5.636 -2.8798  3.2190  0.1254
   76SLPC    C2 6826  -0.325   3.366   5.525  0.1205  0.0123 -0.2034
   76SLPC    HS 6827  -0.393   3.314   5.454  2.1590 -2.0213 -0.7327
   76SLPC   O21 6828  -0.220   3.440   5.460  0.4392 -0.0156 -0.3764
   76SLPC   C21 6829  -0.148   3.374   5.370 -0.8187  0.3195 -0.4609
   76SLPC   O22 6830  -0.148   3.253   5.350  0.4041 -0.6528  0.3156
   76SLPC   C22 6831  -0.039   3.467   5.311 -0.0840 -0.4470  0.0691
   76SLPC   H2R 6832  -0.072   3.573   5.313  1.0827 -0.0810  0.2698
   76SLPC   H2S 6833   0.032   3.473   5.397  0.2370  1.0247 -0.2875
   76SLPC    C3 6834  -0.421   3.471   5.595  0.0729  0.3722  0.6785
   76SLPC    HX 6835  -0.364   3.549   5.649  0.4050  2.8881 -3.0905
   76SLPC    HY 6836  -0.483   3.410   5.665  2.5943  0.0688  2.7235
   76SLPC   O31 6837  -0.516   3.533   5.497 -0.0901 -0.6920  0.3694
   76SLPC   C31 6838  -0.465   3.632   5.426  0.5299 -0.0549 -0.0768
   76SLPC   O32 6839  -0.360   3.687   5.444 -0.7487 -0.1439  0.3077
   76SLPC   C32 6840  -0.559   3.675   5.313  0.0501  0.0161 -0.4080
   76SLPC   H2X 6841  -0.534   3.782   5.293 -2.2039  0.4072 -1.3651
   76SLPC   H2Y 6842  -0.667   3.654   5.331 -0.0584 -0.8209 -1.9577
   76SLPC   C23 6843   0.028   3.417   5.182 -0.7915  0.0220 -0.2216
   76SLPC   H3R 6844   0.068   3.316   5.205  0.3162  0.4244 -0.3487
   76SLPC   H3S 6845   0.107   3.489   5.151 -0.3468 -0.3916 -0.0584
   76SLPC   C24 6846  -0.070   3.418   5.064 -0.2627 -0.1577  0.4134
   76SLPC   H4R 6847  -0.121   3.515   5.047 -3.2102 -1.2458  2.6729
   76SLPC   H4S 6848  -0.144   3.337   5.083 -0.6293 -0.5311 -2.4071
   76SLPC   C25 6849  -0.003   3.370   4.938 -0.0823 -0.7956  0.6339
   76SLPC   H5R 6850   0.055   3.280   4.968  2.0560  0.8087  1.3927
   76SLPC   H5S 6851   0.059   3.454   4.901  0.8097 -0.2564  3.3177
   76SLPC   C26 6852  -0.109   3.321   4.836 -0.1493 -0.3602  0.0743
   76SLPC   H6R 6853  -0.171   3.401   4.792 -1.9559 -2.1263 -0.6587
   76SLPC   H6S 6854  -0.165   3.237   4.883  0.3269 -1.1838 -0.8051
   76SLPC   C27 6855  -0.031   3.271   4.713  0.6562 -0.6369 -0.1122
   76SLPC   H7R 6856   0.013   3.169   4.728  1.4398 -0.5658 -1.8055
   76SLPC   H7S 6857   0.055   3.339   4.693  1.4238 -1.4158  0.4708
   76SLPC   C28 6858  -0.123   3.251   4.587  0.1941 -0.3453  0.8298
   76SLPC   H8R 6859  -0.168   3.351   4.568  0.6251  0.1450  2.3056
   76SLPC   H8S 6860  -0.203   3.175   4.599 -0.3204  0.2382  1.1330
   76SLPC   C29 6861  -0.037   3.221   4.464 -0.5250 -0.2961 -0.2544
   76SLPC   H9R 6862   0.063   3.266   4.468  0.2718 -2.1781  1.6272
   76SLPC  C210 6863  -0.077   3.147   4.361 -0.4548 -0.1216  0.2296
   76SLPC  H10R 6864  -0.002   3.156   4.281  0.3520 -1.0827  0.8716
   76SLPC  C211 6865  -0.217   3.096   4.338  0.4070  0.2811  0.6247
   76SLPC  H11R 6866  -0.253   3.139   4.243 -0.1465 -2.1719 -0.3275
   76SLPC  H11S 6867  -0.287   3.131   4.417  0.0495  1.9387 -0.4260
   76SLPC  C212 6868  -0.237   2.942   4.339 -0.2769 -0.2438 -0.0235
   76SLPC  H12R 6869  -0.314   2.902   4.408  0.7521 -0.8608  0.7868
   76SLPC  C213 6870  -0.187   2.857   4.244 -0.1617 -0.4870 -0.4360
   76SLPC  H13R 6871  -0.195   2.749   4.265  0.3373 -0.3711  0.3915
   76SLPC  C214 6872  -0.098   2.891   4.128  0.1456  0.8958 -0.9815
   76SLPC  H14R 6873   0.006   2.850   4.131 -0.0090  0.4355 -1.7870
   76SLPC  H14S 6874  -0.098   3.002   4.132  2.2730  0.9045 -0.7447
   76SLPC  C215 6875  -0.156   2.842   4.003 -0.0182 -0.7292 -0.8436
   76SLPC  H15R 6876  -0.144   2.917   3.922 -0.7548 -1.5215 -1.6944
   76SLPC  H15S 6877  -0.266   2.849   4.013  0.2124 -0.1886  1.5862
   76SLPC  C216 6878  -0.099   2.720   3.940  0.2235  0.2332  0.7357
   76SLPC  H16R 6879  -0.094   2.627   4.000  0.1141 -0.0566  0.2988
   76SLPC  H16S 6880   0.010   2.739   3.926  0.3977 -1.4238 -0.2915
   76SLPC  C217 6881  -0.157   2.695   3.800 -0.6198  0.1044 -0.7513
   76SLPC  H17R 6882  -0.263   2.719   3.825  0.1257  1.2492  1.4663
   76SLPC  H17S 6883  -0.145   2.586   3.782  1.3267  0.3778 -1.1668
   76SLPC  C218 6884  -0.098   2.773   3.687  0.5900 -0.1228 -0.1366
   76SLPC  H18R 6885  -0.103   2.882   3.711  1.4823 -0.2986  0.9216
   76SLPC  H18S 6886  -0.141   2.749   3.588  0.0435 -0.5664  0.2063
   76SLPC  H18T 6887   0.009   2.743   3.680  0.3823 -0.9509  0.2026
   76SLPC   C33 6888  -0.540   3.591   5.186 -0.1069  0.3417 -0.3643
   76SLPC   H3X 6889  -0.617   3.616   5.110 -1.4687  0.2892  0.9790
   76SLPC   H3Y 6890  -0.550   3.484   5.213 -1.6001  1.3494  3.3970
   76SLPC   C34 6891  -0.407   3.607   5.116 -0.3035  0.1297  0.6237
   76SLPC   H4X 6892  -0.331   3.541   5.162  2.7433  1.2376 -2.5895
   76SLPC   H4Y 6893  -0.365   3.708   5.135 -2.6745  1.1514  0.6054
   76SLPC   C35 6894  -0.404   3.577   4.961 -0.2176  0.9404 -0.3590
   76SLPC   H5X 6895  -0.467   3.486   4.947 -2.5695  2.6504 -1.1589
   76SLPC   H5Y 6896  -0.302   3.558   4.923  0.3833  0.7860  1.2665
   76SLPC   C36 6897  -0.475   3.687   4.884 -0.6881  0.2861 -0.7269
   76SLPC   H6X 6898  -0.439   3.780   4.934 -0.8621  0.9752 -1.8637
   76SLPC   H6Y 6899  -0.585   3.685   4.895 -0.5469 -0.9013  0.6769
   76SLPC   C37 6900  -0.437   3.707   4.737 -0.5157 -0.0554 -0.0185
   76SLPC   H7X 6901  -0.326   3.713   4.736 -0.4746  0.7054  3.7234
   76SLPC   H7Y 6902  -0.474   3.805   4.701 -1.3602 -0.3424  0.0683
   76SLPC   C38 6903  -0.469   3.589   4.646 -0.3806 -0.2517  0.2786
   76SLPC   H8X 6904  -0.578   3.575   4.635 -0.4918 -0.8303  1.8804
   76SLPC   H8Y 6905  -0.425   3.496   4.690  1.1983  0.8192  1.0226
   76SLPC   C39 6906  -0.406   3.593   4.504  0.2402  0.0222  0.0149
   76SLPC   H9X 6907  -0.295   3.600   4.507  0.1896  1.3324 -0.7178
   76SLPC   H9Y 6908  -0.449   3.683   4.455  0.3264 -0.1275 -0.3425
   76SLPC  C310 6909  -0.443   3.467   4.419  0.1197 -0.1283  0.7568
   76SLPC  H10X 6910  -0.543   3.430   4.451 -0.2096 -0.0228 -0.1587
   76SLPC  H10Y 6911  -0.379   3.382   4.453 -1.8507 -1.5998  0.8843
   76SLPC  C311 6912  -0.432   3.494   4.269  0.1090  0.1862  0.5181
   76SLPC  H11X 6913  -0.507   3.573   4.248 -1.1881 -1.3658 -0.8023
   76SLPC  H11Y 6914  -0.470   3.404   4.216  0.1923 -0.0960  0.9358
   76SLPC  C312 6915  -0.286   3.535   4.229  0.0043  0.7295  0.1046
   76SLPC  H12X 6916  -0.211   3.457   4.252 -0.3910 -0.5530 -2.7536
   76SLPC  H12Y 6917  -0.256   3.630   4.278  3.2500 -0.2272  0.0656
   76SLPC  C313 6918  -0.275   3.551   4.075  0.2439 -0.4585 -0.2744
   76SLPC  H13X 6919  -0.301   3.452   4.033 -0.6389 -0.8072  1.0569
   76SLPC  H13Y 6920  -0.173   3.581   4.044  0.5587 -1.4590 -0.2192
   76SLPC  C314 6921  -0.380   3.650   4.008  0.3941  0.0684 -0.3579
   76SLPC  H14X 6922  -0.357   3.754   4.039  1.1167 -0.1458 -0.1618
   76SLPC  H14Y 6923  -0.479   3.626   4.051  0.2318  0.8875 -0.2708
   76SLPC  C315 6924  -0.380   3.628   3.854 -0.0256 -0.4439  0.0677
   76SLPC  H15X 6925  -0.405   3.520   3.838 -1.3610  0.1208 -1.8495
   76SLPC  H15Y 6926  -0.277   3.626   3.813 -0.4570  0.7087 -1.1115
   76SLPC  C316 6927  -0.462   3.729   3.773 -0.0004  0.2944 -0.5045
   76SLPC  H16X 6928  -0.436   3.829   3.814  0.4005  0.0040 -0.0290
   76SLPC  H16Y 6929  -0.569   3.700   3.777 -0.3203  1.5388  0.2749
   76SLPC  C317 6930  -0.433   3.725   3.624  1.1305 -0.0148 -0.5147
   76SLPC  H17X 6931  -0.327   3.756   3.612  1.7453 -1.5457  0.7998
   76SLPC  H17Y 6932  -0.494   3.803   3.574 -0.4802 -0.9793 -0.0844
   76SLPC  C318 6933  -0.446   3.591   3.557  0.2884  0.3481  0.8976
   76SLPC  H18X 6934  -0.420   3.581   3.449  0.5361 -2.9282  1.2140
   76SLPC  H18Y 6935  -0.548   3.547   3.559  0.7110 -0.7423 -0.3952
   76SLPC  H18Z 6936  -0.376   3.518   3.603  1.9392  2.9027  2.5378
   77SLPC     N 6937   1.070   4.057   5.933  0.5888  0.3011 -0.0754
   77SLPC   C13 6938   1.130   3.937   5.860 -0.4153  0.1713  0.6963
   77SLPC  H13A 6939   1.191   3.873   5.922  2.0596  0.2932 -1.5332
   77SLPC  H13B 6940   1.046   3.881   5.823  1.9424 -2.3899 -0.9194
   77SLPC  H13C 6941   1.191   3.973   5.779 -1.7153  1.2092  0.1629
   77SLPC   C14 6942   1.162   4.138   6.003 -0.1701 -0.8554  0.0284
   77SLPC  H14A 6943   1.249   4.086   6.039  0.1552 -1.2019 -1.2404
   77SLPC  H14B 6944   1.207   4.212   5.937  0.9613 -1.3916  0.1815
   77SLPC  H14C 6945   1.117   4.206   6.074 -0.6202  0.2655 -1.2977
   77SLPC   C15 6946   0.983   3.999   6.033  0.3485 -0.1320  0.6530
   77SLPC  H15A 6947   0.905   3.954   5.973  1.2257 -0.9557  0.1274
   77SLPC  H15B 6948   1.033   3.918   6.083 -0.2596 -1.5157 -0.9373
   77SLPC  H15C 6949   0.943   4.075   6.098 -0.4349 -0.6891  0.8324
   77SLPC   C12 6950   0.989   4.143   5.833  0.1686 -0.2239 -0.2034
   77SLPC  H12A 6951   1.051   4.173   5.750  2.8882  0.9356  2.1325
   77SLPC  H12B 6952   0.968   4.237   5.882  1.1564  0.6880 -1.4968
   77SLPC   C11 6953   0.848   4.089   5.775 -0.1200 -0.4286  0.0436
   77SLPC  H11A 6954   0.870   3.993   5.724 -1.3666 -0.2425 -0.8516
   77SLPC  H11B 6955   0.816   4.172   5.707  0.5017 -0.3166 -0.1194
   77SLPC     P 6956   0.627   3.973   5.851 -0.2774  0.4316  0.3491
   77SLPC   O13 6957   0.658   3.852   5.926 -0.3974 -0.1983  0.3328
   77SLPC   O14 6958   0.504   4.037   5.913  0.2051  1.0309 -0.3286
   77SLPC   O12 6959   0.748   4.071   5.879  0.3751 -0.2422 -0.1215
   77SLPC   O11 6960   0.626   3.946   5.692 -0.0987 -0.1544 -0.3439
   77SLPC    C1 6961   0.578   4.057   5.607 -0.8723  0.4635 -0.8923
   77SLPC    HA 6962   0.549   4.158   5.644  0.4221  0.9580 -1.2077
   77SLPC    HB 6963   0.653   4.068   5.526 -1.6925 -2.3351 -2.0901
   77SLPC    C2 6964   0.451   3.996   5.542  0.1096 -0.9984 -0.2547
   77SLPC    HS 6965   0.377   3.994   5.625  1.0337 -1.9728  0.5554
   77SLPC   O21 6966   0.476   3.870   5.469 -0.1194 -0.3762  0.0339
   77SLPC   C21 6967   0.371   3.786   5.462 -0.3113  0.5047  0.4255
   77SLPC   O22 6968   0.258   3.807   5.504  0.2420 -0.0396 -0.1848
   77SLPC   C22 6969   0.407   3.660   5.385 -0.0211  0.6910  0.4678
   77SLPC   H2R 6970   0.515   3.642   5.403  0.6280  4.3524  0.4222
   77SLPC   H2S 6971   0.345   3.581   5.433 -0.0887  1.7846  2.2162
   77SLPC    C3 6972   0.381   4.089   5.442  0.4963 -0.4562 -1.4117
   77SLPC    HX 6973   0.356   4.178   5.504 -0.3275 -1.1812 -0.7057
   77SLPC    HY 6974   0.292   4.035   5.403  0.2431 -0.8260 -0.3345
   77SLPC   O31 6975   0.480   4.139   5.349  0.2304 -0.2084  0.1317
   77SLPC   C31 6976   0.482   4.074   5.233  0.5021  0.3457  0.7709
   77SLPC   O32 6977   0.392   4.003   5.193 -0.1718 -0.1640 -0.5707
   77SLPC   C32 6978   0.618   4.094   5.164  0.5648 -0.6250 -1.0432
   77SLPC   H2X 6979   0.690   4.081   5.248 -0.9061 -2.7855 -0.0810
   77SLPC   H2Y 6980   0.624   4.197   5.123 -0.8099 -0.8532 -1.8293
   77SLPC   C23 6981   0.389   3.669   5.235 -0.6758  0.0043  0.2863
   77SLPC   H3R 6982   0.463   3.741   5.194  0.4095 -0.4158  1.4781
   77SLPC   H3S 6983   0.286   3.702   5.208 -1.3000 -1.4304  0.8988
   77SLPC   C24 6984   0.419   3.533   5.164  0.2362  0.6435  0.1607
   77SLPC   H4R 6985   0.368   3.450   5.217 -0.3832  1.6183  1.1178
   77SLPC   H4S 6986   0.529   3.522   5.168  0.0987 -1.9026 -1.7588
   77SLPC   C25 6987   0.388   3.545   5.011 -0.0390  0.2328 -0.6315
   77SLPC   H5R 6988   0.278   3.557   5.016  0.1613  2.5194 -1.1503
   77SLPC   H5S 6989   0.415   3.448   4.965  0.0077 -1.5424  2.9762
   77SLPC   C26 6990   0.446   3.655   4.930  0.0029 -0.1017  0.0914
   77SLPC   H6R 6991   0.555   3.635   4.925 -0.0699 -0.6946  0.7862
   77SLPC   H6S 6992   0.443   3.747   4.991  0.1916 -1.1950  1.7862
   77SLPC   C27 6993   0.377   3.672   4.795  0.6113  0.4662  0.4043
   77SLPC   H7R 6994   0.408   3.772   4.758  0.2564  1.6535  3.1493
   77SLPC   H7S 6995   0.267   3.686   4.804  0.4038  0.0892 -1.4153
   77SLPC   C28 6996   0.426   3.579   4.686 -0.0319 -0.2682  0.5284
   77SLPC   H8R 6997   0.419   3.474   4.723  1.9000  0.0103  1.7558
   77SLPC   H8S 6998   0.529   3.614   4.664 -0.2494  0.2896  0.3958
   77SLPC   C29 6999   0.340   3.597   4.563 -0.2655  0.6833 -0.1970
   77SLPC   H9R 7000   0.242   3.549   4.579 -0.1804 -0.0051 -1.6722
   77SLPC  C210 7001   0.361   3.657   4.442 -0.0157  0.2058 -0.0570
   77SLPC  H10R 7002   0.278   3.653   4.369 -0.3662  0.8583  0.2962
   77SLPC  C211 7003   0.478   3.732   4.402 -0.4881  1.0246 -0.2499
   77SLPC  H11R 7004   0.568   3.674   4.431 -0.5510  1.2895  0.4870
   77SLPC  H11S 7005   0.490   3.819   4.471  0.9486 -0.0206  0.8583
   77SLPC  C212 7006   0.477   3.775   4.261  0.2973 -0.2296 -0.5834
   77SLPC  H12R 7007   0.443   3.876   4.236  0.7975 -0.1391 -0.9086
   77SLPC  C213 7008   0.533   3.702   4.160  0.6133  0.3352  0.1695
   77SLPC  H13R 7009   0.534   3.752   4.062  1.7230 -0.5128 -0.2722
   77SLPC  C214 7010   0.601   3.570   4.169  0.1677  1.1602 -0.4826
   77SLPC  H14R 7011   0.536   3.499   4.224  1.2469  1.0519  0.6759
   77SLPC  H14S 7012   0.690   3.577   4.235 -0.4633 -0.7509  0.6080
   77SLPC  C215 7013   0.637   3.500   4.036  0.5023  0.5275  0.0172
   77SLPC  H15R 7014   0.553   3.489   3.964  1.5117  1.6786 -1.3750
   77SLPC  H15S 7015   0.686   3.403   4.060 -1.0542 -0.3270 -0.1840
   77SLPC  C216 7016   0.738   3.594   3.957  1.4428  0.4845  0.1937
   77SLPC  H16R 7017   0.820   3.631   4.022  1.9093  3.0738 -1.7915
   77SLPC  H16S 7018   0.684   3.677   3.908  0.4304  0.7043  1.6519
   77SLPC  C217 7019   0.809   3.514   3.845 -0.0878  0.2926 -0.2176
   77SLPC  H17R 7020   0.850   3.574   3.761 -1.3462 -0.1271 -1.1312
   77SLPC  H17S 7021   0.722   3.465   3.797 -0.5040  1.1609 -0.3491
   77SLPC  C218 7022   0.912   3.411   3.876 -0.7546 -0.8292 -0.2297
   77SLPC  H18R 7023   0.963   3.379   3.782  0.4820  2.1521 -0.6522
   77SLPC  H18S 7024   0.882   3.314   3.922 -0.4637 -0.7519  0.1238
   77SLPC  H18T 7025   0.990   3.458   3.940 -3.0724 -1.5996  3.2768
   77SLPC   C33 7026   0.634   3.984   5.067  0.0253 -0.3738 -0.3925
   77SLPC   H3X 7027   0.546   3.979   5.000 -1.6051  3.5842  1.2921
   77SLPC   H3Y 7028   0.626   3.891   5.127  0.4067 -1.3624 -1.8346
   77SLPC   C34 7029   0.762   3.993   4.990 -0.7756 -0.9116  0.2714
   77SLPC   H4X 7030   0.840   4.009   5.068  0.6739 -2.2506 -0.8539
   77SLPC   H4Y 7031   0.746   4.077   4.918  0.4606 -1.5171 -0.7382
   77SLPC   C35 7032   0.793   3.862   4.916  0.2501  0.6202  0.3839
   77SLPC   H5X 7033   0.745   3.784   4.978 -2.3757  2.9838  1.4414
   77SLPC   H5Y 7034   0.903   3.847   4.912  0.0271 -1.1255  0.4941
   77SLPC   C36 7035   0.715   3.833   4.789  0.2535 -0.2649 -0.0371
   77SLPC   H6X 7036   0.611   3.865   4.812  0.7133  0.3165  1.3115
   77SLPC   H6Y 7037   0.707   3.723   4.785 -1.3814 -0.2000  0.9374
   77SLPC   C37 7038   0.771   3.885   4.659 -0.5376 -0.0422  1.0565
   77SLPC   H7X 7039   0.798   3.993   4.660  1.7973 -0.6013  1.1443
   77SLPC   H7Y 7040   0.683   3.889   4.591 -0.5469 -0.6249  1.0316
   77SLPC   C38 7041   0.898   3.811   4.611 -0.1988 -0.5882 -0.0289
   77SLPC   H8X 7042   0.862   3.707   4.601 -0.1751 -0.7803  1.6334
   77SLPC   H8Y 7043   0.977   3.816   4.689  0.6042  1.9739 -0.9405
   77SLPC   C39 7044   0.961   3.885   4.486  0.3306  0.0070 -0.0048
   77SLPC   H9X 7045   1.057   3.837   4.458  1.9135  2.8628  0.3133
   77SLPC   H9Y 7046   0.984   3.991   4.513  1.8509 -0.3820  0.3069
   77SLPC  C310 7047   0.860   3.894   4.371 -0.5041 -0.6631  0.1123
   77SLPC  H10X 7048   0.802   3.989   4.374  1.3077  0.4731  0.9347
   77SLPC  H10Y 7049   0.791   3.810   4.393  1.1141 -2.4717 -1.5072
   77SLPC  C311 7050   0.911   3.861   4.230  0.6762  0.2640 -0.9720
   77SLPC  H11X 7051   0.837   3.905   4.159  1.3594  0.6068 -1.4761
   77SLPC  H11Y 7052   0.898   3.753   4.208  0.7674  0.2954 -1.1723
   77SLPC  C312 7053   1.059   3.916   4.202  0.8364  0.3885  0.4317
   77SLPC  H12X 7054   1.132   3.845   4.247 -0.3190 -0.3086  1.2217
   77SLPC  H12Y 7055   1.080   4.015   4.248  0.2268  1.5858 -1.7911
   77SLPC  C313 7056   1.075   3.929   4.049 -0.1884  0.2440  0.3255
   77SLPC  H13X 7057   0.995   3.989   4.003  1.3086  0.8783 -1.5207
   77SLPC  H13Y 7058   1.062   3.825   4.014 -0.2796 -0.8715  3.4575
   77SLPC  C314 7059   1.216   3.976   4.019 -0.1906  0.4862  0.0224
   77SLPC  H14X 7060   1.289   3.906   4.064 -0.6439 -1.0675 -1.5865
   77SLPC  H14Y 7061   1.227   4.077   4.064 -0.4671 -0.1930  1.6132
   77SLPC  C315 7062   1.256   3.968   3.865  0.4033 -0.2971 -0.0752
   77SLPC  H15X 7063   1.214   3.878   3.817 -0.7225  0.0827  0.1830
   77SLPC  H15Y 7064   1.367   3.973   3.864  0.4302 -0.5784  0.8924
   77SLPC  C316 7065   1.213   4.090   3.778 -0.0933 -0.3720  1.0159
   77SLPC  H16X 7066   1.240   4.186   3.827  2.1381 -0.4768  0.0373
   77SLPC  H16Y 7067   1.102   4.088   3.767  0.1770 -3.2919 -1.8947
   77SLPC  C317 7068   1.273   4.081   3.646  0.2881 -0.0241  0.1790
   77SLPC  H17X 7069   1.383   4.076   3.658  0.5219  2.5748 -0.5715
   77SLPC  H17Y 7070   1.259   4.174   3.586  0.5207  1.3942  2.2933
   77SLPC  C318 7071   1.217   3.977   3.554  0.1132  0.2436 -0.1339
   77SLPC  H18X 7072   1.117   4.009   3.518  0.3439 -2.2449 -3.1426
   77SLPC  H18Y 7073   1.227   3.874   3.594  1.2889  0.3767 -0.0611
   77SLPC  H18Z 7074   1.282   3.971   3.465  0.1362 -0.4431 -0.0677
   78SLPC     N 7075   2.972   0.737   6.092 -0.7568 -0.9476  0.2968
   78SLPC   C13 7076   3.039   0.626   6.020 -0.1584  0.3893 -0.2610
   78SLPC  H13A 7077   3.078   0.545   6.081 -0.4360  0.4180 -0.0413
   78SLPC  H13B 7078   2.980   0.590   5.937 -0.3446  1.4875 -0.6129
   78SLPC  H13C 7079   3.130   0.664   5.976  0.0391  1.0258  0.6661
   78SLPC   C14 7080   3.051   0.776   6.209 -0.1107 -0.2397 -0.1106
   78SLPC  H14A 7081   3.017   0.868   6.253  0.4005 -0.1319  0.0607
   78SLPC  H14B 7082   3.056   0.694   6.278 -1.5378  0.8639  1.3315
   78SLPC  H14C 7083   3.145   0.813   6.170  0.0134 -0.5406 -0.1018
   78SLPC   C15 7084   2.832   0.693   6.128  0.6981  1.1262 -0.1421
   78SLPC  H15A 7085   2.782   0.782   6.162  0.0135 -0.7550  4.1883
   78SLPC  H15B 7086   2.770   0.663   6.045 -1.9329 -3.6057  3.2878
   78SLPC  H15C 7087   2.824   0.613   6.201  0.7472  0.4353 -0.8870
   78SLPC   C12 7088   2.961   0.860   6.002 -0.4492  0.9689 -0.2805
   78SLPC  H12A 7089   3.060   0.904   6.004 -0.2391  0.4629  1.8531
   78SLPC  H12B 7090   2.886   0.928   6.038 -1.5387 -1.0085  1.2560
   78SLPC   C11 7091   2.923   0.840   5.856 -0.5380 -0.2855  0.1505
   78SLPC  H11A 7092   3.014   0.805   5.802 -0.5803  1.7348 -1.2668
   78SLPC  H11B 7093   2.892   0.938   5.815  1.1254  0.0617 -0.3257
   78SLPC     P 7094   2.804   0.663   5.708 -0.4393  0.1577  0.4394
   78SLPC   O13 7095   2.914   0.570   5.708 -0.0589  0.2388 -0.1791
   78SLPC   O14 7096   2.668   0.598   5.707  0.6665  0.2711  0.0795
   78SLPC   O12 7097   2.814   0.756   5.829 -0.6377  0.3016 -0.1985
   78SLPC   O11 7098   2.816   0.770   5.581 -0.0138  0.1512 -0.1634
   78SLPC    C1 7099   2.697   0.802   5.514  0.5766  0.3607 -0.0445
   78SLPC    HA 7100   2.605   0.780   5.572  0.3062  1.7387  0.0746
   78SLPC    HB 7101   2.694   0.911   5.495 -0.1184  0.3779  0.1510
   78SLPC    C2 7102   2.690   0.727   5.381 -0.5046 -1.0453  0.5633
   78SLPC    HS 7103   2.683   0.623   5.420  1.2929 -0.1784  3.3953
   78SLPC   O21 7104   2.805   0.762   5.298 -0.3620 -0.3703  0.2402
   78SLPC   C21 7105   2.851   0.650   5.237 -0.2269 -0.5768  0.0409
   78SLPC   O22 7106   2.820   0.537   5.263 -0.1069  0.1977  0.2464
   78SLPC   C22 7107   2.962   0.693   5.144  0.1000  0.1070 -0.1680
   78SLPC   H2R 7108   2.976   0.803   5.148 -1.1318  0.2566  0.1340
   78SLPC   H2S 7109   3.049   0.639   5.188  1.2342  2.2589  0.3391
   78SLPC    C3 7110   2.556   0.761   5.306 -0.7467 -0.4959 -0.1857
   78SLPC    HX 7111   2.550   0.871   5.293  0.1264 -0.1486  2.1744
   78SLPC    HY 7112   2.474   0.727   5.373 -0.8195  0.5073  0.2459
   78SLPC   O31 7113   2.554   0.705   5.171 -0.9905  0.1213 -0.0566
   78SLPC   C31 7114   2.494   0.590   5.156  0.6507 -0.0163  0.4613
   78SLPC   O32 7115   2.428   0.531   5.235 -0.5062  0.2818 -0.0143
   78SLPC   C32 7116   2.520   0.537   5.020  0.2676 -0.2215  0.2384
   78SLPC   H2X 7117   2.446   0.455   5.009  0.5893 -1.1783  4.2994
   78SLPC   H2Y 7118   2.618   0.487   5.037  0.5044 -0.1615 -0.8892
   78SLPC   C23 7119   2.941   0.638   5.006 -0.2343  0.4273 -0.0850
   78SLPC   H3R 7120   2.856   0.687   4.954 -0.0626 -0.7364 -1.4989
   78SLPC   H3S 7121   2.924   0.528   5.003  1.6895  0.1129 -0.1737
   78SLPC   C24 7122   3.067   0.675   4.915  0.4664  0.6392  0.7968
   78SLPC   H4R 7123   3.147   0.611   4.959  1.2996 -1.2638 -3.1734
   78SLPC   H4S 7124   3.084   0.784   4.928 -0.0702  0.5771  2.0081
   78SLPC   C25 7125   3.060   0.633   4.766  0.1045 -0.4203 -0.2243
   78SLPC   H5R 7126   3.008   0.535   4.752  1.1901 -1.3478  2.0054
   78SLPC   H5S 7127   3.164   0.619   4.731  0.5251  3.6739 -0.8778
   78SLPC   C26 7128   2.980   0.728   4.677 -0.5013 -0.0469  0.4625
   78SLPC   H6R 7129   3.021   0.829   4.699 -1.0935  0.2580  0.1751
   78SLPC   H6S 7130   2.872   0.732   4.702 -0.1466  2.1789  1.7426
   78SLPC   C27 7131   3.007   0.703   4.529  0.3880  0.3086  0.0960
   78SLPC   H7R 7132   2.994   0.597   4.500  1.4952  0.3564 -0.6149
   78SLPC   H7S 7133   3.111   0.731   4.504  0.5834 -0.2154  0.3173
   78SLPC   C28 7134   2.916   0.790   4.440  0.2570 -0.4729  0.1608
   78SLPC   H8R 7135   2.940   0.898   4.455 -0.8642 -0.3360  1.0469
   78SLPC   H8S 7136   2.815   0.776   4.484  0.3112 -1.6067 -0.0664
   78SLPC   C29 7137   2.918   0.741   4.296  0.3416 -0.3405  0.0737
   78SLPC   H9R 7138   2.860   0.649   4.285  0.0131 -0.3200  1.5653
   78SLPC  C210 7139   2.976   0.793   4.188  0.7602  0.0051  0.1407
   78SLPC  H10R 7140   2.957   0.740   4.093 -2.0683 -0.7131  1.0503
   78SLPC  C211 7141   3.049   0.927   4.187  0.1405 -0.0029 -0.5860
   78SLPC  H11R 7142   2.975   1.008   4.198  2.1687  1.7365  0.6090
   78SLPC  H11S 7143   3.085   0.949   4.084  3.6501  1.6736  0.9230
   78SLPC  C212 7144   3.162   0.958   4.292  0.0854 -0.5262  0.4607
   78SLPC  H12R 7145   3.142   1.036   4.366 -1.4906 -0.3735 -0.1215
   78SLPC  C213 7146   3.286   0.908   4.292  0.1781 -0.1501 -0.4524
   78SLPC  H13R 7147   3.357   0.956   4.361 -3.0232 -0.0434  2.9334
   78SLPC  C214 7148   3.347   0.818   4.191 -0.2743 -0.0829  0.4590
   78SLPC  H14R 7149   3.280   0.797   4.105 -0.7735  1.3363  0.4879
   78SLPC  H14S 7150   3.365   0.719   4.239 -3.3595 -1.3351 -0.8460
   78SLPC  C215 7151   3.475   0.881   4.133  0.5624  1.0157  1.0186
   78SLPC  H15R 7152   3.451   0.981   4.091 -0.4963 -0.1777 -1.2926
   78SLPC  H15S 7153   3.512   0.806   4.059 -3.4342  0.8936 -0.9811
   78SLPC  C216 7154   3.594   0.913   4.230  0.2184 -0.4439 -0.2484
   78SLPC  H16R 7155   3.572   0.995   4.303  0.9976 -0.2957 -0.1759
   78SLPC  H16S 7156   3.682   0.954   4.176  0.7160 -0.6526  0.3957
   78SLPC  C217 7157   3.621   0.790   4.323  0.3288 -0.3216  0.0983
   78SLPC  H17R 7158   3.640   0.707   4.252 -1.4075 -1.3019  0.7494
   78SLPC  H17S 7159   3.528   0.765   4.378  0.7463 -1.7750  0.1564
   78SLPC  C218 7160   3.729   0.819   4.434 -0.2402  0.0353  0.1072
   78SLPC  H18R 7161   3.707   0.909   4.495 -1.1500 -0.8195  1.0830
   78SLPC  H18S 7162   3.830   0.841   4.393  0.8605 -1.1015  2.1264
   78SLPC  H18T 7163   3.738   0.735   4.506  0.1577 -1.0279 -1.1613
   78SLPC   C33 7164   2.535   0.628   4.887  1.1283 -0.5084 -0.2607
   78SLPC   H3X 7165   2.585   0.720   4.926  0.7768 -1.2225  1.9133
   78SLPC   H3Y 7166   2.436   0.656   4.845  2.5051  1.9565 -1.9848
   78SLPC   C34 7167   2.620   0.562   4.773  0.4083  0.1178  0.2973
   78SLPC   H4X 7168   2.714   0.519   4.814 -0.3048 -1.2157  0.5776
   78SLPC   H4Y 7169   2.640   0.646   4.703  0.5518  0.4232  0.7029
   78SLPC   C35 7170   2.541   0.448   4.705  0.5174  0.9381 -0.1624
   78SLPC   H5X 7171   2.457   0.498   4.653  0.5042 -2.1161 -3.2326
   78SLPC   H5Y 7172   2.509   0.361   4.766  2.9152 -0.4817 -0.8298
   78SLPC   C36 7173   2.629   0.388   4.598 -0.0309 -0.2618  0.6590
   78SLPC   H6X 7174   2.696   0.473   4.573  0.0539 -0.2204  1.0243
   78SLPC   H6Y 7175   2.580   0.371   4.499 -1.2029 -3.4756  1.7280
   78SLPC   C37 7176   2.733   0.276   4.633 -0.3208  0.5514 -0.0120
   78SLPC   H7X 7177   2.676   0.185   4.661 -0.7311  1.1115  0.9788
   78SLPC   H7Y 7178   2.801   0.301   4.717 -0.7271 -1.7915  1.0459
   78SLPC   C38 7179   2.821   0.240   4.512  0.2341  0.1444 -0.6349
   78SLPC   H8X 7180   2.819   0.329   4.445  1.6573  0.4117 -0.3419
   78SLPC   H8Y 7181   2.783   0.155   4.452 -0.6995  0.7827 -0.9482
   78SLPC   C39 7182   2.967   0.210   4.543 -0.1781 -0.2187  0.0626
   78SLPC   H9X 7183   2.972   0.110   4.592 -1.1905 -1.7569 -2.8959
   78SLPC   H9Y 7184   3.006   0.284   4.617  1.7009 -0.2388 -0.8882
   78SLPC  C310 7185   3.050   0.223   4.413 -0.2133  0.0743  0.1545
   78SLPC  H10X 7186   3.145   0.274   4.442 -0.2203 -0.3991  1.0343
   78SLPC  H10Y 7187   3.000   0.291   4.341 -1.4269  2.3022  2.9934
   78SLPC  C311 7188   3.095   0.089   4.347  0.4969  0.4758  0.0763
   78SLPC  H11X 7189   3.131   0.014   4.420 -0.3288 -2.4941 -2.4246
   78SLPC  H11Y 7190   3.173   0.111   4.271  0.2600  1.7451  0.1944
   78SLPC  C312 7191   2.971   0.015   4.286  0.5939  0.5518  0.3796
   78SLPC  H12X 7192   2.936   0.068   4.195 -0.5556  2.2521  1.7651
   78SLPC  H12Y 7193   2.879   0.010   4.348  0.2445  0.8495 -0.1116
   78SLPC  C313 7194   3.001  -0.135   4.253 -0.5877 -0.0170  0.3819
   78SLPC  H13X 7195   2.902  -0.173   4.221 -0.2685  0.5023 -1.2402
   78SLPC  H13Y 7196   3.037  -0.190   4.343 -0.5516 -1.2444 -0.3800
   78SLPC  C314 7197   3.086  -0.170   4.133  0.4744  0.1615  0.5717
   78SLPC  H14X 7198   3.062  -0.103   4.048 -0.3658 -1.1047 -0.2159
   78SLPC  H14Y 7199   3.061  -0.274   4.104  2.7071 -0.0824 -0.5738
   78SLPC  C315 7200   3.236  -0.180   4.165 -0.0633 -0.2102  0.0842
   78SLPC  H15X 7201   3.262  -0.271   4.223  2.1394 -0.8654 -1.8318
   78SLPC  H15Y 7202   3.269  -0.093   4.226  0.0253  0.2134 -0.5638
   78SLPC  C316 7203   3.319  -0.173   4.031  0.0863 -0.6889 -0.2328
   78SLPC  H16X 7204   3.296  -0.087   3.965  1.7586 -1.6063 -2.0780
   78SLPC  H16Y 7205   3.307  -0.254   3.955  1.9191 -0.2473 -1.0083
   78SLPC  C317 7206   3.466  -0.144   4.067  0.7023 -0.0732  0.0028
   78SLPC  H17X 7207   3.520  -0.229   4.113  0.5519  0.0866  0.4730
   78SLPC  H17Y 7208   3.476  -0.056   4.134 -2.3769  0.3496 -0.0198
   78SLPC  C318 7209   3.555  -0.099   3.947 -0.0928  0.2833 -0.5548
   78SLPC  H18X 7210   3.663  -0.090   3.975  0.0872 -0.9496 -0.8350
   78SLPC  H18Y 7211   3.520  -0.006   3.898 -1.3440  1.3809  2.3222
   78SLPC  H18Z 7212   3.558  -0.171   3.863 -2.9955  3.1592 -3.2749
   79SLPC     N 7213   7.135   3.823   5.669 -0.2585 -0.2572 -0.1429
   79SLPC   C13 7214   7.217   3.951   5.662 -0.0598  0.5188  0.0018
   79SLPC  H13A 7215   7.293   3.950   5.586 -0.1683  1.7257 -0.1229
   79SLPC  H13B 7216   7.154   4.037   5.644 -1.0883 -0.0771  0.6524
   79SLPC  H13C 7217   7.264   3.969   5.758  0.2875 -1.9635  0.3409
   79SLPC   C14 7218   7.228   3.722   5.712 -0.1948  0.1743  0.0144
   79SLPC  H14A 7219   7.308   3.720   5.640 -0.6807  2.2077 -0.6042
   79SLPC  H14B 7220   7.273   3.741   5.809  2.8835 -2.9051 -0.6863
   79SLPC  H14C 7221   7.172   3.629   5.716  0.7635 -0.4162 -0.0519
   79SLPC   C15 7222   7.081   3.784   5.540  0.6921 -0.2169 -0.5067
   79SLPC  H15A 7223   7.013   3.852   5.491  0.0786 -1.0121 -0.7882
   79SLPC  H15B 7224   7.159   3.768   5.467  1.4312 -0.1480  0.2627
   79SLPC  H15C 7225   7.022   3.693   5.547 -2.2239  1.7552  2.9246
   79SLPC   C12 7226   7.019   3.830   5.769  0.5740 -0.1498 -0.0495
   79SLPC  H12A 7227   7.067   3.867   5.859  0.4959 -1.2632  0.4580
   79SLPC  H12B 7228   6.984   3.729   5.765  0.4974 -0.1346  0.2253
   79SLPC   C11 7229   6.890   3.919   5.749 -0.5320  0.4081 -0.7019
   79SLPC  H11A 7230   6.818   3.885   5.827 -0.5371  4.1056  0.9687
   79SLPC  H11B 7231   6.836   3.904   5.652  0.6107 -0.0464 -1.2738
   79SLPC     P 7232   6.922   4.135   5.897 -0.4784 -0.5699  0.2304
   79SLPC   O13 7233   6.781   4.134   5.945 -0.5970  0.0490  0.2197
   79SLPC   O14 7234   7.027   4.079   5.985 -0.7589  0.0522 -0.1415
   79SLPC   O12 7235   6.926   4.051   5.763  0.0755 -1.0854 -0.5751
   79SLPC   O11 7236   6.959   4.290   5.858  0.3269 -0.0677  0.3379
   79SLPC    C1 7237   6.866   4.350   5.768 -0.4374 -0.1276 -0.2272
   79SLPC    HA 7238   6.778   4.289   5.738  0.5641 -1.5596 -0.2896
   79SLPC    HB 7239   6.823   4.442   5.812  0.3227  0.2500 -0.2686
   79SLPC    C2 7240   6.940   4.391   5.640 -0.5687  0.3065  0.0398
   79SLPC    HS 7241   6.879   4.461   5.580 -0.7513 -0.6447 -0.8925
   79SLPC   O21 7242   6.976   4.282   5.554 -0.4979  0.5455  0.0110
   79SLPC   C21 7243   6.872   4.234   5.484 -0.6292 -0.6660 -1.2184
   79SLPC   O22 7244   6.773   4.297   5.456  0.3202 -0.2222  0.0483
   79SLPC   C22 7245   6.922   4.090   5.432  0.2518  0.3060 -0.3179
   79SLPC   H2R 7246   6.974   4.042   5.518 -1.5571 -0.4490  0.3725
   79SLPC   H2S 7247   6.832   4.028   5.414 -0.5651  1.7038 -1.1732
   79SLPC    C3 7248   7.068   4.458   5.684 -0.4761 -0.9850  0.9195
   79SLPC    HX 7249   7.135   4.388   5.737  1.1557 -1.3281 -1.5004
   79SLPC    HY 7250   7.038   4.548   5.741 -2.6350 -0.3060 -1.1580
   79SLPC   O31 7251   7.139   4.504   5.560 -0.2164  0.0113  0.1786
   79SLPC   C31 7252   7.224   4.416   5.511  0.0656 -0.1335 -0.3970
   79SLPC   O32 7253   7.263   4.318   5.573  0.3481 -0.3855  0.4167
   79SLPC   C32 7254   7.257   4.440   5.367  0.4406 -0.0689  0.2640
   79SLPC   H2X 7255   7.285   4.547   5.350  0.9076 -0.2819 -0.3330
   79SLPC   H2Y 7256   7.155   4.426   5.325  0.0642  1.7215  0.5112
   79SLPC   C23 7257   7.007   4.090   5.302 -0.0557  0.6293  0.0222
   79SLPC   H3R 7258   7.109   4.124   5.330 -0.0764  0.9765 -0.3299
   79SLPC   H3S 7259   6.977   4.174   5.236 -0.1443  1.3754  0.9935
   79SLPC   C24 7260   7.018   3.953   5.237  0.2506 -0.6954 -0.0590
   79SLPC   H4R 7261   6.958   3.961   5.143 -0.2650  1.9875  0.4627
   79SLPC   H4S 7262   6.968   3.874   5.298  0.6991 -0.3073  0.8135
   79SLPC   C25 7263   7.154   3.923   5.180 -0.2559  0.3867 -0.0911
   79SLPC   H5R 7264   7.212   3.897   5.271  0.6206  1.1406 -0.4385
   79SLPC   H5S 7265   7.191   4.011   5.124 -0.6437  0.1148 -0.7901
   79SLPC   C26 7266   7.160   3.805   5.084  0.3013 -0.1731 -0.3483
   79SLPC   H6R 7267   7.137   3.715   5.144 -2.4976 -0.4208 -1.7313
   79SLPC   H6S 7268   7.270   3.803   5.068  0.2930  1.5990 -0.7669
   79SLPC   C27 7269   7.071   3.802   4.955 -0.9227 -0.1873 -0.3417
   79SLPC   H7R 7270   6.973   3.763   4.990 -0.7084 -0.5295 -0.1083
   79SLPC   H7S 7271   7.110   3.716   4.896  2.1489  1.2237 -0.4645
   79SLPC   C28 7272   7.080   3.929   4.883 -0.3692  0.1710 -0.6253
   79SLPC   H8R 7273   7.182   3.958   4.850  0.5674 -1.8907  0.3842
   79SLPC   H8S 7274   7.056   4.010   4.956 -0.1724  0.2939 -0.6980
   79SLPC   C29 7275   6.988   3.944   4.770  0.7495 -0.2018 -0.2257
   79SLPC   H9R 7276   6.894   4.001   4.780  1.0873  0.5373 -1.1790
   79SLPC  C210 7277   7.020   3.903   4.643  0.1255 -0.2455  0.0296
   79SLPC  H10R 7278   6.944   3.916   4.564  1.7784  2.4925 -1.1639
   79SLPC  C211 7279   7.148   3.837   4.612 -0.1897 -0.0605  0.1653
   79SLPC  H11R 7280   7.189   3.792   4.704 -2.3652 -1.4914  0.4724
   79SLPC  H11S 7281   7.225   3.910   4.577  0.8502 -1.2131  0.0150
   79SLPC  C212 7282   7.137   3.734   4.506  0.7623  0.0904 -0.3612
   79SLPC  H12R 7283   7.116   3.634   4.548 -0.6031 -0.4678 -2.2971
   79SLPC  C213 7284   7.173   3.727   4.379  0.3475 -0.2977 -0.1667
   79SLPC  H13R 7285   7.167   3.630   4.328 -0.8456 -0.6883  0.7002
   79SLPC  C214 7286   7.232   3.847   4.295  0.0289 -0.3275  0.2104
   79SLPC  H14R 7287   7.333   3.823   4.255 -0.1468 -0.5289 -0.1189
   79SLPC  H14S 7288   7.240   3.937   4.359 -3.1261 -0.2061  0.4881
   79SLPC  C215 7289   7.151   3.869   4.169 -0.2169 -0.2630  0.1831
   79SLPC  H15R 7290   7.049   3.900   4.202 -0.7246  1.1830 -2.5548
   79SLPC  H15S 7291   7.149   3.781   4.101 -0.8818  1.3612 -1.9853
   79SLPC  C216 7292   7.209   3.993   4.091  0.0426 -0.6295 -0.5007
   79SLPC  H16R 7293   7.319   3.989   4.075  0.1759  1.3261 -0.2159
   79SLPC  H16S 7294   7.180   4.082   4.150 -0.8109 -0.9669 -0.4056
   79SLPC  C217 7295   7.143   4.012   3.955 -0.4403  0.6811 -0.0906
   79SLPC  H17R 7296   7.044   4.059   3.968  0.0633  1.2302  1.8950
   79SLPC  H17S 7297   7.132   3.909   3.914  2.6699  0.6688 -1.0513
   79SLPC  C218 7298   7.220   4.104   3.862  0.2500  0.3666 -0.2561
   79SLPC  H18R 7299   7.212   4.211   3.888  0.2331 -0.3605  2.8510
   79SLPC  H18S 7300   7.189   4.102   3.755 -0.8592  0.2971  0.0711
   79SLPC  H18T 7301   7.329   4.081   3.861  0.4759  1.2549  2.2414
   79SLPC   C33 7302   7.346   4.339   5.286  0.0802  0.5543  0.5431
   79SLPC   H3X 7303   7.305   4.238   5.309 -0.6439  1.2010  2.1970
   79SLPC   H3Y 7304   7.451   4.339   5.321  0.9818  0.0897 -2.0635
   79SLPC   C34 7305   7.345   4.374   5.136 -0.7331 -0.0331  0.1717
   79SLPC   H4X 7306   7.396   4.472   5.123  1.0278 -1.0218 -0.5103
   79SLPC   H4Y 7307   7.239   4.391   5.109 -1.0738  0.2712  1.6525
   79SLPC   C35 7308   7.424   4.268   5.070 -0.7669  0.4854  0.1939
   79SLPC   H5X 7309   7.401   4.172   5.121  0.1436 -0.1829 -0.6289
   79SLPC   H5Y 7310   7.533   4.270   5.090 -0.4373 -0.5494 -1.4044
   79SLPC   C36 7311   7.382   4.237   4.929  0.1040  0.3166 -0.5283
   79SLPC   H6X 7312   7.370   4.334   4.876 -0.5065 -1.7495 -4.4171
   79SLPC   H6Y 7313   7.284   4.184   4.936 -0.3835  1.4145  1.1873
   79SLPC   C37 7314   7.496   4.161   4.860  0.4673  0.1526 -0.3258
   79SLPC   H7X 7315   7.521   4.076   4.926 -2.0285 -0.8515 -0.6343
   79SLPC   H7Y 7316   7.591   4.218   4.852 -1.0841  2.8874  0.0496
   79SLPC   C38 7317   7.449   4.107   4.720  0.1784  0.1948  0.2996
   79SLPC   H8X 7318   7.344   4.070   4.726 -0.0577  1.1147  2.2414
   79SLPC   H8Y 7319   7.511   4.019   4.692 -0.0437  0.6077 -1.5568
   79SLPC   C39 7320   7.456   4.202   4.595  0.4562 -0.4225  0.5282
   79SLPC   H9X 7321   7.567   4.206   4.588  0.4357  1.6083  0.9359
   79SLPC   H9Y 7322   7.412   4.302   4.616 -0.8856 -0.9181  0.1156
   79SLPC  C310 7323   7.402   4.137   4.468  0.7007 -0.2362  0.2291
   79SLPC  H10X 7324   7.292   4.150   4.472  0.8590  0.6527  2.9006
   79SLPC  H10Y 7325   7.436   4.031   4.467 -2.4858 -1.3055  0.0261
   79SLPC  C311 7326   7.455   4.190   4.332  0.0450 -0.2524  0.0735
   79SLPC  H11X 7327   7.406   4.288   4.315 -1.1284 -0.8251  0.0851
   79SLPC  H11Y 7328   7.416   4.134   4.244  0.5959 -1.1945  0.4230
   79SLPC  C312 7329   7.607   4.205   4.324  0.1704 -0.0824 -0.1554
   79SLPC  H12X 7330   7.652   4.114   4.367 -0.3647 -0.6091 -0.7075
   79SLPC  H12Y 7331   7.659   4.276   4.392 -4.6206  3.8250 -0.3003
   79SLPC  C313 7332   7.657   4.200   4.174 -0.2231  0.5738  0.1126
   79SLPC  H13X 7333   7.673   4.308   4.155  0.0920  0.5909  0.4539
   79SLPC  H13Y 7334   7.581   4.163   4.101 -0.5202  0.4697  0.4719
   79SLPC  C314 7335   7.791   4.121   4.160 -0.3756 -0.1262  0.3858
   79SLPC  H14X 7336   7.788   4.033   4.228 -2.1621 -1.4947 -1.3746
   79SLPC  H14Y 7337   7.871   4.192   4.187 -2.0079  1.3364  1.4620
   79SLPC  C315 7338   7.822   4.076   4.011 -0.2209 -0.3357  0.4771
   79SLPC  H15X 7339   7.748   3.998   3.982  0.9378 -0.7361 -1.4600
   79SLPC  H15Y 7340   7.923   4.033   4.026 -0.1054 -0.0950  0.3926
   79SLPC  C316 7341   7.831   4.183   3.903  0.4352 -0.0383 -0.2911
   79SLPC  H16X 7342   7.731   4.221   3.873 -0.1192 -1.3420 -0.1232
   79SLPC  H16Y 7343   7.866   4.122   3.817  0.6183  0.7699 -0.7997
   79SLPC  C317 7344   7.919   4.306   3.936  0.3246  0.9746  0.4686
   79SLPC  H17X 7345   7.868   4.367   4.014 -3.9875  0.9858 -2.1762
   79SLPC  H17Y 7346   7.917   4.370   3.845 -0.1308  0.1381 -0.1226
   79SLPC  C318 7347   8.066   4.267   3.960 -0.2130 -0.1850  0.8660
   79SLPC  H18X 7348   8.087   4.218   3.862 -0.7401  4.1977 -1.5566
   79SLPC  H18Y 7349   8.082   4.202   4.049 -2.2821 -0.6408  0.9168
   79SLPC  H18Z 7350   8.130   4.357   3.967 -1.4737  0.9229 -1.3950
   80SLPC     N 7351   5.757   6.851   5.727 -0.0125 -0.5355  0.3029
   80SLPC   C13 7352   5.631   6.854   5.805 -0.8720 -0.3416 -0.5792
   80SLPC  H13A 7353   5.617   6.769   5.870 -0.4739 -0.6001 -0.8298
   80SLPC  H13B 7354   5.626   6.944   5.865  3.0180 -1.4814  1.6433
   80SLPC  H13C 7355   5.545   6.858   5.740 -1.6004  1.3669  0.4497
   80SLPC   C14 7356   5.742   6.935   5.606  1.1257 -0.2198  0.3207
   80SLPC  H14A 7357   5.702   7.029   5.642  3.1869  0.2867  1.3767
   80SLPC  H14B 7358   5.832   6.948   5.548  0.6907  0.1074 -0.2878
   80SLPC  H14C 7359   5.669   6.892   5.539  2.6044 -1.4426 -0.5563
   80SLPC   C15 7360   5.788   6.705   5.693  0.4928  0.0805 -0.2232
   80SLPC  H15A 7361   5.702   6.656   5.650  0.0734  0.5424  0.0869
   80SLPC  H15B 7362   5.874   6.696   5.629  0.7350 -1.9839  0.3654
   80SLPC  H15C 7363   5.804   6.646   5.781 -1.9522  1.7557  1.3995
   80SLPC   C12 7364   5.868   6.898   5.821  0.4121  0.1367 -0.4826
   80SLPC  H12A 7365   5.966   6.884   5.779  1.2073 -1.4305  1.7916
   80SLPC  H12B 7366   5.872   6.834   5.908  3.4640 -0.0656 -0.7211
   80SLPC   C11 7367   5.858   7.045   5.859 -0.1031 -0.9805 -0.0339
   80SLPC  H11A 7368   5.889   7.098   5.767  2.4381  0.1152  1.3962
   80SLPC  H11B 7369   5.940   7.068   5.931  0.9652  2.0989 -2.1555
   80SLPC     P 7370   5.682   7.234   5.909  0.1923 -0.1605  0.1470
   80SLPC   O13 7371   5.534   7.239   5.934  0.1114  0.1843  0.2762
   80SLPC   O14 7372   5.772   7.294   6.010 -0.1893 -0.4307  0.3674
   80SLPC   O12 7373   5.731   7.084   5.903  0.2046 -0.9459  0.2443
   80SLPC   O11 7374   5.715   7.270   5.758 -0.3660  0.7658 -0.4383
   80SLPC    C1 7375   5.797   7.380   5.712  0.3737  0.5434  0.2585
   80SLPC    HA 7376   5.794   7.463   5.785 -1.6496 -0.3075  1.1949
   80SLPC    HB 7377   5.901   7.345   5.697 -0.9906 -3.1010 -1.3578
   80SLPC    C2 7378   5.730   7.432   5.585 -0.2957 -0.7844 -0.4891
   80SLPC    HS 7379   5.627   7.467   5.607 -0.2314 -0.8232 -0.1266
   80SLPC   O21 7380   5.737   7.330   5.482 -0.0491  0.2345 -0.8442
   80SLPC   C21 7381   5.617   7.316   5.418  0.0491  0.2625  0.3110
   80SLPC   O22 7382   5.521   7.392   5.442 -0.2935  0.3507  0.6704
   80SLPC   C22 7383   5.627   7.218   5.298  0.4294  0.4648  0.6886
   80SLPC   H2R 7384   5.685   7.259   5.212  0.3889 -1.1940 -0.1588
   80SLPC   H2S 7385   5.689   7.128   5.320  1.7633  0.9470 -0.9584
   80SLPC    C3 7386   5.806   7.561   5.537  0.5614  0.6917 -1.0669
   80SLPC    HX 7387   5.915   7.540   5.536  0.5029  0.0580  1.6275
   80SLPC    HY 7388   5.776   7.641   5.607 -0.1040  0.1998 -0.7930
   80SLPC   O31 7389   5.783   7.594   5.402 -0.4553  0.1948 -0.1901
   80SLPC   C31 7390   5.695   7.682   5.379 -0.3438  0.3665 -0.1200
   80SLPC   O32 7391   5.624   7.744   5.459  0.1666  0.1364 -0.1759
   80SLPC   C32 7392   5.679   7.710   5.233  0.2462 -0.2499 -0.2107
   80SLPC   H2X 7393   5.782   7.701   5.193  0.0528  1.1197 -1.0591
   80SLPC   H2Y 7394   5.651   7.817   5.225  0.4065 -0.2351 -0.5633
   80SLPC   C23 7395   5.497   7.165   5.247 -0.1855 -0.3566  1.0786
   80SLPC   H3R 7396   5.441   7.134   5.337 -0.5636  1.4678  1.4815
   80SLPC   H3S 7397   5.499   7.071   5.187  2.0399  0.5971 -0.3743
   80SLPC   C24 7398   5.419   7.266   5.162 -0.3969 -0.0333  0.3821
   80SLPC   H4R 7399   5.473   7.308   5.075  1.5700 -1.2281  0.9930
   80SLPC   H4S 7400   5.382   7.355   5.218 -0.4791 -0.8587  1.6595
   80SLPC   C25 7401   5.305   7.186   5.098  0.1977  0.5727 -0.6513
   80SLPC   H5R 7402   5.261   7.118   5.174  3.1583  0.0635  0.6606
   80SLPC   H5S 7403   5.344   7.129   5.011  1.2526  0.0500  0.1471
   80SLPC   C26 7404   5.201   7.278   5.035  0.1189  0.4202 -0.2590
   80SLPC   H6R 7405   5.256   7.365   4.991 -0.1518  1.7171  1.8910
   80SLPC   H6S 7406   5.143   7.321   5.119  1.3225 -0.2788  0.9486
   80SLPC   C27 7407   5.118   7.211   4.919 -0.4324 -0.3892 -0.2815
   80SLPC   H7R 7408   5.109   7.107   4.957 -0.7672 -0.1700  0.2380
   80SLPC   H7S 7409   5.179   7.208   4.826 -2.1189 -1.3144 -1.4014
   80SLPC   C28 7410   4.975   7.265   4.912 -0.2316  0.2840  0.9645
   80SLPC   H8R 7411   4.980   7.376   4.915  1.2698  0.2753 -0.6044
   80SLPC   H8S 7412   4.915   7.238   5.002 -2.4236 -0.3162 -0.6430
   80SLPC   C29 7413   4.906   7.230   4.779  0.0586  0.4219  0.2641
   80SLPC   H9R 7414   4.953   7.152   4.717  1.0457  1.6295 -0.5284
   80SLPC  C210 7415   4.810   7.311   4.734  0.3838 -0.2062 -0.0313
   80SLPC  H10R 7416   4.769   7.281   4.637  0.1983  1.4883 -0.4981
   80SLPC  C211 7417   4.744   7.432   4.794 -0.7838  0.5222  0.2088
   80SLPC  H11R 7418   4.801   7.511   4.740 -2.2304  0.9869 -0.6513
   80SLPC  H11S 7419   4.763   7.421   4.903  1.8446 -0.4794 -0.3019
   80SLPC  C212 7420   4.597   7.418   4.781  0.3214 -0.1250 -0.1732
   80SLPC  H12R 7421   4.540   7.354   4.849  2.3875 -3.2155 -1.2100
   80SLPC  C213 7422   4.523   7.459   4.678  0.0749 -0.0411  1.1820
   80SLPC  H13R 7423   4.415   7.448   4.698  0.0858 -2.9835 -0.0878
   80SLPC  C214 7424   4.562   7.525   4.547 -0.1029 -0.5072  0.4554
   80SLPC  H14R 7425   4.664   7.494   4.514  0.0295  0.4080 -0.0089
   80SLPC  H14S 7426   4.563   7.635   4.562  4.5350  0.1092 -2.9753
   80SLPC  C215 7427   4.453   7.489   4.445  0.8695  0.0903 -0.3545
   80SLPC  H15R 7428   4.476   7.549   4.354 -1.5989  0.7443 -0.5741
   80SLPC  H15S 7429   4.349   7.499   4.483  1.7259 -0.1223  2.0926
   80SLPC  C216 7430   4.454   7.344   4.404  0.2409 -0.5309  0.4635
   80SLPC  H16R 7431   4.505   7.281   4.480 -0.6032 -3.3657 -1.2465
   80SLPC  H16S 7432   4.520   7.341   4.314  0.0457 -1.4902  0.3463
   80SLPC  C217 7433   4.319   7.266   4.393 -0.2981  0.4192 -0.3901
   80SLPC  H17R 7434   4.256   7.293   4.480  0.2339  0.2249  0.0509
   80SLPC  H17S 7435   4.343   7.158   4.401  2.3768  1.0251  0.1448
   80SLPC  C218 7436   4.240   7.298   4.268 -0.3352 -0.0108  0.1007
   80SLPC  H18R 7437   4.285   7.251   4.177  1.2280  1.1982  0.2340
   80SLPC  H18S 7438   4.216   7.405   4.251  0.8751 -0.0227 -1.8884
   80SLPC  H18T 7439   4.141   7.250   4.284 -1.0252  1.6636  0.9510
   80SLPC   C33 7440   5.575   7.621   5.168 -0.0266  0.4914  0.5929
   80SLPC   H3X 7441   5.499   7.589   5.243  0.1226 -1.4804 -0.0892
   80SLPC   H3Y 7442   5.622   7.526   5.135  1.5763  1.2767  0.5690
   80SLPC   C34 7443   5.495   7.687   5.052 -0.5602  0.2396  0.5166
   80SLPC   H4X 7444   5.571   7.700   4.973  0.0242  0.9515  1.1943
   80SLPC   H4Y 7445   5.446   7.776   5.098 -2.1143  0.3074 -1.1796
   80SLPC   C35 7446   5.375   7.606   4.999 -0.3481  0.0499 -0.9406
   80SLPC   H5X 7447   5.312   7.585   5.089 -0.6665  0.1809 -1.1337
   80SLPC   H5Y 7448   5.405   7.504   4.970 -0.1153  0.7305 -3.1712
   80SLPC   C36 7449   5.306   7.674   4.882 -0.5383 -0.1166 -1.2142
   80SLPC   H6X 7450   5.264   7.764   4.932  1.7553 -0.3572  1.1952
   80SLPC   H6Y 7451   5.218   7.612   4.854 -0.3258 -1.0705  0.1699
   80SLPC   C37 7452   5.380   7.703   4.758 -0.5081 -0.3019  0.0388
   80SLPC   H7X 7453   5.438   7.616   4.723  0.3174  0.7467 -1.2492
   80SLPC   H7Y 7454   5.467   7.769   4.779  1.6928 -2.9813 -0.4512
   80SLPC   C38 7455   5.293   7.773   4.649 -0.1351 -0.6434  0.1320
   80SLPC   H8X 7456   5.359   7.803   4.565  0.5178 -1.7232  0.2460
   80SLPC   H8Y 7457   5.252   7.867   4.691 -0.4101  0.0369 -1.6228
   80SLPC   C39 7458   5.182   7.682   4.596 -0.5609  0.0344 -0.2232
   80SLPC   H9X 7459   5.118   7.649   4.682 -1.1989 -0.0396 -0.7204
   80SLPC   H9Y 7460   5.228   7.589   4.558  2.5080  1.3736  0.0628
   80SLPC  C310 7461   5.101   7.739   4.485  0.4323  0.2484 -1.0480
   80SLPC  H10X 7462   5.167   7.769   4.401 -1.2407  1.5651 -1.9105
   80SLPC  H10Y 7463   5.050   7.823   4.536  0.8203 -2.0570  3.4265
   80SLPC  C311 7464   4.983   7.642   4.432 -0.5369 -0.1054 -0.4721
   80SLPC  H11X 7465   4.912   7.649   4.517 -1.1342  0.4680 -1.0098
   80SLPC  H11Y 7466   5.024   7.539   4.432  0.4572  0.2902  1.0893
   80SLPC  C312 7467   4.915   7.675   4.304 -0.0145 -0.6121 -0.0656
   80SLPC  H12X 7468   4.866   7.774   4.307  0.9243 -0.0978 -1.2611
   80SLPC  H12Y 7469   4.839   7.604   4.266 -0.8109 -0.4218  1.1522
   80SLPC  C313 7470   5.010   7.682   4.173  0.0204 -0.2132 -0.0916
   80SLPC  H13X 7471   5.066   7.592   4.138  2.2503  0.6675  1.1398
   80SLPC  H13Y 7472   5.094   7.750   4.199  1.5539 -1.6673 -1.0865
   80SLPC  C314 7473   4.919   7.729   4.054 -0.3958  0.4635  0.5320
   80SLPC  H14X 7474   4.865   7.821   4.085 -2.0517 -0.6419  0.9648
   80SLPC  H14Y 7475   4.840   7.651   4.043 -0.1457  0.6507 -3.0700
   80SLPC  C315 7476   4.994   7.758   3.923  0.9126  0.1498 -0.5047
   80SLPC  H15X 7477   5.071   7.678   3.925  0.9595  0.0895 -2.9173
   80SLPC  H15Y 7478   5.030   7.863   3.927 -0.0114  0.4029  2.2993
   80SLPC  C316 7479   4.927   7.718   3.794  0.0600  0.0095  0.1341
   80SLPC  H16X 7480   4.867   7.808   3.769  0.6469  0.4920  0.4257
   80SLPC  H16Y 7481   4.850   7.638   3.800 -0.6173  0.7462  1.5570
   80SLPC  C317 7482   5.026   7.688   3.682 -0.6644  0.5400  0.2662
   80SLPC  H17X 7483   5.115   7.754   3.677 -0.4993  0.3413  0.5561
   80SLPC  H17Y 7484   4.972   7.706   3.587  2.1085 -0.7771 -1.5981
   80SLPC  C318 7485   5.088   7.547   3.682  0.1010  0.2251 -0.3108
   80SLPC  H18X 7486   5.010   7.470   3.666  1.8446 -2.6438  4.2703
   80SLPC  H18Y 7487   5.122   7.534   3.787  1.6335 -0.1820 -0.8512
   80SLPC  H18Z 7488   5.177   7.534   3.617  0.5546 -1.2890  0.5962
   81SLPC     N 7489   4.367   4.053   2.432  0.0990 -0.8287  0.0927
   81SLPC   C13 7490   4.472   4.086   2.543 -0.5099 -0.5255  0.8107
   81SLPC  H13A 7491   4.429   4.151   2.618  0.1382 -0.8294  1.4520
   81SLPC  H13B 7492   4.507   3.991   2.578  3.4680 -0.3521 -2.3219
   81SLPC  H13C 7493   4.560   4.136   2.505  0.2415 -2.1162  0.4176
   81SLPC   C14 7494   4.256   3.975   2.482  0.3692 -0.1763  0.3681
   81SLPC  H14A 7495   4.194   3.940   2.400 -0.5221  1.6019  0.2568
   81SLPC  H14B 7496   4.285   3.888   2.538  1.2776 -0.2568 -0.2132
   81SLPC  H14C 7497   4.197   4.044   2.541  0.6942 -1.3975  2.1596
   81SLPC   C15 7498   4.440   3.975   2.328  0.2239 -0.8585  0.1675
   81SLPC  H15A 7499   4.528   4.030   2.296 -1.9846  2.2019 -0.8677
   81SLPC  H15B 7500   4.474   3.877   2.359  2.7353  0.0364  0.3752
   81SLPC  H15C 7501   4.376   3.946   2.246  1.2795 -0.9997 -0.6336
   81SLPC   C12 7502   4.324   4.181   2.355 -0.6216 -0.8231 -0.6938
   81SLPC  H12A 7503   4.274   4.147   2.265 -0.7688 -0.1698 -0.8577
   81SLPC  H12B 7504   4.412   4.233   2.320  0.2702 -1.0021  1.2431
   81SLPC   C11 7505   4.219   4.270   2.424  0.3525  0.3734  0.1923
   81SLPC  H11A 7506   4.198   4.344   2.345 -0.7034 -1.3485 -1.1754
   81SLPC  H11B 7507   4.263   4.320   2.514  2.1760 -0.8563  0.0213
   81SLPC     P 7508   4.000   4.165   2.338 -0.2992  0.4116  0.3586
   81SLPC   O13 7509   3.927   4.286   2.304 -0.5567  0.2978 -0.3792
   81SLPC   O14 7510   4.065   4.090   2.230 -0.2453  0.4264 -0.0306
   81SLPC   O12 7511   4.101   4.196   2.451 -0.1064  0.0821 -0.6403
   81SLPC   O11 7512   3.899   4.064   2.398  0.0367  0.0696  0.4977
   81SLPC    C1 7513   3.791   4.103   2.484  0.3385 -0.7562  0.4269
   81SLPC    HA 7514   3.719   4.145   2.410  0.1923 -1.1962  0.3115
   81SLPC    HB 7515   3.747   4.006   2.515 -2.1341  0.3155  0.3923
   81SLPC    C2 7516   3.822   4.203   2.590 -0.3728 -0.4781 -0.0538
   81SLPC    HS 7517   3.834   4.298   2.534 -1.8101 -0.3212 -0.1265
   81SLPC   O21 7518   3.936   4.165   2.673 -0.0625 -0.3023 -0.0126
   81SLPC   C21 7519   3.990   4.270   2.724 -0.5004 -0.2705  0.6979
   81SLPC   O22 7520   3.959   4.388   2.710  0.0948 -0.1043 -0.1623
   81SLPC   C22 7521   4.119   4.218   2.785 -0.2404 -0.0533 -0.1092
   81SLPC   H2R 7522   4.088   4.127   2.841  0.2225 -0.4001 -0.4079
   81SLPC   H2S 7523   4.184   4.183   2.702 -1.0864 -1.4774 -0.1903
   81SLPC    C3 7524   3.686   4.221   2.679  0.0869 -0.0073  0.1129
   81SLPC    HX 7525   3.606   4.242   2.605 -1.1927 -0.0834  1.4525
   81SLPC    HY 7526   3.702   4.301   2.754  2.3102  0.1854 -0.5407
   81SLPC   O31 7527   3.646   4.100   2.741 -0.2314 -0.0561 -0.3148
   81SLPC   C31 7528   3.715   4.054   2.850 -0.3519 -0.6122 -0.8575
   81SLPC   O32 7529   3.804   4.106   2.911 -0.0811 -0.3246 -0.3352
   81SLPC   C32 7530   3.646   3.930   2.904  0.7779 -0.2333 -0.6319
   81SLPC   H2X 7531   3.668   3.841   2.842 -1.1476  0.1171 -1.8623
   81SLPC   H2Y 7532   3.535   3.943   2.903  0.8140  0.1324 -2.8913
   81SLPC   C23 7533   4.193   4.314   2.885 -0.2954  0.0256  0.8356
   81SLPC   H3R 7534   4.201   4.418   2.847  0.8516 -0.7030 -0.9912
   81SLPC   H3S 7535   4.299   4.279   2.891  0.0926  0.6114 -2.1165
   81SLPC   C24 7536   4.127   4.321   3.025  0.3438  0.0797  0.5319
   81SLPC   H4R 7537   4.033   4.376   3.004 -1.2878 -3.0627 -0.7878
   81SLPC   H4S 7538   4.191   4.387   3.086 -0.2727 -0.5522  1.8846
   81SLPC   C25 7539   4.099   4.197   3.102  0.0066  0.8189 -0.7429
   81SLPC   H5R 7540   4.181   4.123   3.114 -1.9051 -1.0724  1.2070
   81SLPC   H5S 7541   4.026   4.129   3.053  2.1210 -2.0276 -0.0739
   81SLPC   C26 7542   4.040   4.219   3.243 -0.0624 -0.2262 -0.1418
   81SLPC   H6R 7543   3.938   4.264   3.237 -0.1647 -0.6556 -2.0509
   81SLPC   H6S 7544   4.098   4.294   3.301  0.7783 -0.5287 -0.5876
   81SLPC   C27 7545   4.035   4.083   3.321  0.2782 -0.5338 -0.7044
   81SLPC   H7R 7546   4.134   4.039   3.343  0.7007  1.1004  0.7309
   81SLPC   H7S 7547   3.966   4.006   3.280 -0.0144 -1.1002  0.8030
   81SLPC   C28 7548   3.966   4.112   3.462  0.6823  0.3563  0.4334
   81SLPC   H8R 7549   3.874   4.166   3.434  1.5349  0.6493 -1.8486
   81SLPC   H8S 7550   4.038   4.180   3.513  0.1492  0.1166  1.5390
   81SLPC   C29 7551   3.946   3.978   3.539 -0.0299 -0.3142 -0.0747
   81SLPC   H9R 7552   3.848   3.929   3.548  1.2579 -2.6579  1.6475
   81SLPC  C210 7553   4.034   3.906   3.606 -0.4092 -0.0244 -0.5628
   81SLPC  H10R 7554   3.993   3.821   3.663  0.5443 -0.0267  0.1293
   81SLPC  C211 7555   4.184   3.924   3.618 -0.7161  0.6900 -0.4407
   81SLPC  H11R 7556   4.220   4.028   3.634  0.3480  0.0936  1.1125
   81SLPC  H11S 7557   4.230   3.902   3.519 -0.0586  0.5989 -0.1215
   81SLPC  C212 7558   4.238   3.836   3.730 -0.0620  0.7247  0.2889
   81SLPC  H12R 7559   4.176   3.840   3.821  0.4613  0.9773  0.6422
   81SLPC  C213 7560   4.354   3.768   3.738  0.1845  0.4025 -0.6761
   81SLPC  H13R 7561   4.369   3.719   3.835 -2.5571 -0.4214 -0.6079
   81SLPC  C214 7562   4.467   3.756   3.632  0.2693  0.1228  0.0973
   81SLPC  H14R 7563   4.549   3.822   3.669 -0.3871  0.5613  0.7913
   81SLPC  H14S 7564   4.441   3.807   3.537  1.6298 -1.7424 -1.2870
   81SLPC  C215 7565   4.507   3.605   3.611 -0.2438  0.1385  0.1874
   81SLPC  H15R 7566   4.536   3.557   3.707 -3.5298 -0.3101  1.0181
   81SLPC  H15S 7567   4.594   3.623   3.544 -0.2614  0.3985  0.2332
   81SLPC  C216 7568   4.393   3.508   3.551  0.3244  0.0407 -0.0389
   81SLPC  H16R 7569   4.347   3.563   3.467  1.3271  1.6742  0.4610
   81SLPC  H16S 7570   4.310   3.508   3.625  0.4923 -1.9091  0.1681
   81SLPC  C217 7571   4.444   3.369   3.511  0.5913  0.3319 -0.4821
   81SLPC  H17R 7572   4.360   3.299   3.533 -1.3641  2.6509 -0.4512
   81SLPC  H17S 7573   4.522   3.340   3.585 -1.1120 -0.0990  1.1899
   81SLPC  C218 7574   4.480   3.357   3.363  0.2897  0.1228  0.6714
   81SLPC  H18R 7575   4.483   3.252   3.326  0.0255  0.2780  0.1981
   81SLPC  H18S 7576   4.583   3.392   3.345  1.0534 -1.7529  1.3116
   81SLPC  H18T 7577   4.415   3.415   3.294  0.7762  2.4284  2.0858
   81SLPC   C33 7578   3.701   3.909   3.050  0.7898  0.3272  0.3853
   81SLPC   H3X 7579   3.698   4.005   3.105  0.0498 -0.3081  1.4777
   81SLPC   H3Y 7580   3.807   3.874   3.053  0.4590 -0.6244  1.4024
   81SLPC   C34 7581   3.624   3.807   3.135 -0.1324 -0.1953  0.0395
   81SLPC   H4X 7582   3.628   3.714   3.074  0.4139 -0.8402  1.0372
   81SLPC   H4Y 7583   3.523   3.849   3.151 -0.2402 -0.4299 -0.0173
   81SLPC   C35 7584   3.695   3.779   3.270  0.4732 -0.5331  0.0909
   81SLPC   H5X 7585   3.632   3.710   3.329 -0.9388 -1.0869 -2.0011
   81SLPC   H5Y 7586   3.703   3.876   3.325 -0.8714 -0.0399 -0.5652
   81SLPC   C36 7587   3.838   3.718   3.277 -0.4751  0.3544  0.9423
   81SLPC   H6X 7588   3.879   3.743   3.378 -0.7511  1.5054  0.7816
   81SLPC   H6Y 7589   3.905   3.763   3.202 -2.1428  0.0791 -0.7616
   81SLPC   C37 7590   3.842   3.567   3.261 -0.2069  0.2474 -0.3714
   81SLPC   H7X 7591   3.809   3.548   3.156  0.7351  0.9172 -0.7871
   81SLPC   H7Y 7592   3.779   3.514   3.336  1.4480  0.9218  1.5372
   81SLPC   C38 7593   3.981   3.506   3.274 -0.2221  0.0702  0.4028
   81SLPC   H8X 7594   4.065   3.544   3.211 -1.2766 -0.4602 -1.3762
   81SLPC   H8Y 7595   3.979   3.399   3.245  1.3232  0.7250 -2.4262
   81SLPC   C39 7596   4.032   3.511   3.420  0.5081  0.1837  0.3860
   81SLPC   H9X 7597   4.049   3.620   3.436  0.4334  0.9115 -3.9131
   81SLPC   H9Y 7598   4.130   3.460   3.431 -1.1002 -2.8471  1.2040
   81SLPC  C310 7599   3.940   3.465   3.536  0.0409 -0.0075 -0.6955
   81SLPC  H10X 7600   3.893   3.370   3.504 -0.9216  0.4173 -0.5465
   81SLPC  H10Y 7601   3.857   3.538   3.546 -0.6626 -0.7795 -0.9061
   81SLPC  C311 7602   4.018   3.445   3.661 -0.3085 -0.5056  0.5288
   81SLPC  H11X 7603   4.062   3.544   3.688  2.2579 -0.7696 -2.3339
   81SLPC  H11Y 7604   4.094   3.368   3.634 -0.3763  0.0857 -1.4142
   81SLPC  C312 7605   3.935   3.379   3.770 -0.0648 -0.2804  0.2503
   81SLPC  H12X 7606   3.897   3.284   3.727  1.1210 -0.9475  0.6495
   81SLPC  H12Y 7607   3.842   3.436   3.791  0.2293  0.7808 -1.1993
   81SLPC  C313 7608   4.021   3.344   3.892 -0.2830  0.2033 -0.4088
   81SLPC  H13X 7609   4.042   3.421   3.970  1.4563 -1.4076  0.7363
   81SLPC  H13Y 7610   4.111   3.294   3.852  0.4462 -0.9492  2.5374
   81SLPC  C314 7611   3.938   3.236   3.960 -0.2409 -1.0857 -0.1070
   81SLPC  H14X 7612   3.915   3.158   3.885  1.3695  0.5462 -2.3571
   81SLPC  H14Y 7613   3.844   3.283   3.996 -0.1272 -2.3628  1.9319
   81SLPC  C315 7614   4.008   3.179   4.089 -0.6361 -0.3716 -0.5632
   81SLPC  H15X 7615   3.993   3.236   4.183  1.3884 -0.8745  0.0857
   81SLPC  H15Y 7616   4.119   3.186   4.080 -0.8170  0.7911 -2.1834
   81SLPC  C316 7617   3.964   3.032   4.114  0.2259 -0.8726  0.3279
   81SLPC  H16X 7618   3.984   2.983   4.016 -1.3306 -1.2816  0.2137
   81SLPC  H16Y 7619   3.855   3.037   4.130 -0.0907 -1.3121 -1.6672
   81SLPC  C317 7620   4.037   2.956   4.224 -0.3778  0.2343  0.7120
   81SLPC  H17X 7621   4.146   2.971   4.210 -0.4334  0.2143  0.2424
   81SLPC  H17Y 7622   4.017   2.846   4.225 -0.0682  0.1703  0.3002
   81SLPC  C318 7623   4.016   2.995   4.370  0.8252 -0.2912 -0.6219
   81SLPC  H18X 7624   3.906   3.004   4.377  0.7896  0.3778 -1.9231
   81SLPC  H18Y 7625   4.070   3.086   4.402  0.5616  0.1423 -1.3888
   81SLPC  H18Z 7626   4.041   2.910   4.438 -0.3593 -0.5214 -0.4693
   82SLPC     N 7627   3.226   3.447   2.135  0.5399  0.1059  0.4050
   82SLPC   C13 7628   3.307   3.578   2.154 -0.1563  0.5401 -0.4100
   82SLPC  H13A 7629   3.252   3.670   2.135  1.1547  1.3042 -0.5515
   82SLPC  H13B 7630   3.326   3.572   2.260  0.0093 -0.1163 -0.4757
   82SLPC  H13C 7631   3.403   3.570   2.105  0.3585 -0.2847  0.7216
   82SLPC   C14 7632   3.312   3.330   2.189  0.2588 -0.0384  0.0186
   82SLPC  H14A 7633   3.257   3.239   2.201  0.2362  0.2246  2.1659
   82SLPC  H14B 7634   3.397   3.315   2.124  0.1518  0.2173 -0.1828
   82SLPC  H14C 7635   3.351   3.366   2.283  2.7665  1.1898 -1.4318
   82SLPC   C15 7636   3.203   3.432   1.990  0.2626  0.1140  1.0858
   82SLPC  H15A 7637   3.171   3.528   1.951  1.5827 -0.0400 -0.4448
   82SLPC  H15B 7638   3.295   3.406   1.939  0.0951  0.1331  0.7741
   82SLPC  H15C 7639   3.125   3.363   1.962  0.0017  0.7540  0.2015
   82SLPC   C12 7640   3.096   3.454   2.207  0.1259  0.3138  0.3508
   82SLPC  H12A 7641   3.042   3.362   2.192  0.1939 -0.1246  2.5470
   82SLPC  H12B 7642   3.038   3.531   2.157  1.0009  1.9465  1.7866
   82SLPC   C11 7643   3.090   3.486   2.354  0.9029  0.3604 -0.5007
   82SLPC  H11A 7644   3.165   3.426   2.410  3.9893  2.4242 -2.2494
   82SLPC  H11B 7645   2.987   3.471   2.393  1.4753  0.9219  1.2706
   82SLPC     P 7646   3.025   3.735   2.346  0.0660  0.2506  0.3117
   82SLPC   O13 7647   3.093   3.864   2.358  0.1005  0.3892  0.2984
   82SLPC   O14 7648   2.956   3.717   2.212 -0.1034 -0.2987  0.1392
   82SLPC   O12 7649   3.128   3.624   2.378 -0.3410  0.7068 -0.4476
   82SLPC   O11 7650   2.917   3.721   2.459 -0.4212 -0.0139  0.0561
   82SLPC    C1 7651   2.933   3.799   2.582 -0.2431  0.1601 -0.2016
   82SLPC    HA 7652   3.035   3.841   2.583  0.4334 -1.4538  2.3683
   82SLPC    HB 7653   2.870   3.891   2.582  0.9385  0.9876  1.6693
   82SLPC    C2 7654   2.912   3.720   2.714 -0.4055 -1.0010 -0.0325
   82SLPC    HS 7655   2.960   3.624   2.685  1.8672 -0.1719  0.8431
   82SLPC   O21 7656   2.774   3.708   2.745  0.0676 -0.6300 -0.3832
   82SLPC   C21 7657   2.747   3.596   2.812  0.9427 -1.1594  0.8518
   82SLPC   O22 7658   2.833   3.510   2.840 -0.1261 -0.1216 -0.7186
   82SLPC   C22 7659   2.604   3.595   2.854  0.5695 -0.0591  0.7805
   82SLPC   H2R 7660   2.609   3.617   2.963  1.3592 -1.8300  1.1211
   82SLPC   H2S 7661   2.547   3.673   2.800  0.8099  0.3061  1.0555
   82SLPC    C3 7662   2.979   3.776   2.842  0.1070  0.2208  0.3532
   82SLPC    HX 7663   3.090   3.768   2.831  0.1300  0.5117  0.3584
   82SLPC    HY 7664   2.972   3.723   2.939 -0.0008  1.3507  0.9726
   82SLPC   O31 7665   2.957   3.912   2.861  0.4598 -0.3211 -0.4318
   82SLPC   C31 7666   2.858   3.942   2.948  0.0705  0.2242 -0.3169
   82SLPC   O32 7667   2.790   3.858   3.000 -0.3856  0.2331 -0.6273
   82SLPC   C32 7668   2.842   4.096   2.951  0.9815 -0.3318  0.1642
   82SLPC   H2X 7669   2.858   4.134   2.848  0.5186 -0.8530 -0.1007
   82SLPC   H2Y 7670   2.927   4.137   3.009 -0.2449  0.9446  1.1083
   82SLPC   C23 7671   2.530   3.453   2.846 -0.4642 -0.9876 -0.2824
   82SLPC   H3R 7672   2.599   3.379   2.892 -0.4448 -0.7697  0.0450
   82SLPC   H3S 7673   2.520   3.444   2.736  2.6714  3.4810 -1.0930
   82SLPC   C24 7674   2.396   3.458   2.922 -0.4871  0.0512  0.2314
   82SLPC   H4R 7675   2.346   3.361   2.898  0.5099 -0.4809  0.2596
   82SLPC   H4S 7676   2.342   3.541   2.872 -0.3648  0.1130  0.2024
   82SLPC   C25 7677   2.399   3.481   3.075  0.7927 -0.0084  0.3093
   82SLPC   H5R 7678   2.304   3.438   3.114 -0.7758 -1.8156 -5.0141
   82SLPC   H5S 7679   2.387   3.590   3.089 -2.3756 -0.2528 -0.0558
   82SLPC   C26 7680   2.512   3.415   3.149  0.5566 -0.1447  0.5106
   82SLPC   H6R 7681   2.609   3.470   3.154  1.8375 -2.4553  1.6561
   82SLPC   H6S 7682   2.540   3.318   3.104 -3.0603 -1.5959  1.1853
   82SLPC   C27 7683   2.471   3.371   3.291 -0.2669  0.1549  0.5337
   82SLPC   H7R 7684   2.559   3.315   3.332  1.8790  0.6424 -3.2154
   82SLPC   H7S 7685   2.391   3.295   3.281  1.4431 -1.3985 -1.9401
   82SLPC   C28 7686   2.435   3.491   3.382 -0.2125  0.2130  0.1013
   82SLPC   H8R 7687   2.340   3.538   3.347 -1.7754  0.0040  3.8600
   82SLPC   H8S 7688   2.516   3.561   3.352  1.0051 -2.0220 -2.0065
   82SLPC   C29 7689   2.434   3.461   3.527 -0.9768 -0.2420  0.3979
   82SLPC   H9R 7690   2.346   3.404   3.558 -2.2724  2.1307  1.1856
   82SLPC  C210 7691   2.532   3.502   3.617 -0.4318  0.2112  0.2944
   82SLPC  H10R 7692   2.513   3.467   3.720 -1.9569  0.5310  0.1372
   82SLPC  C211 7693   2.662   3.581   3.596 -0.2501  0.7217  0.3474
   82SLPC  H11R 7694   2.679   3.659   3.673 -3.2458  1.9966 -0.2457
   82SLPC  H11S 7695   2.652   3.642   3.504 -0.2485  2.6388  1.6060
   82SLPC  C212 7696   2.792   3.498   3.584  0.6273 -0.0491  0.0570
   82SLPC  H12R 7697   2.799   3.449   3.486  1.8329  2.7187 -1.3107
   82SLPC  C213 7698   2.893   3.482   3.675 -0.0061  0.1785  0.0188
   82SLPC  H13R 7699   2.973   3.410   3.654  1.1895  1.6098 -0.4726
   82SLPC  C214 7700   2.886   3.525   3.816 -0.5204  0.5523  0.2196
   82SLPC  H14R 7701   2.834   3.453   3.883  2.8155 -0.8998  1.3865
   82SLPC  H14S 7702   2.838   3.622   3.841 -0.2555  1.0357 -1.1065
   82SLPC  C215 7703   3.026   3.541   3.883  0.1118 -0.5391 -0.3277
   82SLPC  H15R 7704   3.102   3.475   3.836 -0.8091 -0.9892 -1.2039
   82SLPC  H15S 7705   3.017   3.523   3.992 -0.7365  3.1028  0.2646
   82SLPC  C216 7706   3.078   3.681   3.870 -0.2921  0.2053 -0.4524
   82SLPC  H16R 7707   3.002   3.760   3.889  0.7496  1.3189 -0.8207
   82SLPC  H16S 7708   3.137   3.696   3.777 -0.7087  0.3000 -0.7057
   82SLPC  C217 7709   3.175   3.689   3.983 -0.3284 -0.7693 -0.1975
   82SLPC  H17R 7710   3.254   3.610   3.986  0.3229 -0.0964  0.5158
   82SLPC  H17S 7711   3.116   3.682   4.077  0.1203  1.3550  0.2599
   82SLPC  C218 7712   3.256   3.811   3.996 -0.1042  0.1171  0.7104
   82SLPC  H18R 7713   3.189   3.900   3.990  1.2666  1.0751 -0.6998
   82SLPC  H18S 7714   3.326   3.818   3.910 -0.2014 -2.9663  0.3309
   82SLPC  H18T 7715   3.322   3.809   4.084  0.9142  1.7674  0.0106
   82SLPC   C33 7716   2.708   4.138   3.015  0.2389 -0.5769 -0.3421
   82SLPC   H3X 7717   2.628   4.073   2.973 -0.9754 -0.6129  1.9336
   82SLPC   H3Y 7718   2.682   4.240   2.980  0.7178 -0.4143 -0.2340
   82SLPC   C34 7719   2.707   4.136   3.169 -0.1982 -0.4785 -0.9206
   82SLPC   H4X 7720   2.787   4.201   3.210  0.6724 -2.2397  0.1946
   82SLPC   H4Y 7721   2.729   4.034   3.205 -0.9044 -1.6435 -3.6312
   82SLPC   C35 7722   2.582   4.180   3.243 -0.1721 -0.0273  0.4491
   82SLPC   H5X 7723   2.551   4.120   3.331  0.8476  0.7549  1.3475
   82SLPC   H5Y 7724   2.502   4.164   3.167  2.3476  1.6021 -2.6358
   82SLPC   C36 7725   2.583   4.321   3.304  0.0336 -0.6308 -0.6184
   82SLPC   H6X 7726   2.477   4.350   3.323 -0.2093 -0.3739 -2.3408
   82SLPC   H6Y 7727   2.627   4.395   3.234 -0.9463  0.2186 -0.3554
   82SLPC   C37 7728   2.651   4.346   3.440 -0.6145 -0.2662  0.1286
   82SLPC   H7X 7729   2.758   4.323   3.426 -1.0057 -0.4459 -2.8881
   82SLPC   H7Y 7730   2.622   4.266   3.511 -0.2003 -1.6852 -1.2828
   82SLPC   C38 7731   2.645   4.486   3.496  0.0188  0.0193 -0.5175
   82SLPC   H8X 7732   2.539   4.516   3.511 -0.0280 -0.0800 -0.6528
   82SLPC   H8Y 7733   2.690   4.561   3.427 -0.6920  1.6904  0.7803
   82SLPC   C39 7734   2.715   4.505   3.637 -0.4525 -0.0725  0.3746
   82SLPC   H9X 7735   2.712   4.608   3.679 -0.5420  0.7490 -1.6280
   82SLPC   H9Y 7736   2.824   4.489   3.624 -0.9275 -2.2346 -1.4263
   82SLPC  C310 7737   2.667   4.405   3.747 -0.3931 -0.3239  0.0855
   82SLPC  H10X 7738   2.669   4.297   3.720 -0.9825 -0.9466  2.4038
   82SLPC  H10Y 7739   2.561   4.423   3.775  0.2787  0.3034  2.3184
   82SLPC  C311 7740   2.752   4.424   3.876  0.4550 -0.2608  0.2860
   82SLPC  H11X 7741   2.717   4.512   3.934 -0.0807 -1.7694  2.2998
   82SLPC  H11Y 7742   2.859   4.427   3.845 -0.3033 -2.3700 -2.7691
   82SLPC  C312 7743   2.758   4.326   3.989 -0.5412 -1.1721 -0.0896
   82SLPC  H12X 7744   2.672   4.333   4.060 -1.1808 -1.5239 -0.8247
   82SLPC  H12Y 7745   2.847   4.362   4.045  0.1530 -2.2337 -0.4913
   82SLPC  C313 7746   2.765   4.175   3.960 -0.1818  0.1326  0.3861
   82SLPC  H13X 7747   2.859   4.168   3.902 -0.1238 -0.1725  0.5134
   82SLPC  H13Y 7748   2.675   4.151   3.900  0.1437 -1.0654  0.3621
   82SLPC  C314 7749   2.766   4.085   4.083 -0.5633 -0.4951  0.6577
   82SLPC  H14X 7750   2.670   4.100   4.138 -0.8567 -0.3482  0.1080
   82SLPC  H14Y 7751   2.846   4.121   4.151  0.2668  0.0930 -0.6250
   82SLPC  C315 7752   2.778   3.934   4.058 -0.6914  0.6837  0.2338
   82SLPC  H15X 7753   2.878   3.925   4.012 -0.4924  0.3722  0.7145
   82SLPC  H15Y 7754   2.707   3.908   3.977  0.7579 -1.9791 -0.2467
   82SLPC  C316 7755   2.745   3.840   4.182  0.2480 -0.3447  0.2151
   82SLPC  H16X 7756   2.641   3.866   4.211 -0.1902 -0.0170 -1.6229
   82SLPC  H16Y 7757   2.821   3.866   4.259  0.9111 -0.1572 -0.5003
   82SLPC  C317 7758   2.761   3.684   4.156  0.2788  0.2261 -0.2972
   82SLPC  H17X 7759   2.867   3.651   4.166  0.4663  1.6012  3.0616
   82SLPC  H17Y 7760   2.704   3.670   4.062 -0.3663  2.4547 -0.2743
   82SLPC  C318 7761   2.696   3.614   4.279  0.0372 -0.2253  0.1708
   82SLPC  H18X 7762   2.598   3.665   4.291  0.2057  0.7478 -2.3210
   82SLPC  H18Y 7763   2.759   3.621   4.371  1.4353 -0.1431 -0.7798
   82SLPC  H18Z 7764   2.676   3.507   4.255 -1.8407  0.2529 -0.4819
   83SLPC     N 7765   3.823   5.974   2.141 -0.4050 -0.0818 -0.0971
   83SLPC   C13 7766   3.876   5.861   2.063 -0.4742  0.3868  0.0399
   83SLPC  H13A 7767   3.833   5.867   1.964 -0.8929  3.4699  0.3629
   83SLPC  H13B 7768   3.984   5.869   2.057 -0.2481 -0.4983  2.4012
   83SLPC  H13C 7769   3.844   5.768   2.108 -1.1982  0.0742 -1.0891
   83SLPC   C14 7770   3.858   6.102   2.080 -0.4469  0.0275 -0.4714
   83SLPC  H14A 7771   3.836   6.103   1.974 -2.1795  1.0385 -0.1309
   83SLPC  H14B 7772   3.802   6.182   2.127  0.2765  1.6212 -2.2723
   83SLPC  H14C 7773   3.960   6.134   2.088 -0.6514  0.2361  1.7883
   83SLPC   C15 7774   3.895   5.969   2.268  0.1053 -0.4440  0.2832
   83SLPC  H15A 7775   3.867   5.882   2.326 -1.3323  1.0297  1.8337
   83SLPC  H15B 7776   4.000   5.948   2.252  0.6647  1.9062  0.7071
   83SLPC  H15C 7777   3.878   6.060   2.323  3.5680  0.8580 -0.6579
   83SLPC   C12 7778   3.676   5.960   2.150 -0.0341 -0.2783 -0.1195
   83SLPC  H12A 7779   3.643   5.985   2.050  1.4812 -0.0356 -0.5724
   83SLPC  H12B 7780   3.641   6.037   2.219  0.2009 -2.6341  2.7221
   83SLPC   C11 7781   3.612   5.823   2.188 -0.8219  0.0194 -0.5948
   83SLPC  H11A 7782   3.638   5.753   2.106  3.7581  1.0639 -0.1969
   83SLPC  H11B 7783   3.502   5.840   2.192 -0.2704  3.5866  1.8155
   83SLPC     P 7784   3.680   5.621   2.338  0.2936  0.2486  0.0803
   83SLPC   O13 7785   3.550   5.553   2.317 -0.1194 -0.8458  0.4534
   83SLPC   O14 7786   3.791   5.567   2.252  0.0366  0.0939  0.2074
   83SLPC   O12 7787   3.666   5.775   2.307  0.2600 -0.1880 -0.2158
   83SLPC   O11 7788   3.723   5.621   2.489 -0.4483  0.1357 -0.3894
   83SLPC    C1 7789   3.839   5.559   2.542  0.3097 -0.4619  0.1747
   83SLPC    HA 7790   3.931   5.597   2.493 -0.0771  0.8483  0.4513
   83SLPC    HB 7791   3.842   5.587   2.650  2.1813  2.9097 -0.6790
   83SLPC    C2 7792   3.831   5.408   2.525  0.1839 -0.3540 -0.6594
   83SLPC    HS 7793   3.816   5.383   2.417  1.3713  3.1485 -1.6937
   83SLPC   O21 7794   3.718   5.364   2.600 -0.5100  0.5248 -0.5220
   83SLPC   C21 7795   3.694   5.245   2.604  0.7489  0.1743  0.7568
   83SLPC   O22 7796   3.737   5.152   2.536 -0.0710  0.1407  0.1003
   83SLPC   C22 7797   3.587   5.221   2.713  0.4319  1.0315 -0.4435
   83SLPC   H2R 7798   3.543   5.318   2.745 -0.3984  0.6760 -0.5025
   83SLPC   H2S 7799   3.508   5.167   2.658  0.8228  0.8143 -0.7921
   83SLPC    C3 7800   3.966   5.343   2.565 -1.1264 -0.6291 -0.0355
   83SLPC    HX 7801   4.033   5.411   2.508 -1.8886 -0.5198 -0.8146
   83SLPC    HY 7802   3.975   5.240   2.525  0.1590 -0.8245  0.7279
   83SLPC   O31 7803   3.989   5.351   2.709  0.6368  0.6382  0.0243
   83SLPC   C31 7804   4.114   5.326   2.749 -0.0422 -1.1270  0.1673
   83SLPC   O32 7805   4.211   5.321   2.679 -0.1067  0.3432  0.1161
   83SLPC   C32 7806   4.111   5.317   2.896  0.3236  0.1719 -0.4874
   83SLPC   H2X 7807   4.067   5.221   2.931  0.2780  0.5526  0.5326
   83SLPC   H2Y 7808   4.041   5.397   2.928 -1.7036 -1.8189  0.2053
   83SLPC   C23 7809   3.644   5.129   2.830 -0.0419 -0.5424  0.4751
   83SLPC   H3R 7810   3.721   5.057   2.794  1.8795  1.5184  0.3698
   83SLPC   H3S 7811   3.569   5.063   2.878 -1.0999 -0.4429 -0.9882
   83SLPC   C24 7812   3.705   5.222   2.943 -0.2960 -0.0302  0.3278
   83SLPC   H4R 7813   3.618   5.283   2.978 -0.8087 -0.3689 -0.3339
   83SLPC   H4S 7814   3.778   5.294   2.901 -0.2359  0.3174  1.0237
   83SLPC   C25 7815   3.776   5.139   3.056  0.3831 -0.4798  0.6116
   83SLPC   H5R 7816   3.872   5.182   3.091  0.8485 -1.5824  0.7292
   83SLPC   H5S 7817   3.814   5.043   3.015  0.2890  0.2951 -1.3418
   83SLPC   C26 7818   3.689   5.111   3.173  0.1529  0.7216  0.3208
   83SLPC   H6R 7819   3.597   5.061   3.136  0.4937 -1.3667  2.1559
   83SLPC   H6S 7820   3.663   5.207   3.223 -2.0596 -0.2015  1.0101
   83SLPC   C27 7821   3.762   5.032   3.281  0.6089  0.0805  0.2615
   83SLPC   H7R 7822   3.851   5.092   3.309 -0.0551  1.3500 -0.3175
   83SLPC   H7S 7823   3.798   4.934   3.242 -0.6915 -0.6312  0.8146
   83SLPC   C28 7824   3.679   4.996   3.404 -0.3435 -0.3265  0.7551
   83SLPC   H8R 7825   3.739   4.922   3.461 -0.0285  0.1920  1.1027
   83SLPC   H8S 7826   3.583   4.953   3.369 -1.3206  1.3163  1.3533
   83SLPC   C29 7827   3.658   5.117   3.489 -0.1526 -0.2571  0.9285
   83SLPC   H9R 7828   3.599   5.193   3.436  0.2140 -0.1945  0.6109
   83SLPC  C210 7829   3.702   5.153   3.607  0.8385  0.7211  0.9857
   83SLPC  H10R 7830   3.659   5.248   3.643 -1.8209  0.0320 -0.2520
   83SLPC  C211 7831   3.782   5.072   3.702  0.1628 -0.8165  0.4853
   83SLPC  H11R 7832   3.783   4.971   3.655 -1.7261  0.3123 -2.0678
   83SLPC  H11S 7833   3.740   5.043   3.801  0.0421 -3.8343 -0.3840
   83SLPC  C212 7834   3.913   5.123   3.743 -0.3241 -0.2585  0.2604
   83SLPC  H12R 7835   3.921   5.208   3.812 -0.3365  0.0663 -0.1363
   83SLPC  C213 7836   4.032   5.084   3.695  0.0081 -0.0389 -0.0952
   83SLPC  H13R 7837   4.123   5.134   3.734 -1.3368  1.1023  1.6348
   83SLPC  C214 7838   4.066   4.978   3.582 -0.0130  0.3052  0.1679
   83SLPC  H14R 7839   4.018   5.010   3.486  0.8149 -0.4064 -0.4878
   83SLPC  H14S 7840   4.015   4.882   3.603 -0.4854  0.2786 -1.0435
   83SLPC  C215 7841   4.206   4.932   3.551  0.2204 -0.6064  0.2434
   83SLPC  H15R 7842   4.213   4.868   3.461 -0.9328 -1.6935  0.8975
   83SLPC  H15S 7843   4.233   4.861   3.633 -1.0950 -2.0949 -0.5831
   83SLPC  C216 7844   4.315   5.041   3.534  1.4149 -0.2769  0.1927
   83SLPC  H16R 7845   4.317   5.104   3.625  0.2288  0.2310 -0.1168
   83SLPC  H16S 7846   4.294   5.113   3.452  1.3942 -0.0620  0.3862
   83SLPC  C217 7847   4.452   4.978   3.501  0.0729  0.2260  0.1359
   83SLPC  H17R 7848   4.521   5.065   3.505 -0.9330  1.0427 -0.0603
   83SLPC  H17S 7849   4.458   4.939   3.397 -2.0886  0.0502  0.0631
   83SLPC  C218 7850   4.503   4.886   3.614  0.3854 -0.0229  0.0732
   83SLPC  H18R 7851   4.506   4.931   3.716 -2.6467  0.7245 -0.1471
   83SLPC  H18S 7852   4.608   4.855   3.591  0.6402  1.3493 -0.6777
   83SLPC  H18T 7853   4.439   4.797   3.628 -0.3785  0.6463  0.8466
   83SLPC   C33 7854   4.242   5.347   2.966  0.2020 -0.0383 -0.6158
   83SLPC   H3X 7855   4.270   5.455   2.963  0.7004 -0.0618  1.9186
   83SLPC   H3Y 7856   4.331   5.289   2.934 -0.1439 -1.4857  0.9484
   83SLPC   C34 7857   4.236   5.315   3.117  0.2110  0.3331  0.4967
   83SLPC   H4X 7858   4.334   5.327   3.169  0.9373 -1.2104 -0.4594
   83SLPC   H4Y 7859   4.205   5.209   3.125  1.3071  0.1846  3.2216
   83SLPC   C35 7860   4.121   5.399   3.187 -0.1805  0.7610  0.2240
   83SLPC   H5X 7861   4.026   5.385   3.131 -0.0791 -0.8439  0.4264
   83SLPC   H5Y 7862   4.154   5.505   3.181  0.5640  0.5582  0.7332
   83SLPC   C36 7863   4.103   5.355   3.332 -0.4106  0.5494 -0.6879
   83SLPC   H6X 7864   4.200   5.348   3.384 -1.3034 -2.4267  0.6728
   83SLPC   H6Y 7865   4.075   5.248   3.329  0.6283  0.2638 -0.2562
   83SLPC   C37 7866   4.004   5.440   3.402  0.0385  0.0360 -0.5759
   83SLPC   H7X 7867   3.901   5.420   3.368  0.1397  0.4396 -1.1204
   83SLPC   H7Y 7868   4.026   5.545   3.373  0.3622  0.2717  0.5056
   83SLPC   C38 7869   4.001   5.435   3.553  0.0033  0.1909 -0.0705
   83SLPC   H8X 7870   4.108   5.440   3.581 -0.3484  0.2052  1.3068
   83SLPC   H8Y 7871   3.957   5.346   3.603  0.9754  0.2407  0.8921
   83SLPC   C39 7872   3.930   5.559   3.618  1.1524 -0.2629 -0.3843
   83SLPC   H9X 7873   3.823   5.539   3.597  1.4478 -3.1712  0.6112
   83SLPC   H9Y 7874   3.960   5.650   3.562  1.1442 -0.8436 -1.3363
   83SLPC  C310 7875   3.962   5.576   3.767 -0.6904  0.0582 -0.3158
   83SLPC  H10X 7876   3.935   5.680   3.796  0.6621 -0.0375  1.3836
   83SLPC  H10Y 7877   4.066   5.547   3.792 -0.9155  0.5656  1.3249
   83SLPC  C311 7878   3.869   5.496   3.859 -0.0408 -0.4730 -0.7196
   83SLPC  H11X 7879   3.864   5.387   3.839  1.3946 -1.1553  2.2803
   83SLPC  H11Y 7880   3.767   5.533   3.835 -1.0368 -3.6009 -1.4598
   83SLPC  C312 7881   3.892   5.520   4.010 -0.4863 -0.5624  0.4375
   83SLPC  H12X 7882   3.820   5.450   4.057 -2.2362  0.1292 -1.1584
   83SLPC  H12Y 7883   3.844   5.619   4.027 -0.2803 -0.7516  2.2574
   83SLPC  C313 7884   4.026   5.498   4.077  0.8159  0.1089  0.3815
   83SLPC  H13X 7885   4.014   5.506   4.187  0.3208  0.6118  0.2964
   83SLPC  H13Y 7886   4.092   5.582   4.045 -1.4124  0.9182 -2.2947
   83SLPC  C314 7887   4.081   5.358   4.034 -0.3546 -0.6467  0.4558
   83SLPC  H14X 7888   4.092   5.351   3.924 -0.5679 -3.8259  0.5712
   83SLPC  H14Y 7889   3.999   5.289   4.064 -1.1179  0.0419 -0.0402
   83SLPC  C315 7890   4.209   5.319   4.103  0.3510  0.4265 -0.5234
   83SLPC  H15X 7891   4.241   5.219   4.069 -1.1244 -1.0970  2.4177
   83SLPC  H15Y 7892   4.185   5.315   4.212 -1.7957  1.9967 -0.9110
   83SLPC  C316 7893   4.320   5.422   4.075 -0.0140 -0.1426  0.7358
   83SLPC  H16X 7894   4.325   5.509   4.144 -0.4065  1.2550 -0.9672
   83SLPC  H16Y 7895   4.316   5.457   3.970  0.3882  3.8933  1.9653
   83SLPC  C317 7896   4.459   5.358   4.078 -0.0328 -0.2626  0.0351
   83SLPC  H17X 7897   4.517   5.404   3.995 -1.2464  1.5972  0.1797
   83SLPC  H17Y 7898   4.460   5.251   4.049 -0.4849 -0.4947  0.8568
   83SLPC  C318 7899   4.543   5.378   4.209  0.2856  0.4989  0.5621
   83SLPC  H18X 7900   4.488   5.319   4.286 -1.8519 -1.2842 -2.2419
   83SLPC  H18Y 7901   4.536   5.480   4.252  1.1458  1.0023 -0.4735
   83SLPC  H18Z 7902   4.639   5.322   4.205 -0.9590 -1.6531 -0.0958
   84SLPC     N 7903   0.452   1.994   2.219  0.5222  0.0534  0.0292
   84SLPC   C13 7904   0.496   2.136   2.184 -0.1144  0.3075 -0.1035
   84SLPC  H13A 7905   0.471   2.163   2.083 -1.6251 -0.5585  0.0164
   84SLPC  H13B 7906   0.458   2.214   2.248  1.4139 -0.4529  1.8058
   84SLPC  H13C 7907   0.603   2.147   2.190  0.0042  1.3973 -3.3315
   84SLPC   C14 7908   0.537   1.889   2.146  0.3035  0.0706 -0.0646
   84SLPC  H14A 7909   0.642   1.912   2.154  0.6937 -1.8844  0.8225
   84SLPC  H14B 7910   0.506   1.792   2.182 -2.5067  0.3542 -1.5676
   84SLPC  H14C 7911   0.518   1.897   2.040 -2.8227  2.6917  0.6131
   84SLPC   C15 7912   0.310   1.985   2.164 -0.0650  0.7291 -0.4151
   84SLPC  H15A 7913   0.280   1.882   2.178 -1.3764  1.1594  0.0041
   84SLPC  H15B 7914   0.236   2.049   2.211 -1.3066 -1.1568  0.2831
   84SLPC  H15C 7915   0.315   1.998   2.057  1.5258  0.3518 -0.3948
   84SLPC   C12 7916   0.453   1.972   2.362 -0.8222  1.0383  0.5256
   84SLPC  H12A 7917   0.545   2.011   2.402 -0.0940 -0.9053  0.7769
   84SLPC  H12B 7918   0.453   1.867   2.383  0.8081  0.9370  0.0955
   84SLPC   C11 7919   0.331   2.029   2.436  0.2994  0.1812  0.0567
   84SLPC  H11A 7920   0.338   2.006   2.544 -0.1848 -0.1672  0.0169
   84SLPC  H11B 7921   0.242   1.967   2.411  0.5981 -0.6907  1.1539
   84SLPC     P 7922   0.407   2.265   2.511 -0.4437 -0.5963 -0.3771
   84SLPC   O13 7923   0.538   2.206   2.526 -0.8738 -0.0372 -0.2667
   84SLPC   O14 7924   0.407   2.408   2.468 -0.5373 -0.3529  0.0219
   84SLPC   O12 7925   0.320   2.173   2.416 -0.2962 -0.1619  0.3313
   84SLPC   O11 7926   0.323   2.254   2.642  0.2832  0.2327 -0.1381
   84SLPC    C1 7927   0.367   2.241   2.769  0.1488 -0.3744  0.6761
   84SLPC    HA 7928   0.287   2.205   2.838 -0.2708 -1.1677 -0.2196
   84SLPC    HB 7929   0.449   2.167   2.780  2.4488  2.0589  0.3433
   84SLPC    C2 7930   0.430   2.376   2.815 -0.4267  0.3296 -0.0222
   84SLPC    HS 7931   0.376   2.458   2.763 -4.1342 -0.9497  1.6270
   84SLPC   O21 7932   0.571   2.371   2.800 -0.3491  0.4804  0.1770
   84SLPC   C21 7933   0.624   2.490   2.805  0.3151  0.0807  0.2324
   84SLPC   O22 7934   0.563   2.595   2.800  0.4121  0.4732 -0.1248
   84SLPC   C22 7935   0.780   2.476   2.786  0.0717  0.3272  0.3948
   84SLPC   H2R 7936   0.780   2.391   2.714  2.7103 -0.2247  0.9951
   84SLPC   H2S 7937   0.804   2.570   2.734 -2.6113  0.2586 -1.0626
   84SLPC    C3 7938   0.410   2.387   2.966 -0.2776  0.3914  0.2997
   84SLPC    HX 7939   0.303   2.370   2.987 -0.7431  1.7499 -0.8910
   84SLPC    HY 7940   0.441   2.489   2.998 -0.4880 -0.1951  2.4526
   84SLPC   O31 7941   0.485   2.281   3.032 -0.0812  0.3850 -0.1116
   84SLPC   C31 7942   0.563   2.320   3.131  0.0760 -0.4379 -0.1693
   84SLPC   O32 7943   0.571   2.432   3.180 -0.6959 -0.3944  0.3167
   84SLPC   C32 7944   0.643   2.196   3.180 -0.0601  0.0391  0.4735
   84SLPC   H2X 7945   0.742   2.229   3.218  0.0723  1.1951 -0.8215
   84SLPC   H2Y 7946   0.662   2.131   3.092  1.5221  0.9517  0.1258
   84SLPC   C23 7947   0.871   2.451   2.908  0.4587  0.0513 -0.5652
   84SLPC   H3R 7948   0.978   2.454   2.879  0.2868  1.0048 -1.1100
   84SLPC   H3S 7949   0.853   2.354   2.959  1.7895 -0.0170 -0.2028
   84SLPC   C24 7950   0.863   2.562   3.014  0.2819  0.4853  0.0870
   84SLPC   H4R 7951   0.757   2.561   3.048  0.1944  1.2218 -0.1691
   84SLPC   H4S 7952   0.890   2.662   2.975  2.2455  0.2311  0.7356
   84SLPC   C25 7953   0.949   2.520   3.135 -0.0683  0.5821 -0.8741
   84SLPC   H5R 7954   1.059   2.538   3.132 -0.2024  1.4817 -0.5694
   84SLPC   H5S 7955   0.935   2.410   3.136  1.1502  0.4183 -0.7293
   84SLPC   C26 7956   0.888   2.579   3.263 -0.2622 -0.8219  0.2411
   84SLPC   H6R 7957   0.779   2.573   3.243 -0.2519 -2.0864  0.5557
   84SLPC   H6S 7958   0.914   2.687   3.275  1.4079 -1.5421  3.9368
   84SLPC   C27 7959   0.917   2.495   3.385 -0.1918  0.2246 -0.3319
   84SLPC   H7R 7960   0.895   2.388   3.365 -0.0687 -0.1577  1.4977
   84SLPC   H7S 7961   0.849   2.526   3.467  2.9520  2.3450  1.5998
   84SLPC   C28 7962   1.062   2.499   3.431 -0.0500 -0.0417 -0.1773
   84SLPC   H8R 7963   1.126   2.452   3.354  0.1260 -1.0277  0.5631
   84SLPC   H8S 7964   1.072   2.433   3.519  0.7574 -1.9763 -1.6994
   84SLPC   C29 7965   1.119   2.637   3.447 -0.9926 -0.1275 -0.1702
   84SLPC   H9R 7966   1.105   2.698   3.356  1.1232  0.2050 -0.2889
   84SLPC  C210 7967   1.177   2.696   3.561  0.6811  0.2909  0.1440
   84SLPC  H10R 7968   1.217   2.798   3.559 -0.8902  0.9292 -0.2783
   84SLPC  C211 7969   1.206   2.627   3.690  0.0489  0.1019 -0.0384
   84SLPC  H11R 7970   1.310   2.594   3.671 -0.9186 -1.9829 -1.9952
   84SLPC  H11S 7971   1.144   2.535   3.693 -1.0961  0.8631  0.2748
   84SLPC  C212 7972   1.203   2.697   3.823 -0.1168  0.8030  1.2174
   84SLPC  H12R 7973   1.238   2.801   3.815  5.1576 -0.9230 -0.2408
   84SLPC  C213 7974   1.156   2.662   3.946 -0.4591  0.1682 -0.6977
   84SLPC  H13R 7975   1.174   2.736   4.025  0.2068 -1.8382  1.0804
   84SLPC  C214 7976   1.095   2.524   3.977  0.2775 -0.5355  0.6095
   84SLPC  H14R 7977   1.113   2.448   3.898  0.0014  0.0065  0.0229
   84SLPC  H14S 7978   0.985   2.534   3.984  0.4018  0.5032  1.2239
   84SLPC  C215 7979   1.147   2.473   4.113  0.2669  0.2430  1.3089
   84SLPC  H15R 7980   1.257   2.490   4.121  0.5750 -2.1204  2.5153
   84SLPC  H15S 7981   1.128   2.364   4.107  1.2238  0.1840 -1.6634
   84SLPC  C216 7982   1.072   2.526   4.245  0.1793  0.3327  0.2585
   84SLPC  H16R 7983   0.973   2.478   4.231  1.1422 -0.9328 -2.8435
   84SLPC  H16S 7984   1.060   2.636   4.244 -2.2542  0.0969 -0.0817
   84SLPC  C217 7985   1.142   2.481   4.366  0.1652 -0.8316  0.1078
   84SLPC  H17R 7986   1.248   2.511   4.383  0.8294 -2.7002 -0.6347
   84SLPC  H17S 7987   1.147   2.371   4.356 -0.2139 -0.6941 -1.8351
   84SLPC  C218 7988   1.076   2.511   4.508 -0.0289 -0.0422 -0.2071
   84SLPC  H18R 7989   1.122   2.458   4.594  0.2119  1.3136  0.5128
   84SLPC  H18S 7990   0.971   2.482   4.491 -0.1284 -0.1742  0.6121
   84SLPC  H18T 7991   1.063   2.619   4.532  1.9276  0.5146 -1.4469
   84SLPC   C33 7992   0.554   2.126   3.284 -0.0989 -0.0837  0.1531
   84SLPC   H3X 7993   0.596   2.027   3.311 -0.2749 -0.2743 -0.2584
   84SLPC   H3Y 7994   0.447   2.117   3.256 -0.4740 -0.7623  1.7503
   84SLPC   C34 7995   0.573   2.200   3.416  0.2810 -0.5687 -0.1094
   84SLPC   H4X 7996   0.539   2.306   3.420 -0.6711 -0.8829  0.0825
   84SLPC   H4Y 7997   0.682   2.218   3.426  0.2510  0.0898 -0.9583
   84SLPC   C35 7998   0.513   2.138   3.538  0.7594  0.2349  0.1914
   84SLPC   H5X 7999   0.529   2.028   3.539 -0.2088  0.0943  1.2671
   84SLPC   H5Y 8000   0.403   2.149   3.526  0.9602  0.5804 -1.3768
   84SLPC   C36 8001   0.542   2.214   3.671 -0.6769 -0.2504  0.0761
   84SLPC   H6X 8002   0.475   2.173   3.750 -2.3069  0.8792 -0.6808
   84SLPC   H6Y 8003   0.533   2.325   3.661 -0.0766 -0.0761  1.3592
   84SLPC   C37 8004   0.678   2.175   3.726 -0.0003 -0.6796  0.2835
   84SLPC   H7X 8005   0.748   2.202   3.644 -0.3044 -0.3286  0.1397
   84SLPC   H7Y 8006   0.703   2.067   3.734  1.4450 -0.6397 -2.8185
   84SLPC   C38 8007   0.706   2.250   3.856 -0.8535  0.2875  0.6940
   84SLPC   H8X 8008   0.812   2.240   3.887 -1.0178 -0.6044  0.9787
   84SLPC   H8Y 8009   0.637   2.213   3.935 -1.5107 -0.4607 -0.2188
   84SLPC   C39 8010   0.699   2.406   3.848  0.2187  0.9761 -0.1292
   84SLPC   H9X 8011   0.764   2.446   3.929  1.4390 -3.2831  1.0920
   84SLPC   H9Y 8012   0.596   2.443   3.867 -0.0967 -0.0198  0.1296
   84SLPC  C310 8013   0.756   2.473   3.722  0.8316  0.4033  0.3987
   84SLPC  H10X 8014   0.713   2.449   3.623  2.2564  0.5926 -0.2735
   84SLPC  H10Y 8015   0.866   2.456   3.729  0.6748 -1.1099 -0.5202
   84SLPC  C311 8016   0.723   2.628   3.718 -0.1970  0.2011 -0.5442
   84SLPC  H11X 8017   0.612   2.624   3.728  0.0468 -4.5142  1.8850
   84SLPC  H11Y 8018   0.753   2.671   3.620  0.3441 -0.7573 -0.8021
   84SLPC  C312 8019   0.785   2.707   3.835  0.7805  0.5709  0.1498
   84SLPC  H12X 8020   0.896   2.710   3.824  0.9842  0.7286  2.0288
   84SLPC  H12Y 8021   0.767   2.662   3.935 -0.5508  1.4387  0.3113
   84SLPC  C313 8022   0.718   2.849   3.848  0.1371  0.4813  0.3602
   84SLPC  H13X 8023   0.607   2.849   3.858  0.3403  1.5016  2.8943
   84SLPC  H13Y 8024   0.733   2.893   3.747  0.0055  0.0108  0.1325
   84SLPC  C314 8025   0.772   2.924   3.960 -0.5152 -0.4374  0.2991
   84SLPC  H14X 8026   0.759   2.865   4.053 -0.0768  0.6351  1.0367
   84SLPC  H14Y 8027   0.699   3.004   3.984  0.1752 -0.5990  3.1231
   84SLPC  C315 8028   0.917   2.974   3.932  0.3410 -0.1225 -0.2436
   84SLPC  H15X 8029   0.925   3.035   3.839  2.7295  1.1869  0.7978
   84SLPC  H15Y 8030   0.962   2.876   3.904 -0.5281  0.0050 -2.1945
   84SLPC  C316 8031   0.983   3.046   4.054 -0.3249 -0.2936  0.0112
   84SLPC  H16X 8032   0.923   3.137   4.073  0.1772 -0.0647  0.5095
   84SLPC  H16Y 8033   1.086   3.075   4.023 -0.3567 -2.2679 -2.0674
   84SLPC  C317 8034   0.981   2.962   4.184  0.2029 -0.7280  0.4648
   84SLPC  H17X 8035   0.986   2.854   4.162  0.4904 -0.6868  0.3365
   84SLPC  H17Y 8036   0.879   2.972   4.227 -0.2193 -4.2216  0.3545
   84SLPC  C318 8037   1.082   3.004   4.294 -0.1858 -0.2659 -0.0035
   84SLPC  H18X 8038   1.088   3.114   4.304  1.7513 -0.4088  0.6736
   84SLPC  H18Y 8039   1.184   2.974   4.262  0.9195  2.3804  0.9366
   84SLPC  H18Z 8040   1.055   2.954   4.390 -1.8375  0.1172 -0.2623
   85SLPC     N 8041   6.808   4.357   2.083 -0.2218  0.2366  0.0962
   85SLPC   C13 8042   6.840   4.399   2.217 -0.0889 -0.1609 -0.2234
   85SLPC  H13A 8043   6.800   4.326   2.286  1.6458 -1.0355 -0.1251
   85SLPC  H13B 8044   6.946   4.406   2.236 -0.4783 -2.1929  3.0908
   85SLPC  H13C 8045   6.798   4.496   2.238 -1.1319 -1.0584  1.9646
   85SLPC   C14 8046   6.661   4.347   2.066 -0.3136 -0.2775 -0.4127
   85SLPC  H14A 8047   6.646   4.292   1.975  0.4420 -3.8065  1.5335
   85SLPC  H14B 8048   6.607   4.295   2.144 -1.8920 -1.7988 -2.4757
   85SLPC  H14C 8049   6.626   4.449   2.055 -2.3183 -0.6677  1.8691
   85SLPC   C15 8050   6.861   4.222   2.068 -0.2565  0.5033 -0.6672
   85SLPC  H15A 8051   6.946   4.208   2.132  0.0239  0.3467 -1.0733
   85SLPC  H15B 8052   6.778   4.159   2.096 -0.1142 -0.4680 -2.3494
   85SLPC  H15C 8053   6.896   4.201   1.968  1.4739 -0.6177  0.1661
   85SLPC   C12 8054   6.855   4.449   1.978  0.0414 -0.1889 -0.5466
   85SLPC  H12A 8055   6.806   4.414   1.889 -2.9023  0.7738  0.6257
   85SLPC  H12B 8056   6.958   4.421   1.959 -0.2215 -0.7479 -1.1632
   85SLPC   C11 8057   6.846   4.599   1.999 -0.4727  0.2233 -0.3267
   85SLPC  H11A 8058   6.881   4.653   1.909  0.9621 -2.0053 -1.1306
   85SLPC  H11B 8059   6.917   4.622   2.081 -2.5842 -2.3477  2.3446
   85SLPC     P 8060   6.669   4.755   2.135 -0.3761  0.0112 -0.0991
   85SLPC   O13 8061   6.744   4.872   2.099 -0.2823 -0.3476 -0.2893
   85SLPC   O14 8062   6.521   4.760   2.138  0.4916  0.1741 -0.5891
   85SLPC   O12 8063   6.715   4.640   2.035  0.9711 -0.7816 -0.2979
   85SLPC   O11 8064   6.721   4.698   2.270  0.5190  0.1704 -0.0941
   85SLPC    C1 8065   6.734   4.782   2.386 -0.4761 -0.6401 -0.5523
   85SLPC    HA 8066   6.665   4.870   2.382  0.1378 -0.2476 -3.2695
   85SLPC    HB 8067   6.719   4.716   2.474 -1.0495 -0.0805 -0.2207
   85SLPC    C2 8068   6.882   4.834   2.407  0.5003 -0.1103  0.3508
   85SLPC    HS 8069   6.925   4.869   2.311  1.1089  0.5639  0.8564
   85SLPC   O21 8070   6.958   4.716   2.452  0.0512 -0.4314  0.2139
   85SLPC   C21 8071   7.088   4.714   2.446  0.3258 -0.0822 -0.5330
   85SLPC   O22 8072   7.157   4.804   2.393  0.1772 -0.7757  0.1766
   85SLPC   C22 8073   7.143   4.594   2.526  0.8631  0.8773  0.6223
   85SLPC   H2R 8074   7.084   4.500   2.514  0.0137  1.6518 -1.3964
   85SLPC   H2S 8075   7.239   4.554   2.485  0.9668 -0.5306  2.1453
   85SLPC    C3 8076   6.881   4.956   2.500 -0.2894 -0.2148  0.2336
   85SLPC    HX 8077   6.818   5.038   2.460  1.1604  1.1467  0.6783
   85SLPC    HY 8078   6.988   4.986   2.503 -0.5218  0.9446 -2.3126
   85SLPC   O31 8079   6.847   4.925   2.642  0.1061 -0.2164 -0.0117
   85SLPC   C31 8080   6.840   5.040   2.717  0.3138  1.0402  0.1371
   85SLPC   O32 8081   6.887   5.147   2.685 -0.1080  0.2914 -0.3627
   85SLPC   C32 8082   6.786   5.013   2.851 -1.1501 -0.0808 -0.6788
   85SLPC   H2X 8083   6.839   4.920   2.880 -0.3120  0.1541 -1.4437
   85SLPC   H2Y 8084   6.679   4.981   2.849 -1.0820 -0.3570 -0.0029
   85SLPC   C23 8085   7.162   4.638   2.673 -0.4411 -0.1104 -0.0395
   85SLPC   H3R 8086   7.184   4.540   2.720  1.6562  0.3543  0.0435
   85SLPC   H3S 8087   7.074   4.682   2.724 -0.2270  0.3163 -0.0392
   85SLPC   C24 8088   7.273   4.737   2.705 -0.0215 -0.2951 -0.3610
   85SLPC   H4R 8089   7.239   4.834   2.665 -0.9769  0.0807  1.3052
   85SLPC   H4S 8090   7.373   4.706   2.666  0.3016  1.7219 -1.1802
   85SLPC   C25 8091   7.281   4.766   2.866  0.3675 -0.0153 -0.0696
   85SLPC   H5R 8092   7.309   4.675   2.923  2.5716 -0.2242 -1.4021
   85SLPC   H5S 8093   7.366   4.838   2.873  0.6770 -0.3465 -0.3558
   85SLPC   C26 8094   7.153   4.827   2.925 -0.3317  0.1443  0.4006
   85SLPC   H6R 8095   7.058   4.773   2.907 -1.0871  0.2241  3.8413
   85SLPC   H6S 8096   7.155   4.912   2.853  1.1430 -2.0574 -2.2924
   85SLPC   C27 8097   7.166   4.882   3.065  0.0868 -0.1962  0.6413
   85SLPC   H7R 8098   7.103   4.972   3.083 -1.3470 -1.7748  4.0573
   85SLPC   H7S 8099   7.269   4.916   3.089  0.3395 -0.5735  0.0943
   85SLPC   C28 8100   7.143   4.779   3.179 -0.0915 -0.8749 -0.3265
   85SLPC   H8R 8101   7.199   4.685   3.162 -0.4604 -1.2797  0.6360
   85SLPC   H8S 8102   7.037   4.749   3.164  0.2005 -1.0780 -2.1047
   85SLPC   C29 8103   7.165   4.836   3.321  0.6508 -0.7657  0.1030
   85SLPC   H9R 8104   7.195   4.941   3.308 -0.8399 -0.6077 -2.5486
   85SLPC  C210 8105   7.170   4.766   3.441  0.8012  0.1776 -0.1851
   85SLPC  H10R 8106   7.195   4.820   3.533  0.9348 -0.1597 -0.0256
   85SLPC  C211 8107   7.155   4.618   3.464  0.0867  0.2380  0.1534
   85SLPC  H11R 8108   7.241   4.597   3.531 -1.9377  0.0222  2.7529
   85SLPC  H11S 8109   7.160   4.555   3.372  3.8534  0.1855  0.3144
   85SLPC  C212 8110   7.023   4.593   3.538  0.0752 -0.4094 -0.5744
   85SLPC  H12R 8111   6.944   4.647   3.485 -1.6572 -2.0235  0.2992
   85SLPC  C213 8112   6.998   4.508   3.643 -0.3424 -0.1713 -0.3432
   85SLPC  H13R 8113   6.891   4.485   3.658 -0.2299 -1.7811 -1.7706
   85SLPC  C214 8114   7.102   4.422   3.716  0.1150 -0.2296 -0.2666
   85SLPC  H14R 8115   7.198   4.413   3.660 -0.2872  1.4643 -1.2833
   85SLPC  H14S 8116   7.067   4.318   3.728 -1.5622  0.4943  1.4656
   85SLPC  C215 8117   7.138   4.484   3.853 -0.7421 -0.3167  0.0598
   85SLPC  H15R 8118   7.160   4.591   3.836 -2.7030 -0.5430 -4.4030
   85SLPC  H15S 8119   7.236   4.435   3.873  0.4724  1.8572 -0.3872
   85SLPC  C216 8120   7.028   4.451   3.953 -0.8910  0.3583 -0.2198
   85SLPC  H16R 8121   7.003   4.343   3.963  0.6318  0.0277  0.0747
   85SLPC  H16S 8122   6.929   4.491   3.924 -1.0601  1.1980  1.4850
   85SLPC  C217 8123   7.071   4.496   4.088 -0.3458 -0.2781  0.4758
   85SLPC  H17R 8124   6.982   4.486   4.154 -0.8968 -0.5608 -0.3019
   85SLPC  H17S 8125   7.093   4.605   4.093  0.4270 -0.4363  0.6493
   85SLPC  C218 8126   7.186   4.416   4.151 -0.4416  0.0002  0.1550
   85SLPC  H18R 8127   7.210   4.440   4.256  1.1313 -2.4369  0.4009
   85SLPC  H18S 8128   7.274   4.430   4.085 -0.4471 -1.0841 -0.1026
   85SLPC  H18T 8129   7.165   4.307   4.148 -0.1212 -0.0406 -0.8219
   85SLPC   C33 8130   6.804   5.113   2.964 -0.3758 -0.0991 -0.0433
   85SLPC   H3X 8131   6.728   5.191   2.943 -2.2424 -1.9008 -0.1752
   85SLPC   H3Y 8132   6.907   5.156   2.962 -1.0253  1.4406 -2.3159
   85SLPC   C34 8133   6.801   5.044   3.103  0.2576 -0.7798  0.5153
   85SLPC   H4X 8134   6.859   4.949   3.103  0.6125 -0.5657  0.4496
   85SLPC   H4Y 8135   6.696   5.008   3.109  0.1920 -0.2682  2.5385
   85SLPC   C35 8136   6.846   5.122   3.225 -0.1895 -0.2146 -0.1404
   85SLPC   H5X 8137   6.789   5.217   3.225 -0.0999 -0.1507 -1.2495
   85SLPC   H5Y 8138   6.954   5.146   3.212 -0.1012 -1.5114 -2.0665
   85SLPC   C36 8139   6.816   5.053   3.351 -0.0631 -0.4478 -1.0561
   85SLPC   H6X 8140   6.838   4.945   3.336 -2.5359 -1.1362 -0.1131
   85SLPC   H6Y 8141   6.708   5.059   3.378  0.0197 -1.3521 -0.4797
   85SLPC   C37 8142   6.890   5.119   3.463  0.1336  1.1522 -0.2602
   85SLPC   H7X 8143   6.852   5.222   3.479  0.0269  0.9078  1.1264
   85SLPC   H7Y 8144   6.999   5.127   3.444 -0.0459  3.6503 -0.3034
   85SLPC   C38 8145   6.871   5.041   3.594  0.6374  0.1034 -0.3716
   85SLPC   H8X 8146   6.920   4.941   3.591  2.2204  0.8762 -0.9983
   85SLPC   H8Y 8147   6.765   5.015   3.614  0.7385 -0.5085 -0.6265
   85SLPC   C39 8148   6.904   5.113   3.727  0.3645  0.8589 -0.5208
   85SLPC   H9X 8149   6.859   5.214   3.740  1.1603  1.1762 -0.1875
   85SLPC   H9Y 8150   7.015   5.111   3.737  0.1814 -2.8398  1.4653
   85SLPC  C310 8151   6.849   5.023   3.848  0.5585  0.0894 -0.3472
   85SLPC  H10X 8152   6.889   4.921   3.827 -1.5608 -0.6097 -1.0550
   85SLPC  H10Y 8153   6.738   5.021   3.854  0.4712  1.8493 -1.0245
   85SLPC  C311 8154   6.912   5.066   3.982 -1.2766  0.2991 -0.4713
   85SLPC  H11X 8155   7.015   5.100   3.957  0.0760 -2.2819  1.2756
   85SLPC  H11Y 8156   6.921   4.976   4.047  0.7943  2.3693  2.2493
   85SLPC  C312 8157   6.836   5.183   4.055 -0.1369  0.2031 -0.2426
   85SLPC  H12X 8158   6.731   5.147   4.063  0.4123 -1.5902 -0.8705
   85SLPC  H12Y 8159   6.830   5.270   3.986 -1.6230 -0.2243 -0.6865
   85SLPC  C313 8160   6.885   5.211   4.197 -0.7568  0.0319 -0.2132
   85SLPC  H13X 8161   6.996   5.213   4.193 -0.7607 -0.8005 -0.8645
   85SLPC  H13Y 8162   6.854   5.120   4.253  0.3315  0.9646  1.9331
   85SLPC  C314 8163   6.811   5.338   4.255 -0.0857 -0.0355  0.2286
   85SLPC  H14X 8164   6.701   5.320   4.244 -0.0016 -1.1969  1.1109
   85SLPC  H14Y 8165   6.836   5.427   4.193 -1.2118  0.1936  0.0825
   85SLPC  C315 8166   6.854   5.363   4.399  0.1248  0.5932  0.0121
   85SLPC  H15X 8167   6.963   5.382   4.406  0.0130  0.9233  0.9516
   85SLPC  H15Y 8168   6.836   5.266   4.452 -0.8205  0.7352 -0.0286
   85SLPC  C316 8169   6.768   5.467   4.478 -0.7186  0.5723  0.3589
   85SLPC  H16X 8170   6.658   5.451   4.473 -0.6417  0.5877 -1.7888
   85SLPC  H16Y 8171   6.785   5.558   4.417 -0.7837  0.4960  0.2262
   85SLPC  C317 8172   6.817   5.499   4.619 -0.6060 -0.2708  0.0624
   85SLPC  H17X 8173   6.928   5.494   4.619 -0.5546  0.8064 -0.7401
   85SLPC  H17Y 8174   6.784   5.410   4.677  0.7549 -2.1549 -1.9627
   85SLPC  C318 8175   6.762   5.631   4.675  0.1053 -0.5596  0.6409
   85SLPC  H18X 8176   6.652   5.625   4.683  0.0646 -0.4790  0.1690
   85SLPC  H18Y 8177   6.792   5.723   4.621 -2.9221  1.6326  2.5462
   85SLPC  H18Z 8178   6.802   5.646   4.778  0.8360  0.7558  0.1859
   86SLPC     N 8179   0.084   3.217   2.106 -0.4179  0.5173  0.2352
   86SLPC   C13 8180   0.087   3.301   1.984  0.3960  0.7010 -0.0015
   86SLPC  H13A 8181   0.002   3.366   1.974  1.1191  1.6662  0.0194
   86SLPC  H13B 8182   0.169   3.371   1.981 -1.2321  2.7534  1.6096
   86SLPC  H13C 8183   0.099   3.238   1.897 -0.7262  0.1542  0.2301
   86SLPC   C14 8184   0.091   3.313   2.220  0.4768 -0.0809 -0.0265
   86SLPC  H14A 8185  -0.000   3.370   2.228  0.7431  0.2682  0.5735
   86SLPC  H14B 8186   0.093   3.261   2.314  2.5453  1.0456  0.5970
   86SLPC  H14C 8187   0.177   3.379   2.212  0.9659 -0.4557  1.9916
   86SLPC   C15 8188   0.199   3.132   2.095  0.3163 -0.9760 -0.1190
   86SLPC  H15A 8189   0.292   3.186   2.086  0.5612 -1.6020 -1.3776
   86SLPC  H15B 8190   0.205   3.063   2.178  0.0281  0.3370  1.0035
   86SLPC  H15C 8191   0.199   3.066   2.009 -0.3828  1.5388 -2.0917
   86SLPC   C12 8192  -0.053   3.142   2.125  0.0012 -0.4086 -0.5460
   86SLPC  H12A 8193  -0.044   3.060   2.055  0.5444 -1.1151  0.3401
   86SLPC  H12B 8194  -0.132   3.210   2.099  1.0143  0.3996 -1.5971
   86SLPC   C11 8195  -0.097   3.082   2.269 -0.2082 -0.4196 -0.6340
   86SLPC  H11A 8196  -0.197   3.034   2.264  0.4917 -1.6990 -3.2193
   86SLPC  H11B 8197  -0.104   3.156   2.351  1.0059  0.2404 -1.1119
   86SLPC     P 8198  -0.002   2.834   2.266 -0.1109 -0.1221  0.3254
   86SLPC   O13 8199   0.027   2.836   2.124  0.4122 -0.0856  0.0135
   86SLPC   O14 8200   0.072   2.741   2.362 -0.0623 -0.4628 -0.0377
   86SLPC   O12 8201   0.010   2.986   2.308  0.4421  0.5632 -0.4343
   86SLPC   O11 8202  -0.151   2.807   2.274 -0.1538  0.0242 -0.3210
   86SLPC    C1 8203  -0.214   2.775   2.403 -0.0329  0.0971  0.1479
   86SLPC    HA 8204  -0.208   2.664   2.406  0.1553  0.1478  1.6301
   86SLPC    HB 8205  -0.155   2.821   2.485 -1.7173  0.1427  1.3404
   86SLPC    C2 8206  -0.354   2.838   2.417 -0.5567  0.1634  0.3310
   86SLPC    HS 8207  -0.394   2.857   2.316 -2.9139  1.3245  1.4499
   86SLPC   O21 8208  -0.359   2.966   2.489  0.4843 -0.2386  0.0706
   86SLPC   C21 8209  -0.461   3.041   2.463  0.6396  0.1826 -0.3855
   86SLPC   O22 8210  -0.558   3.007   2.397  0.2411  0.2844 -0.4093
   86SLPC   C22 8211  -0.435   3.184   2.519  0.6511  0.2314 -0.1336
   86SLPC   H2R 8212  -0.369   3.171   2.608 -0.1277  2.2173  0.7740
   86SLPC   H2S 8213  -0.373   3.239   2.446  1.8190  1.6047  1.8356
   86SLPC    C3 8214  -0.444   2.735   2.496  0.4911  0.1745 -0.1563
   86SLPC    HX 8215  -0.444   2.637   2.444  0.3789  1.1877 -2.1205
   86SLPC    HY 8216  -0.547   2.770   2.474 -0.8017 -3.4987 -0.2774
   86SLPC   O31 8217  -0.402   2.726   2.637 -0.0310  0.4803  0.2797
   86SLPC   C31 8218  -0.441   2.614   2.706 -0.0584 -0.3646  0.0416
   86SLPC   O32 8219  -0.515   2.528   2.656  0.3031 -0.0763  0.8126
   86SLPC   C32 8220  -0.400   2.620   2.849  0.0120 -0.4901  0.1290
   86SLPC   H2X 8221  -0.289   2.629   2.854  0.1920 -2.2920 -0.3673
   86SLPC   H2Y 8222  -0.421   2.520   2.891  0.8466 -1.2325 -1.1896
   86SLPC   C23 8223  -0.565   3.251   2.556 -0.0955 -0.3423  0.1878
   86SLPC   H3R 8224  -0.592   3.203   2.652 -1.7798 -1.7191 -0.9640
   86SLPC   H3S 8225  -0.648   3.235   2.483  0.0422 -0.9637  0.1687
   86SLPC   C24 8226  -0.541   3.402   2.575  0.0613 -0.3885 -0.2232
   86SLPC   H4R 8227  -0.506   3.459   2.487  1.3042 -1.5316 -0.4813
   86SLPC   H4S 8228  -0.463   3.422   2.652  2.1938  0.7516 -2.6142
   86SLPC   C25 8229  -0.668   3.472   2.627 -0.9679  0.1669 -0.5098
   86SLPC   H5R 8230  -0.748   3.471   2.550 -3.2779 -0.6405  1.8213
   86SLPC   H5S 8231  -0.640   3.577   2.650 -1.5293  0.0157  0.9071
   86SLPC   C26 8232  -0.734   3.407   2.749  0.3024  0.4798  0.2472
   86SLPC   H6R 8233  -0.657   3.361   2.815 -0.3890 -1.0736 -0.0141
   86SLPC   H6S 8234  -0.794   3.317   2.725 -1.2108  2.2659 -2.8591
   86SLPC   C27 8235  -0.829   3.493   2.832  0.6096 -0.6583  0.0674
   86SLPC   H7R 8236  -0.893   3.548   2.760  2.7901  1.5180 -0.2556
   86SLPC   H7S 8237  -0.778   3.577   2.884 -0.5386  0.0274  0.0997
   86SLPC   C28 8238  -0.906   3.422   2.942  0.3300 -0.0138 -0.0088
   86SLPC   H8R 8239  -0.966   3.342   2.893 -0.1569  0.0282  0.5037
   86SLPC   H8S 8240  -0.986   3.486   2.987 -0.6608 -0.0428 -1.6793
   86SLPC   C29 8241  -0.804   3.382   3.039 -0.2267  0.0391 -0.0636
   86SLPC   H9R 8242  -0.775   3.276   3.038 -1.3080 -0.2793  1.1128
   86SLPC  C210 8243  -0.762   3.459   3.139  0.1783 -0.1278 -0.0530
   86SLPC  H10R 8244  -0.688   3.424   3.213  1.6833  0.7446 -1.1109
   86SLPC  C211 8245  -0.809   3.601   3.176  0.2713 -0.0216 -0.8306
   86SLPC  H11R 8246  -0.919   3.604   3.190  0.6930 -0.9852  3.4348
   86SLPC  H11S 8247  -0.782   3.675   3.099  1.4454 -0.6632 -1.0472
   86SLPC  C212 8248  -0.742   3.646   3.312  0.1161  0.6734 -0.1168
   86SLPC  H12R 8249  -0.639   3.678   3.291 -0.0129  1.7153  0.7526
   86SLPC  C213 8250  -0.790   3.653   3.440  0.2787 -0.0314  0.1607
   86SLPC  H13R 8251  -0.734   3.707   3.518  0.6417  1.1579 -0.9012
   86SLPC  C214 8252  -0.932   3.610   3.481  0.4548  0.2974  0.4412
   86SLPC  H14R 8253  -0.924   3.542   3.568  1.8763  0.9596  0.8413
   86SLPC  H14S 8254  -0.977   3.554   3.396 -1.8574  0.5537  1.4458
   86SLPC  C215 8255  -1.029   3.716   3.529  0.2781 -0.5873  1.0142
   86SLPC  H15R 8256  -1.047   3.784   3.444  1.4791 -2.0089 -0.4062
   86SLPC  H15S 8257  -0.985   3.778   3.611 -0.5593  2.2736 -0.6484
   86SLPC  C216 8258  -1.170   3.663   3.568  0.1066 -0.3743 -0.7203
   86SLPC  H16R 8259  -1.152   3.576   3.636 -0.9162 -1.1091 -1.3695
   86SLPC  H16S 8260  -1.233   3.641   3.479  2.6296 -1.3144 -2.3035
   86SLPC  C217 8261  -1.245   3.760   3.662 -0.4838  0.6513 -0.5793
   86SLPC  H17R 8262  -1.261   3.862   3.621 -1.0217  1.4848  1.6553
   86SLPC  H17S 8263  -1.179   3.775   3.750  1.1468  1.7258 -1.9472
   86SLPC  C218 8264  -1.388   3.707   3.694  0.8793 -0.6305 -0.5868
   86SLPC  H18R 8265  -1.456   3.704   3.606 -2.4870 -0.6040  1.9195
   86SLPC  H18S 8266  -1.420   3.764   3.783 -0.2625 -1.6792 -0.3079
   86SLPC  H18T 8267  -1.380   3.602   3.731 -0.0693  0.4414  2.7896
   86SLPC   C33 8268  -0.480   2.730   2.926 -0.6495 -0.1603  0.2531
   86SLPC   H3X 8269  -0.450   2.718   3.033 -0.5261 -3.1994 -0.0589
   86SLPC   H3Y 8270  -0.591   2.727   2.931 -0.7542  2.8475  0.7292
   86SLPC   C34 8271  -0.441   2.873   2.886 -0.2730  0.2914  0.3667
   86SLPC   H4X 8272  -0.498   2.901   2.795 -0.8460  0.9645  0.9244
   86SLPC   H4Y 8273  -0.335   2.884   2.856 -0.1572  1.5261  1.2070
   86SLPC   C35 8274  -0.486   2.977   2.995  0.1057 -0.6539  0.3570
   86SLPC   H5X 8275  -0.588   2.947   3.025 -0.2324 -0.7933 -0.9245
   86SLPC   H5Y 8276  -0.488   3.082   2.958 -1.8035  0.5690  3.7057
   86SLPC   C36 8277  -0.399   2.977   3.119 -0.1217 -0.0891  0.1585
   86SLPC   H6X 8278  -0.292   2.991   3.094  0.2396 -1.9555  0.5798
   86SLPC   H6Y 8279  -0.417   2.885   3.179 -0.4150  0.5054  0.9843
   86SLPC   C37 8280  -0.430   3.089   3.219  0.2027  0.4921 -0.6200
   86SLPC   H7X 8281  -0.539   3.111   3.222  0.1857  0.3928 -0.4959
   86SLPC   H7Y 8282  -0.369   3.173   3.180 -0.8892  2.3323  1.5180
   86SLPC   C38 8283  -0.398   3.051   3.361 -0.4275 -0.0255  0.3634
   86SLPC   H8X 8284  -0.290   3.029   3.375 -0.5666 -1.4916 -0.7482
   86SLPC   H8Y 8285  -0.462   2.965   3.391 -0.3051  0.1436  1.1389
   86SLPC   C39 8286  -0.436   3.165   3.462 -0.0009 -0.2182  0.0340
   86SLPC   H9X 8287  -0.547   3.166   3.471 -0.0632 -0.7852 -0.6432
   86SLPC   H9Y 8288  -0.394   3.264   3.433 -0.0197 -0.7171 -1.7602
   86SLPC  C310 8289  -0.379   3.124   3.599  0.0568  0.0547 -0.2238
   86SLPC  H10X 8290  -0.269   3.131   3.583  0.2524 -2.2112 -0.0271
   86SLPC  H10Y 8291  -0.407   3.020   3.624 -1.1292  0.4142 -0.0318
   86SLPC  C311 8292  -0.412   3.207   3.722  0.1456  0.1107 -0.3503
   86SLPC  H11X 8293  -0.511   3.176   3.761  1.3939 -1.6150  1.5830
   86SLPC  H11Y 8294  -0.416   3.315   3.698 -3.4956 -0.2357 -1.5527
   86SLPC  C312 8295  -0.305   3.191   3.836 -0.5418  0.6758 -0.9423
   86SLPC  H12X 8296  -0.280   3.083   3.845 -1.1636  0.5973 -0.1041
   86SLPC  H12Y 8297  -0.349   3.225   3.932  0.4463  0.8102 -0.5331
   86SLPC  C313 8298  -0.172   3.253   3.805 -0.1897  0.4791  0.1165
   86SLPC  H13X 8299  -0.194   3.358   3.777 -0.8169 -0.6855 -4.0701
   86SLPC  H13Y 8300  -0.129   3.216   3.709  0.4448  2.9091 -0.5789
   86SLPC  C314 8301  -0.068   3.241   3.908  0.4406 -0.0066  0.5190
   86SLPC  H14X 8302  -0.065   3.131   3.916  2.0084 -0.3425 -3.2603
   86SLPC  H14Y 8303  -0.094   3.282   4.008 -1.8607  0.3883 -0.2185
   86SLPC  C315 8304   0.062   3.310   3.875  0.4300 -0.0626  0.5321
   86SLPC  H15X 8305   0.078   3.298   3.765  0.8957  3.2952  0.1776
   86SLPC  H15Y 8306   0.145   3.248   3.917  1.5586  2.2476  1.8226
   86SLPC  C316 8307   0.068   3.452   3.927 -0.3173 -0.1410 -0.4581
   86SLPC  H16X 8308   0.063   3.452   4.038 -1.4711 -1.7611 -0.4941
   86SLPC  H16Y 8309  -0.019   3.515   3.900 -0.5200 -0.4416 -0.5122
   86SLPC  C317 8310   0.197   3.533   3.888  0.3072  0.1940  1.0073
   86SLPC  H17X 8311   0.184   3.549   3.779  1.5975 -0.3304  0.7569
   86SLPC  H17Y 8312   0.288   3.469   3.900  1.0153  0.8620 -0.7734
   86SLPC  C318 8313   0.230   3.668   3.955  0.1181  0.7195 -0.3176
   86SLPC  H18X 8314   0.150   3.742   3.931  0.8699  2.8209  3.2906
   86SLPC  H18Y 8315   0.333   3.708   3.945 -0.3711  1.8736 -0.8799
   86SLPC  H18Z 8316   0.227   3.651   4.065 -2.0203  0.2407 -0.4113
   87SLPC     N 8317   6.492   1.760   2.190 -0.8107 -0.2523 -0.7335
   87SLPC   C13 8318   6.408   1.747   2.073 -0.0673  0.2445  0.0488
   87SLPC  H13A 8319   6.431   1.653   2.025 -0.6374  0.4050 -0.5405
   87SLPC  H13B 8320   6.303   1.758   2.097  0.2511  0.8053  1.2565
   87SLPC  H13C 8321   6.446   1.824   2.008  0.4621  0.6873  0.8768
   87SLPC   C14 8322   6.447   1.884   2.258  0.2065  0.0099 -0.2925
   87SLPC  H14A 8323   6.361   1.857   2.318  0.3034 -0.8173 -0.5127
   87SLPC  H14B 8324   6.528   1.913   2.324 -0.0831 -1.7727  0.9061
   87SLPC  H14C 8325   6.429   1.959   2.183  0.9291 -2.8878 -3.4882
   87SLPC   C15 8326   6.639   1.773   2.147  0.0164 -0.6874 -0.4833
   87SLPC  H15A 8327   6.675   1.692   2.086  0.5797  0.3292 -1.5218
   87SLPC  H15B 8328   6.658   1.868   2.099  0.6352 -0.8113 -0.4925
   87SLPC  H15C 8329   6.701   1.767   2.235 -0.9420 -2.7300  0.0799
   87SLPC   C12 8330   6.467   1.644   2.281  0.0241  0.0458  0.0346
   87SLPC  H12A 8331   6.497   1.665   2.383 -0.4814  0.1746  0.1597
   87SLPC  H12B 8332   6.538   1.573   2.242 -1.0066 -1.1131  0.2461
   87SLPC   C11 8333   6.325   1.592   2.290 -0.0420 -0.0684  0.3322
   87SLPC  H11A 8334   6.340   1.508   2.361  0.9950 -0.1129  0.0644
   87SLPC  H11B 8335   6.281   1.562   2.192  3.9390  0.0734 -1.5800
   87SLPC     P 8336   6.077   1.704   2.322 -0.1555  0.3284  0.0935
   87SLPC   O13 8337   6.022   1.783   2.439 -0.1962 -0.1699 -0.2219
   87SLPC   O14 8338   6.050   1.768   2.191 -0.2020  0.0501 -0.8130
   87SLPC   O12 8339   6.236   1.682   2.347  0.1789  0.4083 -0.4644
   87SLPC   O11 8340   6.016   1.556   2.321  0.7713  0.0368 -0.1757
   87SLPC    C1 8341   6.021   1.496   2.452 -0.4412 -0.5071 -0.0285
   87SLPC    HA 8342   6.128   1.489   2.479  0.3100  2.7590 -1.8712
   87SLPC    HB 8343   5.961   1.555   2.524  1.3765  0.6747  0.5430
   87SLPC    C2 8344   5.949   1.357   2.439  0.3446  0.3809 -0.4488
   87SLPC    HS 8345   5.856   1.378   2.383  0.5889  0.2070 -0.9316
   87SLPC   O21 8346   5.925   1.308   2.570  0.7569  0.0073 -1.1924
   87SLPC   C21 8347   5.868   1.196   2.576 -0.0722  0.6916 -0.0311
   87SLPC   O22 8348   5.799   1.143   2.488  0.0878  0.0906  0.1473
   87SLPC   C22 8349   5.882   1.132   2.723  0.3872 -0.3033 -0.2697
   87SLPC   H2R 8350   5.960   1.192   2.773 -2.1386  3.0966 -0.2289
   87SLPC   H2S 8351   5.783   1.153   2.770  0.6986 -0.1554  0.3229
   87SLPC    C3 8352   6.031   1.255   2.362 -0.8086  0.8568 -0.6602
   87SLPC    HX 8353   6.073   1.322   2.284  1.6351 -2.1419 -2.0311
   87SLPC    HY 8354   5.972   1.177   2.310 -1.7621  1.4282 -0.4563
   87SLPC   O31 8355   6.133   1.192   2.438 -0.7494 -0.4163  0.6250
   87SLPC   C31 8356   6.224   1.117   2.388 -0.0107 -0.6046  0.5839
   87SLPC   O32 8357   6.229   1.070   2.274  0.0236  0.0184  0.0276
   87SLPC   C32 8358   6.307   1.060   2.503 -0.1029 -0.1742  0.1304
   87SLPC   H2X 8359   6.353   0.967   2.464 -0.7774 -0.3852 -0.1723
   87SLPC   H2Y 8360   6.244   1.032   2.590  0.9460 -2.1212  0.2796
   87SLPC   C23 8361   5.925   0.991   2.703 -0.3676 -0.6059 -0.8154
   87SLPC   H3R 8362   5.952   0.973   2.597  0.6634 -0.7525 -0.5391
   87SLPC   H3S 8363   5.849   0.911   2.718 -1.1436  0.7814  3.3647
   87SLPC   C24 8364   6.053   0.960   2.795  0.3967 -0.1567 -0.2526
   87SLPC   H4R 8365   6.120   1.043   2.764 -0.1760  0.2280 -0.4660
   87SLPC   H4S 8366   6.098   0.860   2.777 -0.3092 -0.8224  1.6239
   87SLPC   C25 8367   6.021   0.968   2.943 -0.1768  0.7850 -0.7929
   87SLPC   H5R 8368   5.953   0.885   2.969 -1.0162  1.2156 -1.6003
   87SLPC   H5S 8369   5.967   1.062   2.967 -0.7497  0.0956  0.6599
   87SLPC   C26 8370   6.137   0.949   3.036 -0.5307 -0.0283  0.0393
   87SLPC   H6R 8371   6.196   0.859   3.010  3.0690  1.9883  0.7759
   87SLPC   H6S 8372   6.115   0.952   3.145  2.2888 -2.8165  0.7678
   87SLPC   C27 8373   6.223   1.074   3.028 -0.4447  1.1438 -0.7009
   87SLPC   H7R 8374   6.156   1.163   3.029 -0.5600  1.0515  1.4136
   87SLPC   H7S 8375   6.271   1.064   2.928 -2.4317  0.6241 -1.6352
   87SLPC   C28 8376   6.332   1.081   3.136  0.2665  0.6016 -0.9233
   87SLPC   H8R 8377   6.379   0.982   3.154  1.2830  0.3372 -4.5299
   87SLPC   H8S 8378   6.280   1.105   3.231  3.9403 -1.2266  1.6768
   87SLPC   C29 8379   6.444   1.174   3.118  0.5548 -0.2334  0.1441
   87SLPC   H9R 8380   6.470   1.195   3.013  1.5652 -0.5395  0.3239
   87SLPC  C210 8381   6.533   1.211   3.211  0.5900 -0.0401  0.6862
   87SLPC  H10R 8382   6.599   1.294   3.182 -1.7868  0.4425 -3.7591
   87SLPC  C211 8383   6.524   1.159   3.354  0.2329 -0.0700  0.7588
   87SLPC  H11R 8384   6.627   1.138   3.390  0.2115 -1.8668 -0.1462
   87SLPC  H11S 8385   6.479   1.057   3.350  0.9464 -0.3382 -1.5105
   87SLPC  C212 8386   6.447   1.252   3.445  0.1022  0.2317  0.4481
   87SLPC  H12R 8387   6.338   1.237   3.447  0.0556  0.6896  2.1116
   87SLPC  C213 8388   6.494   1.337   3.538  0.2629 -0.0380 -0.3689
   87SLPC  H13R 8389   6.420   1.401   3.588 -0.2254  0.3606 -1.5710
   87SLPC  C214 8390   6.644   1.360   3.583  0.1181  0.0393 -0.6490
   87SLPC  H14R 8391   6.664   1.469   3.586 -0.3603  0.0950  1.5095
   87SLPC  H14S 8392   6.703   1.322   3.496 -0.8934 -0.8224 -0.9752
   87SLPC  C215 8393   6.697   1.305   3.716  0.2824 -0.1429  0.1820
   87SLPC  H15R 8394   6.652   1.343   3.810  1.2439 -0.1401  0.6484
   87SLPC  H15S 8395   6.798   1.351   3.721  0.1770  0.1362 -0.3052
   87SLPC  C216 8396   6.719   1.154   3.713  0.3732 -0.6407 -0.5445
   87SLPC  H16R 8397   6.773   1.127   3.619 -3.0944  0.8366 -3.0538
   87SLPC  H16S 8398   6.619   1.107   3.717  0.0791 -0.1151 -1.6739
   87SLPC  C217 8399   6.792   1.111   3.832 -0.2514  0.6270  0.1807
   87SLPC  H17R 8400   6.722   1.133   3.916 -0.5681  2.1361 -0.4578
   87SLPC  H17S 8401   6.883   1.174   3.839  0.0824  0.2674 -0.8792
   87SLPC  C218 8402   6.829   0.964   3.838 -0.0326  0.3652  0.2380
   87SLPC  H18R 8403   6.900   0.945   3.755 -1.5578  0.0078 -1.0348
   87SLPC  H18S 8404   6.739   0.903   3.811  0.8234 -0.9227  0.2605
   87SLPC  H18T 8405   6.875   0.942   3.936  1.5002 -0.8121 -0.7235
   87SLPC   C33 8406   6.423   1.164   2.544  0.6598  0.2742  0.5947
   87SLPC   H3X 8407   6.495   1.187   2.463  2.4226 -2.1057  1.3935
   87SLPC   H3Y 8408   6.486   1.105   2.615  1.3020 -1.5365 -1.4193
   87SLPC   C34 8409   6.374   1.292   2.607 -0.0456  0.3206 -0.1261
   87SLPC   H4X 8410   6.286   1.275   2.673  0.4245 -2.0373 -0.0625
   87SLPC   H4Y 8411   6.326   1.337   2.517  2.3432  0.5154 -1.3322
   87SLPC   C35 8412   6.467   1.395   2.662 -0.2206 -0.3334 -0.5925
   87SLPC   H5X 8413   6.542   1.417   2.582 -0.5045 -1.3408 -1.1432
   87SLPC   H5Y 8414   6.536   1.357   2.739  1.2360  1.7153 -0.8165
   87SLPC   C36 8415   6.397   1.513   2.719  0.2015  1.2336 -0.6176
   87SLPC   H6X 8416   6.337   1.553   2.635  0.0434  1.0818 -0.5785
   87SLPC   H6Y 8417   6.472   1.589   2.749  0.7890  0.2308  0.5148
   87SLPC   C37 8418   6.307   1.476   2.834 -0.8633 -0.1644 -1.0800
   87SLPC   H7X 8419   6.361   1.428   2.918  0.5555  1.3438 -1.1038
   87SLPC   H7Y 8420   6.238   1.393   2.807 -1.4154 -0.5365  1.4145
   87SLPC   C38 8421   6.232   1.589   2.895 -0.0091 -0.1132  1.0802
   87SLPC   H8X 8422   6.154   1.616   2.820 -0.7277  0.4235  2.0051
   87SLPC   H8Y 8423   6.292   1.682   2.904 -0.8832  0.6411 -0.6378
   87SLPC   C39 8424   6.158   1.565   3.024 -0.5987 -0.1899  0.1500
   87SLPC   H9X 8425   6.080   1.487   3.011  0.5049 -1.1027 -1.1333
   87SLPC   H9Y 8426   6.112   1.661   3.057 -0.3224 -0.2040  0.5865
   87SLPC  C310 8427   6.255   1.522   3.138  0.5849 -0.0517 -0.1338
   87SLPC  H10X 8428   6.352   1.577   3.132  1.6510 -1.7981  0.6643
   87SLPC  H10Y 8429   6.280   1.416   3.115  1.8747  0.0067  0.9402
   87SLPC  C311 8430   6.186   1.526   3.280  0.1209  0.1500 -0.3543
   87SLPC  H11X 8431   6.176   1.629   3.320  3.9433  0.1980  0.6609
   87SLPC  H11Y 8432   6.247   1.477   3.358 -1.8463 -0.2326  0.9691
   87SLPC  C312 8433   6.050   1.454   3.269 -0.2696 -0.1933  0.0323
   87SLPC  H12X 8434   6.074   1.355   3.225 -0.6168 -0.5152  0.5692
   87SLPC  H12Y 8435   5.979   1.508   3.203 -0.2046  1.4541  1.2541
   87SLPC  C313 8436   5.980   1.432   3.409 -0.0516  0.5468 -0.5479
   87SLPC  H13X 8437   6.051   1.375   3.472  0.2211 -1.0196 -2.2481
   87SLPC  H13Y 8438   5.897   1.362   3.387 -1.2666  2.1023 -1.0065
   87SLPC  C314 8439   5.926   1.559   3.486 -0.1669 -0.4184 -0.4124
   87SLPC  H14X 8440   5.856   1.617   3.421  0.2106  0.8418  0.2769
   87SLPC  H14Y 8441   6.015   1.626   3.499  0.0832 -0.7529 -0.3963
   87SLPC  C315 8442   5.870   1.514   3.624 -0.2455 -0.0996  0.6457
   87SLPC  H15X 8443   5.791   1.436   3.614  0.2942 -0.4982 -0.6081
   87SLPC  H15Y 8444   5.827   1.606   3.670 -1.6692  0.4762 -1.7570
   87SLPC  C316 8445   5.978   1.461   3.720 -0.5037 -0.6919  0.0634
   87SLPC  H16X 8446   6.055   1.540   3.712 -1.7278  0.6743  1.3412
   87SLPC  H16Y 8447   6.018   1.363   3.687  1.1741 -1.3480  3.7938
   87SLPC  C317 8448   5.926   1.443   3.862  0.3729 -0.2707 -0.1483
   87SLPC  H17X 8449   5.834   1.502   3.879 -0.2565 -1.2191 -0.1869
   87SLPC  H17Y 8450   5.996   1.479   3.939  1.3527  0.0327 -1.1682
   87SLPC  C318 8451   5.900   1.299   3.908  0.1299  0.1896 -0.2723
   87SLPC  H18X 8452   5.866   1.258   3.810 -0.8848  1.3345 -0.4106
   87SLPC  H18Y 8453   5.826   1.288   3.990 -0.2023 -0.0838 -0.6028
   87SLPC  H18Z 8454   5.997   1.249   3.927 -0.2568 -0.7553 -0.7168
   88SLPC     N 8455   0.259   6.976   1.917  0.4787  0.0446  0.0784
   88SLPC   C13 8456   0.269   6.826   1.896 -0.2264 -0.4426  0.0678
   88SLPC  H13A 8457   0.327   6.794   1.810 -1.1872 -2.3774  0.1036
   88SLPC  H13B 8458   0.317   6.776   1.979 -0.2347  0.2528  0.4923
   88SLPC  H13C 8459   0.169   6.787   1.889 -1.7652  3.3409  0.1005
   88SLPC   C14 8460   0.179   7.036   1.809  0.0528 -0.8954  0.2829
   88SLPC  H14A 8461   0.188   7.143   1.804 -0.3670 -0.8796 -0.1998
   88SLPC  H14B 8462   0.217   6.998   1.715  0.8263  2.3035 -0.7294
   88SLPC  H14C 8463   0.080   6.993   1.801 -0.0273 -0.7661  0.5805
   88SLPC   C15 8464   0.394   7.028   1.892 -0.0261  0.2926  0.1207
   88SLPC  H15A 8465   0.385   7.134   1.876  0.7974  0.1834 -1.1236
   88SLPC  H15B 8466   0.461   6.997   1.970  0.5673  1.8300  0.2274
   88SLPC  H15C 8467   0.435   6.991   1.799  0.2266  1.4711 -0.2454
   88SLPC   C12 8468   0.203   7.009   2.055  0.1912  0.2962 -0.1381
   88SLPC  H12A 8469   0.109   6.956   2.062 -0.6338  1.6117 -0.8837
   88SLPC  H12B 8470   0.180   7.115   2.057 -1.0503  0.0408 -0.4538
   88SLPC   C11 8471   0.288   6.979   2.177  0.3799  0.6207  0.0929
   88SLPC  H11A 8472   0.322   6.873   2.177  0.8808  0.7842  0.1779
   88SLPC  H11B 8473   0.227   7.009   2.265 -0.6584 -0.7592 -0.1334
   88SLPC     P 8474   0.410   7.210   2.225 -0.5217  0.3735 -0.2278
   88SLPC   O13 8475   0.547   7.259   2.258  0.3409 -0.3348 -0.0035
   88SLPC   O14 8476   0.330   7.284   2.127  0.9356 -0.3539  0.0387
   88SLPC   O12 8477   0.409   7.058   2.185 -0.6054 -0.0194  0.2052
   88SLPC   O11 8478   0.334   7.216   2.364  0.2302 -0.4789 -0.5290
   88SLPC    C1 8479   0.323   7.334   2.436  0.4164  0.6721 -0.7157
   88SLPC    HA 8480   0.368   7.429   2.399  0.8904  0.1100 -1.5922
   88SLPC    HB 8481   0.215   7.357   2.433  0.3270  0.1246 -2.2320
   88SLPC    C2 8482   0.368   7.332   2.587 -0.3312  0.1743 -0.4449
   88SLPC    HS 8483   0.351   7.432   2.633 -0.3029 -0.0647  0.0834
   88SLPC   O21 8484   0.504   7.300   2.599  0.1388  0.3124 -0.5210
   88SLPC   C21 8485   0.587   7.385   2.559 -0.5438  0.4848  0.3657
   88SLPC   O22 8486   0.570   7.504   2.536 -0.1671  0.2259 -0.0861
   88SLPC   C22 8487   0.725   7.318   2.558  0.2283  0.9075  0.5765
   88SLPC   H2R 8488   0.708   7.209   2.544  1.4150  0.7582  0.2394
   88SLPC   H2S 8489   0.779   7.348   2.466 -0.6168  1.2949  0.2031
   88SLPC    C3 8490   0.281   7.219   2.665 -0.4265 -0.8739  0.0677
   88SLPC    HX 8491   0.281   7.139   2.588  4.7274 -2.3090  1.3239
   88SLPC    HY 8492   0.181   7.267   2.670  0.0859  0.0570  1.8542
   88SLPC   O31 8493   0.338   7.177   2.787  0.0245  0.1676  0.2444
   88SLPC   C31 8494   0.321   7.271   2.878 -0.2137  0.7932  0.1146
   88SLPC   O32 8495   0.252   7.372   2.854 -0.1487  0.6344  0.0262
   88SLPC   C32 8496   0.392   7.238   3.011 -0.5962  0.2806 -0.0072
   88SLPC   H2X 8497   0.498   7.268   3.004 -0.5616  0.0784 -0.3480
   88SLPC   H2Y 8498   0.375   7.130   3.035 -0.2626  0.4827  1.1761
   88SLPC   C23 8499   0.805   7.360   2.685 -1.1160 -0.1988  0.6390
   88SLPC   H3R 8500   0.824   7.468   2.699  0.8387 -0.5149  0.6117
   88SLPC   H3S 8501   0.906   7.318   2.667 -1.0752  0.4090 -0.6397
   88SLPC   C24 8502   0.756   7.298   2.816  0.0371  0.3292  0.2467
   88SLPC   H4R 8503   0.762   7.187   2.812  2.0449  0.3286  2.4706
   88SLPC   H4S 8504   0.651   7.329   2.835 -0.6458 -1.0920 -1.0945
   88SLPC   C25 8505   0.847   7.329   2.932 -0.0616 -0.8507 -0.0858
   88SLPC   H5R 8506   0.870   7.438   2.923 -0.8638 -0.5115  1.6665
   88SLPC   H5S 8507   0.942   7.272   2.926  1.2562  1.1648  0.9359
   88SLPC   C26 8508   0.783   7.312   3.066  0.4828 -0.1235 -0.2833
   88SLPC   H6R 8509   0.726   7.217   3.066  0.5557 -0.1724  0.5980
   88SLPC   H6S 8510   0.708   7.394   3.075 -0.5228 -1.1738  1.1739
   88SLPC   C27 8511   0.898   7.313   3.181  0.6078  0.8409 -0.3908
   88SLPC   H7R 8512   0.947   7.412   3.180 -0.9560  1.6445  0.0669
   88SLPC   H7S 8513   0.972   7.240   3.144 -0.4257  0.7544 -2.3596
   88SLPC   C28 8514   0.854   7.257   3.321  0.3357  0.3779 -0.2264
   88SLPC   H8R 8515   0.826   7.150   3.324  2.6119 -0.2312  3.2413
   88SLPC   H8S 8516   0.761   7.311   3.348 -0.8197 -1.0135 -1.3266
   88SLPC   C29 8517   0.952   7.283   3.430  0.4698 -0.1935  0.5890
   88SLPC   H9R 8518   1.009   7.376   3.416 -1.0480  1.0011  2.1509
   88SLPC  C210 8519   0.949   7.219   3.545 -1.1678 -0.2947  0.0557
   88SLPC  H10R 8520   1.029   7.236   3.619 -1.5903 -2.6070  1.1003
   88SLPC  C211 8521   0.851   7.120   3.596  0.5231  0.5698  0.5380
   88SLPC  H11R 8522   0.795   7.081   3.508  1.8342 -0.2583  0.0666
   88SLPC  H11S 8523   0.774   7.176   3.654  0.0749  0.0624  0.4444
   88SLPC  C212 8524   0.904   7.004   3.679  0.2793  0.4147 -0.3153
   88SLPC  H12R 8525   1.012   6.984   3.672 -0.1148 -1.2842 -1.9198
   88SLPC  C213 8526   0.836   6.931   3.767  1.0053  0.1885 -0.5528
   88SLPC  H13R 8527   0.886   6.847   3.818 -3.2739 -1.3535  1.3078
   88SLPC  C214 8528   0.689   6.953   3.804  0.1943 -0.0954  0.1081
   88SLPC  H14R 8529   0.629   6.995   3.720 -1.9476 -1.4668  0.9105
   88SLPC  H14S 8530   0.698   7.039   3.873  0.3503 -0.2947  0.3373
   88SLPC  C215 8531   0.608   6.841   3.865 -0.0092 -0.6462 -0.4526
   88SLPC  H15R 8532   0.611   6.762   3.787  2.2313  0.2582 -1.3390
   88SLPC  H15S 8533   0.506   6.877   3.888  0.7098 -0.1458  2.1461
   88SLPC  C216 8534   0.657   6.784   4.005 -0.0811  1.0974 -0.3034
   88SLPC  H16R 8535   0.670   6.862   4.082  0.0620 -1.6162  2.5024
   88SLPC  H16S 8536   0.757   6.737   3.994  0.0934  1.2780  0.4952
   88SLPC  C217 8537   0.554   6.687   4.058  0.3208 -0.4562  0.3885
   88SLPC  H17R 8538   0.601   6.599   4.106  0.3968 -0.3723  0.4708
   88SLPC  H17S 8539   0.500   6.654   3.967  0.6355 -1.1211  0.4387
   88SLPC  C218 8540   0.442   6.752   4.147  0.2157 -0.3333 -0.7225
   88SLPC  H18R 8541   0.483   6.782   4.246  0.3872  0.3267 -0.9920
   88SLPC  H18S 8542   0.370   6.670   4.167 -0.1662 -0.0139 -0.7760
   88SLPC  H18T 8543   0.385   6.837   4.103  0.1277 -0.0765 -0.1319
   88SLPC   C33 8544   0.332   7.306   3.135  0.8398  0.2250 -0.4553
   88SLPC   H3X 8545   0.227   7.278   3.160  0.5685  0.9075 -0.8321
   88SLPC   H3Y 8546   0.340   7.416   3.124 -1.5533  0.4105 -0.5272
   88SLPC   C34 8547   0.401   7.268   3.262  0.2686  0.4330  0.0972
   88SLPC   H4X 8548   0.506   7.301   3.247 -0.1460  1.7311  0.0318
   88SLPC   H4Y 8549   0.393   7.158   3.276  2.2227  0.1105 -1.0924
   88SLPC   C35 8550   0.349   7.334   3.387 -0.6348  0.4893  0.3329
   88SLPC   H5X 8551   0.253   7.284   3.411 -0.3111 -1.3386 -2.0527
   88SLPC   H5Y 8552   0.316   7.439   3.368  1.4164  1.1533  0.2643
   88SLPC   C36 8553   0.436   7.316   3.517  0.2247 -0.1821 -0.2253
   88SLPC   H6X 8554   0.534   7.366   3.501  1.0442 -2.4879 -2.6623
   88SLPC   H6Y 8555   0.457   7.210   3.542 -0.9123 -1.3405 -3.8279
   88SLPC   C37 8556   0.362   7.370   3.640  0.0663 -0.7961  0.2979
   88SLPC   H7X 8557   0.256   7.342   3.624 -0.0271 -0.2007 -0.1431
   88SLPC   H7Y 8558   0.355   7.480   3.654  2.0807 -0.8701  2.1933
   88SLPC   C38 8559   0.414   7.317   3.772  0.5914 -0.1533 -1.0265
   88SLPC   H8X 8560   0.510   7.370   3.788 -0.2053  0.4083  2.5251
   88SLPC   H8Y 8561   0.446   7.212   3.756  0.0154 -0.3232 -1.0712
   88SLPC   C39 8562   0.324   7.331   3.896  0.4292  0.1239 -0.0171
   88SLPC   H9X 8563   0.378   7.293   3.985  0.2542 -0.3614 -0.1183
   88SLPC   H9Y 8564   0.228   7.283   3.868  0.5175  0.0801 -0.2495
   88SLPC  C310 8565   0.281   7.474   3.924 -0.2180 -0.0429  0.0986
   88SLPC  H10X 8566   0.205   7.480   4.004 -0.0743  2.4735  0.0796
   88SLPC  H10Y 8567   0.225   7.515   3.838  1.1701  0.6132 -0.5194
   88SLPC  C311 8568   0.392   7.569   3.959 -0.0607  0.6238 -0.2896
   88SLPC  H11X 8569   0.475   7.569   3.886  0.5434  2.8338  0.3434
   88SLPC  H11Y 8570   0.428   7.563   4.064  1.9372 -0.7007 -1.0280
   88SLPC  C312 8571   0.343   7.711   3.943  0.4308 -0.3052 -0.4497
   88SLPC  H12X 8572   0.293   7.712   3.844 -0.1552  0.1459 -0.1524
   88SLPC  H12Y 8573   0.422   7.789   3.951 -0.0226  0.2764 -1.5126
   88SLPC  C313 8574   0.241   7.752   4.041  0.2492 -0.0730 -0.0467
   88SLPC  H13X 8575   0.289   7.735   4.140 -1.4898 -1.2276  0.6209
   88SLPC  H13Y 8576   0.149   7.690   4.050  1.4901 -1.6485  2.4566
   88SLPC  C314 8577   0.209   7.903   4.043 -0.4773 -0.2808 -0.3138
   88SLPC  H14X 8578   0.295   7.967   4.071 -1.0267  0.5010 -0.3900
   88SLPC  H14Y 8579   0.127   7.914   4.118  0.2043  0.6340  0.3078
   88SLPC  C315 8580   0.152   7.944   3.910 -0.1527  0.0343  0.5166
   88SLPC  H15X 8581   0.070   7.874   3.882  0.9922 -1.1568  0.1155
   88SLPC  H15Y 8582   0.227   7.942   3.829  1.0105 -3.9084  1.5765
   88SLPC  C316 8583   0.090   8.084   3.916 -0.2724 -0.4186 -0.6268
   88SLPC  H16X 8584  -0.010   8.086   3.963  0.7273 -0.6635  1.5607
   88SLPC  H16Y 8585   0.069   8.112   3.810 -1.4041 -0.4923 -0.4261
   88SLPC  C317 8586   0.180   8.201   3.958 -0.3119 -0.5781 -0.1549
   88SLPC  H17X 8587   0.270   8.208   3.894  0.2129  1.5227  0.7773
   88SLPC  H17Y 8588   0.208   8.182   4.064  0.4901 -1.5069 -0.5224
   88SLPC  C318 8589   0.096   8.323   3.949  0.2473  1.1379 -0.8989
   88SLPC  H18X 8590   0.020   8.311   4.029  0.7220 -0.6117 -0.6866
   88SLPC  H18Y 8591   0.048   8.353   3.854 -1.6764  1.8856  0.2853
   88SLPC  H18Z 8592   0.151   8.417   3.966  1.0910  0.4036  0.5063
   89SAPE     N 8593   4.106   2.624   6.232  0.2847  0.8320  0.9564
   89SAPE   HN1 8594   4.157   2.533   6.230 -0.9404  0.0437  3.4184
   89SAPE   HN2 8595   4.112   2.657   6.330  0.8847 -1.8707  1.8699
   89SAPE   HN3 8596   4.007   2.614   6.201  0.4712  0.9995  0.2914
   89SAPE   C12 8597   4.191   2.730   6.167  0.0370  0.1477  0.8726
   89SAPE  H12A 8598   4.297   2.717   6.196 -0.2320  0.4641  2.0053
   89SAPE  H12B 8599   4.158   2.830   6.203 -1.3807 -0.0354  0.1464
   89SAPE   C11 8600   4.193   2.724   6.011  0.3816 -0.4476  0.2080
   89SAPE  H11A 8601   4.252   2.631   5.994 -1.6746 -1.4967 -1.5384
   89SAPE  H11B 8602   4.242   2.811   5.964 -0.4868 -0.6695 -1.1310
   89SAPE     P 8603   3.956   2.831   5.942 -0.0366 -0.0944 -0.2658
   89SAPE   O13 8604   3.897   2.880   6.071 -1.0865  0.3621 -0.0515
   89SAPE   O14 8605   4.024   2.927   5.858  0.3880  0.3009 -0.1876
   89SAPE   O12 8606   4.056   2.708   5.959 -0.4493  0.5505 -0.1044
   89SAPE   O11 8607   3.854   2.750   5.853  0.2071  0.0507  0.0241
   89SAPE    C1 8608   3.874   2.717   5.713 -0.1758 -0.2433  0.3973
   89SAPE    HA 8609   3.972   2.667   5.697  0.6897  2.0094 -1.6945
   89SAPE    HB 8610   3.801   2.639   5.685 -1.1831  0.4046  1.1805
   89SAPE    C2 8611   3.873   2.836   5.615  1.1499  0.1139  0.4712
   89SAPE    HS 8612   3.971   2.886   5.624  0.4369  1.5223  0.4347
   89SAPE   O21 8613   3.761   2.923   5.649 -0.4413 -0.0495 -0.2620
   89SAPE   C21 8614   3.642   2.877   5.652  0.1049 -0.2935 -0.7180
   89SAPE   O22 8615   3.600   2.762   5.632  0.6463  0.2061 -0.2258
   89SAPE   C22 8616   3.552   2.995   5.710 -0.4041 -0.3414 -0.3227
   89SAPE   H2R 8617   3.558   2.972   5.819  0.4758  0.4821 -0.1883
   89SAPE   H2S 8618   3.593   3.096   5.689  0.6976 -0.8624 -0.6599
   89SAPE    C3 8619   3.881   2.787   5.467 -0.3285 -0.8931  0.7703
   89SAPE    HX 8620   3.976   2.733   5.449 -0.9624 -1.1718 -1.9640
   89SAPE    HY 8621   3.871   2.881   5.408  1.4382 -0.4935  1.0938
   89SAPE   O31 8622   3.774   2.690   5.432 -0.6910 -0.2222  0.6761
   89SAPE   C31 8623   3.809   2.566   5.391  0.0946 -0.4594 -0.1096
   89SAPE   O32 8624   3.922   2.528   5.372  0.2739 -0.4154  0.9427
   89SAPE   C32 8625   3.680   2.476   5.385  0.2336 -0.5154  0.4327
   89SAPE   H2X 8626   3.638   2.482   5.487 -0.9825 -0.9044 -0.0422
   89SAPE   H2Y 8627   3.718   2.372   5.375  1.6011  0.0767 -0.7765
   89SAPE   C23 8628   3.407   2.982   5.672 -0.1212 -0.6361 -0.4408
   89SAPE   H3R 8629   3.344   3.043   5.741  0.4163 -1.5801  0.9094
   89SAPE   H3S 8630   3.369   2.879   5.693  0.4476 -0.9020 -0.7301
   89SAPE   C24 8631   3.377   3.051   5.533 -0.3676  0.1606 -0.6427
   89SAPE   H4R 8632   3.399   3.159   5.534 -0.5741  0.2044 -0.7356
   89SAPE   H4S 8633   3.270   3.052   5.501  0.1829  1.3355 -2.4757
   89SAPE   C25 8634   3.461   2.988   5.422  0.0847  0.1580 -0.3138
   89SAPE   H5R 8635   3.440   2.884   5.394  0.4549  0.1333 -0.5021
   89SAPE   C26 8636   3.563   3.048   5.354 -0.3171 -0.7748 -0.5300
   89SAPE   H6R 8637   3.609   2.988   5.274 -0.0680 -1.2692 -0.0170
   89SAPE   C27 8638   3.615   3.186   5.372 -0.1135 -0.1623  0.6217
   89SAPE   H7R 8639   3.538   3.255   5.412  0.7656 -0.0681  2.2028
   89SAPE   H7S 8640   3.624   3.228   5.270  0.9833 -1.4443  0.1777
   89SAPE   C28 8641   3.748   3.195   5.438 -0.1295 -0.8518 -0.4045
   89SAPE   H8R 8642   3.745   3.194   5.547 -0.6763 -0.4354 -0.4143
   89SAPE   C29 8643   3.867   3.211   5.375 -0.4173  0.3355 -0.4507
   89SAPE   H9R 8644   3.955   3.217   5.441  0.5747  0.5383 -1.7762
   89SAPE  C210 8645   3.900   3.213   5.225  0.9329 -1.0049 -0.8505
   89SAPE  H10R 8646   4.008   3.233   5.206  0.4223 -0.4000 -3.2051
   89SAPE  H10S 8647   3.848   3.298   5.175  1.7975 -1.0456 -1.8483
   89SAPE  C211 8648   3.865   3.088   5.153  1.0901  0.4278 -0.0664
   89SAPE  H11R 8649   3.873   2.995   5.210  3.2852 -0.2380 -1.4220
   89SAPE  C212 8650   3.810   3.074   5.031  0.3330 -0.0222 -0.1065
   89SAPE  H12R 8651   3.801   2.974   4.985  2.4352 -0.3617  0.1566
   89SAPE  C213 8652   3.765   3.182   4.936 -0.2116 -0.6805 -0.0479
   89SAPE  H13R 8653   3.813   3.276   4.969  1.0776 -1.4402  0.2967
   89SAPE  H13S 8654   3.656   3.197   4.949  0.0085 -0.1740  1.2725
   89SAPE  C214 8655   3.813   3.148   4.799 -0.8528 -0.2687 -0.1193
   89SAPE  H14R 8656   3.923   3.145   4.796 -0.8658 -0.2315 -0.6295
   89SAPE  C215 8657   3.744   3.124   4.691  0.5627  0.4391 -0.0113
   89SAPE  H15R 8658   3.807   3.107   4.602  1.4621  0.1025  0.6704
   89SAPE  C216 8659   3.590   3.111   4.674 -0.5938  0.0050  0.6970
   89SAPE  H16R 8660   3.533   3.120   4.769 -2.0682 -0.1694 -0.1513
   89SAPE  H16S 8661   3.561   3.015   4.626 -0.8435  0.7047 -0.5659
   89SAPE  C217 8662   3.528   3.212   4.580 -0.4580 -0.2207  0.1836
   89SAPE  H17R 8663   3.568   3.313   4.602  0.2505 -0.6177  0.7260
   89SAPE  H17S 8664   3.417   3.204   4.591 -0.6559  0.4206 -1.1898
   89SAPE  C218 8665   3.547   3.197   4.436  0.4287  0.1081  0.3948
   89SAPE  H18R 8666   3.656   3.191   4.415  0.4690 -0.1613  0.6738
   89SAPE  H18S 8667   3.507   3.287   4.385 -0.1322 -0.2415  0.2038
   89SAPE  C219 8668   3.469   3.074   4.366 -0.5115 -0.3791  0.7544
   89SAPE  H19R 8669   3.361   3.089   4.386 -0.5662  1.2151 -0.6686
   89SAPE  H19S 8670   3.509   2.978   4.406 -1.3382 -1.5708 -1.2132
   89SAPE  C220 8671   3.494   3.068   4.209  0.5109  0.3167 -0.0533
   89SAPE  H20R 8672   3.602   3.049   4.190 -0.0669 -3.1941 -0.3042
   89SAPE  H20S 8673   3.449   3.160   4.167  1.4679  0.4335 -0.8207
   89SAPE  H20T 8674   3.443   2.977   4.169 -1.0287  0.6761  1.0222
   89SAPE   C33 8675   3.578   2.521   5.285  0.3881 -0.2480 -0.5904
   89SAPE   H3X 8676   3.544   2.626   5.291  1.0046 -0.0946  0.2027
   89SAPE   H3Y 8677   3.495   2.447   5.287  1.2471 -1.2173 -0.3097
   89SAPE   C34 8678   3.622   2.514   5.141  0.0617 -0.6240 -0.6611
   89SAPE   H4X 8679   3.540   2.484   5.073  0.0476  1.0199 -1.3877
   89SAPE   H4Y 8680   3.688   2.427   5.120  1.0112  0.3165 -1.6564
   89SAPE   C35 8681   3.681   2.644   5.083 -0.5233 -0.5360  0.2184
   89SAPE   H5X 8682   3.758   2.690   5.148 -0.7710 -0.3963  0.4136
   89SAPE   H5Y 8683   3.597   2.717   5.080 -0.2955 -0.2900 -0.2352
   89SAPE   C36 8684   3.737   2.631   4.943 -0.2132  0.5639 -0.2710
   89SAPE   H6X 8685   3.819   2.556   4.942 -1.3900 -0.7785  0.3490
   89SAPE   H6Y 8686   3.785   2.727   4.918  1.8104  0.1193  1.7840
   89SAPE   C37 8687   3.633   2.588   4.838  0.1418  0.0731 -0.9167
   89SAPE   H7X 8688   3.546   2.657   4.844  0.0968 -0.0104 -0.5910
   89SAPE   H7Y 8689   3.600   2.484   4.858  1.8561 -0.5310 -1.1574
   89SAPE   C38 8690   3.679   2.582   4.693  0.0808 -0.3342  1.0359
   89SAPE   H8X 8691   3.619   2.509   4.637  1.4797 -0.9085  0.2609
   89SAPE   H8Y 8692   3.788   2.558   4.691  0.3888  1.0613 -0.2188
   89SAPE   C39 8693   3.654   2.721   4.616 -0.2720  0.1262  0.3547
   89SAPE   H9X 8694   3.692   2.796   4.690 -0.9850  1.0925 -0.2487
   89SAPE   H9Y 8695   3.546   2.742   4.603 -0.0559  1.1899  0.1926
   89SAPE  C310 8696   3.742   2.758   4.494  0.7061  0.7047 -0.2035
   89SAPE  H10X 8697   3.843   2.718   4.518 -0.4035 -2.0151  0.1314
   89SAPE  H10Y 8698   3.739   2.869   4.488 -0.5780  0.8192  2.0422
   89SAPE  C311 8699   3.686   2.706   4.358 -0.1344  0.2260 -0.3956
   89SAPE  H11X 8700   3.720   2.766   4.271  1.5815  0.2844  0.2888
   89SAPE  H11Y 8701   3.575   2.716   4.360  0.0267  2.5891 -1.8044
   89SAPE  C312 8702   3.700   2.556   4.340 -0.0191  0.3707 -0.2203
   89SAPE  H12X 8703   3.634   2.507   4.415 -1.4113  1.1617 -0.9008
   89SAPE  H12Y 8704   3.797   2.513   4.372  2.0266  3.1958 -2.3951
   89SAPE  C313 8705   3.645   2.517   4.205 -0.0273  0.6610  0.8297
   89SAPE  H13X 8706   3.717   2.562   4.133 -0.3573 -0.2881 -0.1094
   89SAPE  H13Y 8707   3.542   2.555   4.189 -0.7438 -1.1679  0.8847
   89SAPE  C314 8708   3.641   2.367   4.167 -0.3286  0.5642  0.9088
   89SAPE  H14X 8709   3.546   2.321   4.203  0.3723  0.0041  2.0547
   89SAPE  H14Y 8710   3.724   2.313   4.217 -2.7515 -2.1583  2.1653
   89SAPE  C315 8711   3.655   2.355   4.015 -0.4611 -0.1058 -0.8344
   89SAPE  H15X 8712   3.748   2.403   3.980 -0.2744 -1.8164 -2.8117
   89SAPE  H15Y 8713   3.576   2.415   3.964 -0.3410  1.3714  0.7077
   89SAPE  C316 8714   3.660   2.206   3.971 -0.3957 -0.0743 -0.8540
   89SAPE  H16X 8715   3.634   2.179   3.866 -1.1091 -2.1189 -0.1837
   89SAPE  H16Y 8716   3.599   2.140   4.036  0.8589  0.5042  0.9541
   89SAPE  C317 8717   3.800   2.147   3.981  0.3691 -0.2987  0.4427
   89SAPE  H17X 8718   3.836   2.136   4.085  0.0110  2.1622  0.8394
   89SAPE  H17Y 8719   3.862   2.225   3.932  0.8915 -0.4496  0.8506
   89SAPE  C318 8720   3.820   2.015   3.902  0.1674 -0.1966  0.6601
   89SAPE  H18X 8721   3.793   2.035   3.796  0.7816  2.1907  0.9114
   89SAPE  H18Y 8722   3.745   1.940   3.934  1.2151 -1.7618 -0.4930
   89SAPE  H18Z 8723   3.923   1.975   3.907  0.1553 -0.4087 -0.7545
   90SAPE     N 8724   5.231   2.835   6.061  0.1702 -0.2816  0.4151
   90SAPE   HN1 8725   5.179   2.801   6.144  1.6654 -2.1633  0.6046
   90SAPE   HN2 8726   5.300   2.761   6.038 -0.0575 -0.0360 -1.1032
   90SAPE   HN3 8727   5.281   2.924   6.080 -1.9392  1.1639 -0.6599
   90SAPE   C12 8728   5.150   2.861   5.941  0.5921  0.1045 -0.8239
   90SAPE  H12A 8729   5.109   2.761   5.914  2.4020 -0.4954 -1.4096
   90SAPE  H12B 8730   5.217   2.898   5.861 -0.7566  0.5731 -1.7633
   90SAPE   C11 8731   5.046   2.975   5.963  0.0659 -0.6764  0.5643
   90SAPE  H11A 8732   4.977   2.946   6.045 -0.1584 -1.6985  0.0134
   90SAPE  H11B 8733   4.988   2.996   5.870  1.0115  0.9567  0.3128
   90SAPE     P 8734   5.109   3.233   5.945  0.0114 -0.0213  0.2354
   90SAPE   O13 8735   4.971   3.269   5.970 -0.6753  0.7624 -0.4431
   90SAPE   O14 8736   5.216   3.308   6.021 -0.1723  0.3045 -0.4827
   90SAPE   O12 8737   5.118   3.084   5.999  0.3932  0.2259 -0.1686
   90SAPE   O11 8738   5.148   3.221   5.798  0.1418  0.2280 -0.0897
   90SAPE    C1 8739   5.270   3.167   5.746 -0.1809  0.1604  0.0356
   90SAPE    HA 8740   5.339   3.123   5.821  1.4226  2.2609 -0.1645
   90SAPE    HB 8741   5.234   3.089   5.675  0.4139  0.0700 -0.1652
   90SAPE    C2 8742   5.341   3.280   5.669 -0.2607  0.5582 -0.6163
   90SAPE    HS 8743   5.387   3.359   5.732  1.5542 -1.0874  0.1779
   90SAPE   O21 8744   5.245   3.331   5.572  0.0729 -0.2003 -0.0848
   90SAPE   C21 8745   5.208   3.456   5.583 -0.0611 -0.4799 -0.8134
   90SAPE   O22 8746   5.265   3.540   5.659  0.1942 -0.0255 -0.7292
   90SAPE   C22 8747   5.107   3.488   5.474  0.1288  0.0148 -0.5141
   90SAPE   H2R 8748   5.026   3.413   5.467  0.0914  0.1907 -2.1405
   90SAPE   H2S 8749   5.046   3.578   5.499 -1.7905 -2.0298  2.5182
   90SAPE    C3 8750   5.472   3.228   5.601  0.0381  1.0508  0.3368
   90SAPE    HX 8751   5.540   3.201   5.685 -0.6923  0.8141  0.8572
   90SAPE    HY 8752   5.526   3.307   5.545 -2.5462  2.3372 -0.3717
   90SAPE   O31 8753   5.437   3.113   5.522 -0.4195 -0.4746  0.3300
   90SAPE   C31 8754   5.428   3.126   5.395 -0.1619  0.1680 -1.1889
   90SAPE   O32 8755   5.451   3.225   5.327 -0.5654 -0.0013  0.3467
   90SAPE   C32 8756   5.387   2.991   5.330 -0.9492  0.1416 -0.2775
   90SAPE   H2X 8757   5.394   2.911   5.407  1.6236  0.7575  0.1701
   90SAPE   H2Y 8758   5.463   2.975   5.250  0.9737 -1.6610  1.8275
   90SAPE   C23 8759   5.169   3.497   5.334 -0.7287 -0.2451 -0.2829
   90SAPE   H3R 8760   5.227   3.404   5.315 -0.8249 -0.4738  0.4922
   90SAPE   H3S 8761   5.232   3.588   5.336 -0.0676 -0.6510 -2.2220
   90SAPE   C24 8762   5.060   3.514   5.225 -0.2519  0.3925 -0.2043
   90SAPE   H4R 8763   4.997   3.599   5.261  0.6398  1.5663 -1.3763
   90SAPE   H4S 8764   4.990   3.427   5.224 -3.4850  2.8704  1.7869
   90SAPE   C25 8765   5.112   3.553   5.091 -0.6951  0.2988 -0.0686
   90SAPE   H5R 8766   5.144   3.659   5.094  0.5200 -0.0737  0.4176
   90SAPE   C26 8767   5.132   3.473   4.980  0.6345  0.5635 -0.0645
   90SAPE   H6R 8768   5.171   3.522   4.890  0.3125  1.1435  0.1116
   90SAPE   C27 8769   5.121   3.317   4.981 -0.0183 -0.1844 -0.2663
   90SAPE   H7R 8770   5.075   3.283   5.077 -0.4670 -0.1139 -0.4532
   90SAPE   H7S 8771   5.221   3.269   4.974  1.6621  3.0711  0.5017
   90SAPE   C28 8772   5.040   3.263   4.871  0.2082  0.7653  0.1863
   90SAPE   H8R 8773   4.979   3.337   4.816 -1.6131 -0.5576  0.3710
   90SAPE   C29 8774   5.028   3.135   4.833  0.0324  0.3734 -0.2043
   90SAPE   H9R 8775   4.975   3.120   4.738  1.5221 -3.2127 -0.5432
   90SAPE  C210 8776   5.102   3.015   4.881 -0.0810 -0.0641  0.0880
   90SAPE  H10R 8777   5.108   3.026   4.991  0.4077 -2.8918  0.3864
   90SAPE  H10S 8778   5.207   3.018   4.846  0.2786  3.2378  1.2895
   90SAPE  C211 8779   5.033   2.888   4.848 -0.4868 -0.2670  0.0970
   90SAPE  H11R 8780   4.926   2.879   4.874 -0.1302 -1.1959  1.2748
   90SAPE  C212 8781   5.096   2.788   4.784 -0.6180 -0.0838 -0.1732
   90SAPE  H12R 8782   5.031   2.703   4.759 -0.2836  0.1302 -1.7930
   90SAPE  C213 8783   5.234   2.775   4.728  0.7533 -0.3325  0.5244
   90SAPE  H13R 8784   5.275   2.875   4.700  1.8303 -0.3956  1.8567
   90SAPE  H13S 8785   5.229   2.715   4.635  0.1909 -2.7640  2.0977
   90SAPE  C214 8786   5.320   2.713   4.835 -0.0696 -0.6267  0.3010
   90SAPE  H14R 8787   5.320   2.752   4.938  1.4029  1.2042 -0.3463
   90SAPE  C215 8788   5.405   2.610   4.824  0.4013  0.8070  0.7767
   90SAPE  H15R 8789   5.443   2.580   4.923  0.4093 -0.3949  0.4168
   90SAPE  C216 8790   5.433   2.542   4.696 -0.2310 -0.0867 -0.4307
   90SAPE  H16R 8791   5.535   2.498   4.701 -1.0314 -1.7891  1.5732
   90SAPE  H16S 8792   5.418   2.612   4.610  0.0402 -0.3481 -0.6927
   90SAPE  C217 8793   5.341   2.428   4.648  0.5994  0.1976 -0.0009
   90SAPE  H17R 8794   5.236   2.461   4.634 -0.2736 -1.9851  1.0044
   90SAPE  H17S 8795   5.325   2.350   4.725 -2.0802  0.2795 -0.4379
   90SAPE  C218 8796   5.387   2.373   4.508 -0.3962 -0.0433 -0.4050
   90SAPE  H18R 8797   5.485   2.324   4.529 -1.3742 -1.1261  1.8431
   90SAPE  H18S 8798   5.406   2.459   4.440  2.0740  0.6154  1.0424
   90SAPE  C219 8799   5.304   2.268   4.448  0.4864 -0.5216 -0.0753
   90SAPE  H19R 8800   5.361   2.236   4.358  2.1765  1.2268  0.3635
   90SAPE  H19S 8801   5.205   2.308   4.417  0.7674  0.9381  0.8727
   90SAPE  C220 8802   5.266   2.154   4.542 -0.0953 -0.2709  0.2282
   90SAPE  H20R 8803   5.364   2.110   4.570 -0.7367  0.1829  3.2626
   90SAPE  H20S 8804   5.200   2.082   4.489 -0.2386  0.4417 -0.5736
   90SAPE  H20T 8805   5.222   2.178   4.641 -0.2871  1.1251 -0.1903
   90SAPE   C33 8806   5.251   3.007   5.256  0.1400 -0.5161  0.7575
   90SAPE   H3X 8807   5.248   2.913   5.196 -1.0307 -1.5039  2.3061
   90SAPE   H3Y 8808   5.259   3.088   5.181  2.4763 -0.8968  0.5378
   90SAPE   C34 8809   5.131   3.022   5.346 -0.7574 -0.6063 -0.6487
   90SAPE   H4X 8810   5.041   3.036   5.283 -0.9406 -2.7859 -0.9136
   90SAPE   H4Y 8811   5.145   3.117   5.401  2.6070 -0.4729 -1.6027
   90SAPE   C35 8812   5.111   2.904   5.446  0.2350  0.0135  0.5693
   90SAPE   H5X 8813   5.011   2.919   5.493 -1.0794  2.1410 -2.7289
   90SAPE   H5Y 8814   5.185   2.900   5.529 -1.3075 -0.7503  1.9479
   90SAPE   C36 8815   5.118   2.768   5.375  0.3586 -0.2288 -0.1330
   90SAPE   H6X 8816   5.085   2.692   5.450 -0.6172  1.0658  0.7685
   90SAPE   H6Y 8817   5.216   2.734   5.337 -0.4977 -0.6404 -2.0365
   90SAPE   C37 8818   5.010   2.753   5.271  1.0756 -0.6413  0.1442
   90SAPE   H7X 8819   5.050   2.808   5.183  0.7936 -1.0019 -0.2132
   90SAPE   H7Y 8820   4.919   2.793   5.320  0.7356 -0.9305 -0.2457
   90SAPE   C38 8821   4.970   2.607   5.226 -0.4635  0.3041 -0.7728
   90SAPE   H8X 8822   4.954   2.543   5.315  0.0023  0.1034 -0.8324
   90SAPE   H8Y 8823   5.050   2.559   5.166 -2.4132 -0.8298 -2.5136
   90SAPE   C39 8824   4.833   2.595   5.156  0.3589  0.2432  0.3685
   90SAPE   H9X 8825   4.749   2.614   5.226 -1.4417 -2.2124 -1.0402
   90SAPE   H9Y 8826   4.826   2.490   5.119 -1.1553  0.2355  0.6609
   90SAPE  C310 8827   4.816   2.695   5.042 -0.1447 -0.4394  0.1611
   90SAPE  H10X 8828   4.903   2.680   4.974  1.3835  0.3263  1.8781
   90SAPE  H10Y 8829   4.812   2.801   5.076  0.4196 -0.7617  1.2791
   90SAPE  C311 8830   4.695   2.658   4.964  0.0302  0.4173  0.5604
   90SAPE  H11X 8831   4.601   2.669   5.022 -0.8859  2.0273 -1.2043
   90SAPE  H11Y 8832   4.701   2.549   4.944 -0.8347  0.1220  1.8446
   90SAPE  C312 8833   4.669   2.746   4.847  0.2660  0.6797 -0.0528
   90SAPE  H12X 8834   4.630   2.697   4.755  2.1342  0.3012 -0.6619
   90SAPE  H12Y 8835   4.768   2.786   4.816  0.8322  0.1449  1.0776
   90SAPE  C313 8836   4.563   2.860   4.863  0.5663 -0.8647 -0.2570
   90SAPE  H13X 8837   4.606   2.912   4.952  0.8866 -1.5718  0.0014
   90SAPE  H13Y 8838   4.463   2.818   4.889  0.0476 -0.1178 -1.0146
   90SAPE  C314 8839   4.542   2.947   4.741  0.1041  0.5606 -0.6668
   90SAPE  H14X 8840   4.440   2.990   4.747 -0.3245 -0.5526  0.0350
   90SAPE  H14Y 8841   4.532   2.889   4.647  1.7636 -0.6971 -0.0850
   90SAPE  C315 8842   4.643   3.057   4.729 -0.0483 -0.3040  0.3737
   90SAPE  H15X 8843   4.743   3.015   4.752 -0.1879 -0.2051  1.1718
   90SAPE  H15Y 8844   4.620   3.138   4.802 -1.7544 -0.0239 -0.4534
   90SAPE  C316 8845   4.667   3.104   4.588  0.1442 -0.3856  0.1036
   90SAPE  H16X 8846   4.692   3.018   4.522 -1.2727 -1.1043  0.4869
   90SAPE  H16Y 8847   4.762   3.161   4.595  0.3343 -1.0587  3.3286
   90SAPE  C317 8848   4.564   3.195   4.520 -0.0349  0.9001  0.4864
   90SAPE  H17X 8849   4.555   3.288   4.580  1.3310  1.0797  0.4194
   90SAPE  H17Y 8850   4.470   3.134   4.528  1.4139 -1.2855  1.3647
   90SAPE  C318 8851   4.581   3.219   4.371  0.2357  0.2918  0.6590
   90SAPE  H18X 8852   4.485   3.255   4.328 -0.2647 -2.0799 -0.3122
   90SAPE  H18Y 8853   4.614   3.122   4.327  2.3176  1.3411 -0.1818
   90SAPE  H18Z 8854   4.673   3.281   4.367  1.4663 -1.5047  0.0720
   91SAPE     N 8855   1.411   3.580   5.828 -0.0257  0.5497 -0.5640
   91SAPE   HN1 8856   1.447   3.676   5.846 -3.8271  2.4371 -2.5745
   91SAPE   HN2 8857   1.433   3.566   5.727  1.3020  2.0236 -0.4873
   91SAPE   HN3 8858   1.308   3.589   5.831  0.0072  0.3455  2.5621
   91SAPE   C12 8859   1.481   3.480   5.918  0.1682  0.0385 -0.1094
   91SAPE  H12A 8860   1.414   3.394   5.939  1.5371 -1.2976 -1.1734
   91SAPE  H12B 8861   1.490   3.537   6.013 -0.6203 -2.0174  1.2253
   91SAPE   C11 8862   1.615   3.436   5.862 -0.2718  0.2240 -0.5834
   91SAPE  H11A 8863   1.602   3.385   5.764  1.6517  0.4079 -0.9507
   91SAPE  H11B 8864   1.666   3.365   5.931  0.1596 -0.5188 -1.6556
   91SAPE     P 8865   1.846   3.528   5.812  0.2412  0.1028  0.2943
   91SAPE   O13 8866   1.914   3.642   5.873  0.2020 -0.2486  0.1925
   91SAPE   O14 8867   1.887   3.392   5.850  0.1607 -0.1543 -0.0051
   91SAPE   O12 8868   1.697   3.545   5.836  0.2917 -0.0163 -0.0680
   91SAPE   O11 8869   1.857   3.537   5.655 -0.3992  0.5462 -0.1249
   91SAPE    C1 8870   1.805   3.653   5.589 -0.2183 -0.2285  0.1006
   91SAPE    HA 8871   1.769   3.617   5.490  0.4641  1.4817 -0.7818
   91SAPE    HB 8872   1.719   3.699   5.643 -0.2775  1.2050 -1.1844
   91SAPE    C2 8873   1.898   3.774   5.567  0.1257 -0.0563 -0.1666
   91SAPE    HS 8874   1.910   3.819   5.668 -1.8010 -0.2550  0.1724
   91SAPE   O21 8875   1.837   3.865   5.469  0.3017  0.0099  0.2081
   91SAPE   C21 8876   1.872   3.986   5.464  0.0136  0.6451 -0.0605
   91SAPE   O22 8877   1.939   4.048   5.543 -0.0702  0.2620  0.5250
   91SAPE   C22 8878   1.834   4.047   5.328  0.1298 -0.6706 -0.0946
   91SAPE   H2R 8879   1.726   4.068   5.345  0.6784 -0.0584  2.7943
   91SAPE   H2S 8880   1.891   4.141   5.311  1.2403 -1.3439 -0.1350
   91SAPE    C3 8881   2.037   3.728   5.515 -0.6951 -0.1938  0.6520
   91SAPE    HX 8882   2.088   3.675   5.598 -2.0991  0.2718  1.8388
   91SAPE    HY 8883   2.097   3.816   5.484 -2.3590  0.7915  0.1249
   91SAPE   O31 8884   2.022   3.630   5.406  0.6006 -0.0761  0.2986
   91SAPE   C31 8885   2.053   3.502   5.423 -0.2193  0.1430  0.0495
   91SAPE   O32 8886   2.117   3.459   5.515 -0.0528  0.0419 -0.0326
   91SAPE   C32 8887   1.977   3.414   5.324 -0.2395  0.1060  0.8231
   91SAPE   H2X 8888   1.899   3.348   5.368 -0.3000  1.3239  2.6001
   91SAPE   H2Y 8889   2.058   3.346   5.289  0.4178  1.0037  0.5850
   91SAPE   C23 8890   1.853   3.955   5.204 -0.6760  0.1088 -0.4998
   91SAPE   H3R 8891   1.810   4.001   5.113 -0.3918  0.1800 -0.5975
   91SAPE   H3S 8892   1.792   3.868   5.239 -1.9278  0.7455 -1.0886
   91SAPE   C24 8893   2.001   3.908   5.180  0.0822  0.2314 -0.4602
   91SAPE   H4R 8894   1.989   3.831   5.101 -1.8003  0.2250 -0.1896
   91SAPE   H4S 8895   2.047   3.855   5.266  0.8224  0.9031 -0.4435
   91SAPE   C25 8896   2.101   4.024   5.148 -0.7083 -0.2259  0.5067
   91SAPE   H5R 8897   2.116   4.095   5.231 -1.7118  1.1141 -0.4565
   91SAPE   C26 8898   2.183   4.048   5.042  0.7488 -0.3516  0.0860
   91SAPE   H6R 8899   2.238   4.143   5.049 -0.0355 -0.0253  2.4792
   91SAPE   C27 8900   2.194   3.965   4.921 -0.4807  0.3183 -0.4905
   91SAPE   H7R 8901   2.239   4.036   4.847 -0.4576 -0.4627 -1.2348
   91SAPE   H7S 8902   2.097   3.939   4.874  1.2291 -2.6510 -2.5747
   91SAPE   C28 8903   2.278   3.844   4.947  0.6631  0.9382  0.2714
   91SAPE   H8R 8904   2.313   3.828   5.050  1.3538 -1.8627 -0.3476
   91SAPE   C29 8905   2.300   3.749   4.854 -0.7720  0.5492  0.6549
   91SAPE   H9R 8906   2.356   3.658   4.877 -1.9151 -0.4874 -0.5504
   91SAPE  C210 8907   2.251   3.748   4.711 -0.2505  0.3447 -0.3081
   91SAPE  H10R 8908   2.203   3.847   4.695 -0.3463  0.7243  2.1745
   91SAPE  H10S 8909   2.164   3.679   4.717 -0.9859  1.2672 -0.2647
   91SAPE  C211 8910   2.341   3.703   4.599 -0.2885 -0.5547 -0.5230
   91SAPE  H11R 8911   2.391   3.780   4.537  0.9243 -0.0274  1.0709
   91SAPE  C212 8912   2.368   3.575   4.569 -0.5235 -0.0712 -0.5394
   91SAPE  H12R 8913   2.445   3.553   4.494  2.1296  1.1272  1.7359
   91SAPE  C213 8914   2.313   3.442   4.626 -0.2752 -0.1808  0.4241
   91SAPE  H13R 8915   2.264   3.390   4.542 -0.3966  1.3802 -0.4963
   91SAPE  H13S 8916   2.230   3.450   4.699  0.1301  0.7628  0.8022
   91SAPE  C214 8917   2.432   3.373   4.689 -0.0920  0.0633  0.2276
   91SAPE  H14R 8918   2.519   3.343   4.629 -0.7366  2.7692 -2.1262
   91SAPE  C215 8919   2.452   3.340   4.816 -0.1322  0.2081 -0.2503
   91SAPE  H15R 8920   2.538   3.281   4.848  0.1121 -0.5180 -2.1937
   91SAPE  C216 8921   2.353   3.376   4.927 -0.1494  0.3314  0.2606
   91SAPE  H16R 8922   2.307   3.287   4.976 -1.9946  1.9130  1.4481
   91SAPE  H16S 8923   2.266   3.441   4.907 -1.5649 -1.3389  0.8262
   91SAPE  C217 8924   2.427   3.446   5.043  0.0441 -0.9980 -0.0864
   91SAPE  H17R 8925   2.480   3.536   5.004 -3.2016  1.3593  0.6489
   91SAPE  H17S 8926   2.508   3.381   5.081  1.1614 -1.1241 -2.5832
   91SAPE  C218 8927   2.325   3.486   5.145  0.0945 -0.5793  0.1597
   91SAPE  H18R 8928   2.275   3.403   5.199 -3.5299  0.2302 -1.8127
   91SAPE  H18S 8929   2.244   3.536   5.088 -1.1976 -1.0615  1.5447
   91SAPE  C219 8930   2.377   3.582   5.262 -0.1026  0.0227  0.0591
   91SAPE  H19R 8931   2.291   3.641   5.297 -2.1081 -2.5248 -0.3794
   91SAPE  H19S 8932   2.464   3.641   5.227 -1.1748  0.9795 -1.0322
   91SAPE  C220 8933   2.416   3.499   5.386  0.5029  0.2768 -0.1313
   91SAPE  H20R 8934   2.343   3.423   5.422 -3.8934  3.5057 -1.8000
   91SAPE  H20S 8935   2.439   3.566   5.471 -1.2100 -2.2292  2.4242
   91SAPE  H20T 8936   2.518   3.460   5.365  1.1475  1.6100  0.4844
   91SAPE   C33 8937   1.914   3.486   5.205  0.0624 -0.4083  1.2728
   91SAPE   H3X 8938   1.988   3.550   5.152 -0.9441  0.1474  0.5229
   91SAPE   H3Y 8939   1.830   3.551   5.238  0.1760 -0.0344  0.8154
   91SAPE   C34 8940   1.860   3.392   5.095 -0.1181 -0.4623  0.0947
   91SAPE   H4X 8941   1.825   3.297   5.140  0.1959 -0.8089 -0.3827
   91SAPE   H4Y 8942   1.940   3.377   5.018 -0.2262  0.4180 -0.1997
   91SAPE   C35 8943   1.743   3.445   5.017 -0.5732 -0.0016  0.6287
   91SAPE   H5X 8944   1.651   3.440   5.079 -0.9370 -2.6393 -0.0807
   91SAPE   H5Y 8945   1.722   3.370   4.938  0.3515 -0.1535  0.5181
   91SAPE   C36 8946   1.763   3.586   4.958 -0.4121  0.5037  0.0346
   91SAPE   H6X 8947   1.869   3.596   4.928 -0.2060 -1.3881  0.0928
   91SAPE   H6Y 8948   1.738   3.662   5.035 -2.2831 -0.7605  0.7227
   91SAPE   C37 8949   1.670   3.600   4.837 -0.7274 -0.3953  0.2618
   91SAPE   H7X 8950   1.567   3.577   4.870 -1.2656 -0.6535 -1.5087
   91SAPE   H7Y 8951   1.707   3.536   4.753  0.3776  0.8129 -0.1884
   91SAPE   C38 8952   1.676   3.741   4.775  0.7246 -0.3754  0.0464
   91SAPE   H8X 8953   1.689   3.820   4.851 -2.0910  0.3510 -0.1638
   91SAPE   H8Y 8954   1.580   3.771   4.726  1.4185  0.9578 -0.5112
   91SAPE   C39 8955   1.792   3.751   4.676  0.6100 -0.2089  0.6459
   91SAPE   H9X 8956   1.772   3.674   4.598  0.2640 -0.5105  1.0331
   91SAPE   H9Y 8957   1.886   3.734   4.734  1.4208 -0.0918 -0.6217
   91SAPE  C310 8958   1.804   3.894   4.626 -0.8197 -0.1514 -0.3348
   91SAPE  H10X 8959   1.783   3.963   4.710 -1.8568  2.2089 -2.4336
   91SAPE  H10Y 8960   1.717   3.914   4.560  0.5680  0.2551 -2.0858
   91SAPE  C311 8961   1.933   3.928   4.548 -0.5956  0.0143  0.5960
   91SAPE  H11X 8962   2.004   3.935   4.633 -1.6324  0.5939  1.4250
   91SAPE  H11Y 8963   1.904   4.021   4.494  1.0080  0.4468  0.4682
   91SAPE  C312 8964   1.981   3.815   4.463 -0.2828  0.5344  0.4650
   91SAPE  H12X 8965   1.893   3.790   4.401  1.0073  1.2449 -1.6987
   91SAPE  H12Y 8966   2.020   3.734   4.529  0.2412  0.6572  0.3109
   91SAPE  C313 8967   2.102   3.850   4.370  0.6672 -0.1530  0.0042
   91SAPE  H13X 8968   2.192   3.900   4.412  0.6468 -0.2208  0.1289
   91SAPE  H13Y 8969   2.069   3.920   4.290  1.9879 -0.0265 -0.4385
   91SAPE  C314 8970   2.157   3.729   4.287  0.1921  0.0330  0.4995
   91SAPE  H14X 8971   2.085   3.675   4.221  0.4209  2.1669 -1.5649
   91SAPE  H14Y 8972   2.197   3.656   4.360  1.8942  2.2003  1.7789
   91SAPE  C315 8973   2.269   3.775   4.184  0.1708  0.2690  0.3881
   91SAPE  H15X 8974   2.347   3.824   4.247  2.1723 -0.6259 -1.3387
   91SAPE  H15Y 8975   2.229   3.852   4.116 -1.0289 -0.7990 -0.1191
   91SAPE  C316 8976   2.349   3.665   4.112 -0.4075 -0.1773  0.3177
   91SAPE  H16X 8977   2.377   3.588   4.186  1.5637  1.9980  1.9059
   91SAPE  H16Y 8978   2.449   3.707   4.086 -0.0079 -3.0790 -3.1949
   91SAPE  C317 8979   2.270   3.609   3.987 -0.4236 -0.2934  0.4001
   91SAPE  H17X 8980   2.161   3.610   4.010  0.3840  0.8230  4.4047
   91SAPE  H17Y 8981   2.316   3.508   3.977  0.0345  0.0609 -1.3932
   91SAPE  C318 8982   2.305   3.678   3.856 -0.1530 -0.2843 -1.1822
   91SAPE  H18X 8983   2.293   3.616   3.764  0.5643  0.6052 -1.8932
   91SAPE  H18Y 8984   2.405   3.724   3.866 -2.2101  3.5935  3.9879
   91SAPE  H18Z 8985   2.252   3.776   3.848  0.2978  0.1926  1.3728
   92SAPE     N 8986   2.617   5.579   6.282 -0.1210  0.1862  0.2979
   92SAPE   HN1 8987   2.683   5.522   6.338 -0.1277  0.5259  0.6569
   92SAPE   HN2 8988   2.632   5.681   6.300 -0.3820  0.0865  1.0868
   92SAPE   HN3 8989   2.518   5.556   6.305 -0.6560 -0.0543 -2.0702
   92SAPE   C12 8990   2.633   5.571   6.134  0.3754 -0.1977 -0.1297
   92SAPE  H12A 8991   2.591   5.662   6.086 -0.2272 -0.0669  0.6376
   92SAPE  H12B 8992   2.564   5.490   6.102  0.2255 -0.1941  0.1910
   92SAPE   C11 8993   2.773   5.549   6.090 -0.1046  0.4108  0.3070
   92SAPE  H11A 8994   2.830   5.636   6.129 -0.2843  0.3728  0.6555
   92SAPE  H11B 8995   2.778   5.554   5.979 -0.2778 -2.9468  0.0968
   92SAPE     P 8996   2.813   5.291   6.084 -0.3045  0.2595 -0.5190
   92SAPE   O13 8997   2.903   5.194   6.152 -0.2473  0.1008 -0.0795
   92SAPE   O14 8998   2.668   5.261   6.089  0.1636 -0.3980  0.3464
   92SAPE   O12 8999   2.845   5.438   6.145  0.0676  0.0682  0.3471
   92SAPE   O11 9000   2.852   5.311   5.930  0.6570 -0.1126 -0.5397
   92SAPE    C1 9001   2.778   5.254   5.825 -0.0766 -0.0416 -0.0447
   92SAPE    HA 9002   2.680   5.213   5.857  0.2735  0.5309  1.7704
   92SAPE    HB 9003   2.757   5.342   5.761  0.6604 -0.0972 -0.3741
   92SAPE    C2 9004   2.850   5.144   5.734 -0.0439 -0.2198  0.7293
   92SAPE    HS 9005   2.837   5.056   5.800 -1.1641 -0.0219  0.7942
   92SAPE   O21 9006   2.984   5.191   5.707  0.0605 -0.1956  0.1028
   92SAPE   C21 9007   3.074   5.092   5.684  0.4913 -0.3079  0.5995
   92SAPE   O22 9008   3.044   4.974   5.685  0.3841  0.0406  0.0252
   92SAPE   C22 9009   3.211   5.144   5.635 -0.0420 -0.3175  0.4334
   92SAPE   H2R 9010   3.225   5.246   5.676 -0.2106  0.5382 -1.5480
   92SAPE   H2S 9011   3.286   5.076   5.680 -1.8922 -1.0461  2.5073
   92SAPE    C3 9012   2.777   5.106   5.611  0.0035 -0.1170  0.1322
   92SAPE    HX 9013   2.671   5.075   5.624  1.1258 -3.7856  1.1245
   92SAPE    HY 9014   2.812   5.009   5.570 -0.2286  0.4161 -1.3225
   92SAPE   O31 9015   2.799   5.199   5.505 -0.4589 -0.2035  0.2003
   92SAPE   C31 9016   2.706   5.282   5.465  0.4506 -0.8185  0.0973
   92SAPE   O32 9017   2.587   5.276   5.481 -0.5544 -0.0836  0.2232
   92SAPE   C32 9018   2.765   5.397   5.397 -0.5487  0.5357 -0.0933
   92SAPE   H2X 9019   2.866   5.360   5.369 -0.7443 -3.1413  3.6178
   92SAPE   H2Y 9020   2.788   5.478   5.470 -1.2792 -0.5351  1.3402
   92SAPE   C23 9021   3.225   5.140   5.479  0.4834 -0.1285 -0.2792
   92SAPE   H3R 9022   3.127   5.165   5.433  0.4717  1.3245  0.5182
   92SAPE   H3S 9023   3.257   5.037   5.449  1.1042  0.6207 -2.2558
   92SAPE   C24 9024   3.326   5.234   5.423 -0.1195 -0.2845  0.1554
   92SAPE   H4R 9025   3.370   5.210   5.324  0.7530 -1.4069  0.7938
   92SAPE   H4S 9026   3.412   5.222   5.492 -0.2446  0.2848  0.4123
   92SAPE   C25 9027   3.286   5.378   5.425 -0.3287 -0.9045 -0.4280
   92SAPE   H5R 9028   3.275   5.418   5.526  3.4042  1.1288 -0.7579
   92SAPE   C26 9029   3.280   5.465   5.317 -0.3372 -0.2172 -0.2962
   92SAPE   H6R 9030   3.230   5.560   5.340 -1.3835 -0.4387 -1.6047
   92SAPE   C27 9031   3.301   5.440   5.176  0.3643 -0.3982  0.5204
   92SAPE   H7R 9032   3.387   5.373   5.157  0.3395 -0.3218  0.1384
   92SAPE   H7S 9033   3.333   5.534   5.126 -0.7487  0.2161  0.9388
   92SAPE   C28 9034   3.185   5.388   5.097 -0.2181 -0.4617  0.0675
   92SAPE   H8R 9035   3.096   5.371   5.159 -0.1179  1.0013  0.6273
   92SAPE   C29 9036   3.178   5.359   4.968 -0.7643  0.1867 -0.5155
   92SAPE   H9R 9037   3.080   5.350   4.920 -0.8436  1.4002 -0.6105
   92SAPE  C210 9038   3.283   5.366   4.856  0.6047  0.3012 -0.1369
   92SAPE  H10R 9039   3.292   5.262   4.816 -1.4006 -0.3976  1.1392
   92SAPE  H10S 9040   3.383   5.385   4.900  0.1292 -0.8720  1.4955
   92SAPE  C211 9041   3.262   5.468   4.752 -0.1123  0.2495 -0.2238
   92SAPE  H11R 9042   3.283   5.572   4.782 -0.4485 -0.1891  1.5912
   92SAPE  C212 9043   3.200   5.443   4.635  0.7269 -0.3254 -0.1181
   92SAPE  H12R 9044   3.177   5.525   4.565 -1.3102 -2.1755 -1.7191
   92SAPE  C213 9045   3.157   5.307   4.582  0.1625 -0.1139 -0.3212
   92SAPE  H13R 9046   3.160   5.231   4.662  2.0990  0.1696 -0.0934
   92SAPE  H13S 9047   3.229   5.282   4.501 -0.7188  4.1399 -2.5517
   92SAPE  C214 9048   3.019   5.310   4.517  0.7703  0.2945 -0.8010
   92SAPE  H14R 9049   3.029   5.326   4.409 -0.2527 -0.5719 -1.0209
   92SAPE  C215 9050   2.894   5.317   4.571 -0.2439 -0.6249  0.0932
   92SAPE  H15R 9051   2.804   5.329   4.509  0.1887 -0.0421 -0.4252
   92SAPE  C216 9052   2.870   5.325   4.721  0.4478  0.7312 -0.2028
   92SAPE  H16R 9053   2.769   5.365   4.742 -0.3529 -0.5836 -1.4952
   92SAPE  H16S 9054   2.936   5.393   4.780  1.2768  0.2085 -0.5278
   92SAPE  C217 9055   2.883   5.187   4.787  0.1287 -0.1085  0.7101
   92SAPE  H17R 9056   2.985   5.146   4.773 -0.0436 -0.9690  1.8960
   92SAPE  H17S 9057   2.815   5.107   4.750 -0.8424  0.5697  1.0151
   92SAPE  C218 9058   2.854   5.187   4.938 -0.0530  0.5814  0.5596
   92SAPE  H18R 9059   2.751   5.152   4.964 -0.0206 -0.1425 -0.2704
   92SAPE  H18S 9060   2.862   5.293   4.972  0.3839  0.5893  0.4248
   92SAPE  C219 9061   2.944   5.095   5.011 -0.4443 -0.2461 -0.8536
   92SAPE  H19R 9062   3.049   5.130   5.002  0.3216 -2.0411  0.9190
   92SAPE  H19S 9063   2.943   4.988   4.982  0.3655 -0.3197 -0.6185
   92SAPE  C220 9064   2.911   5.092   5.164 -0.3747  0.0826 -0.5754
   92SAPE  H20R 9065   2.928   5.196   5.202  2.1907 -0.2720 -0.6190
   92SAPE  H20S 9066   2.979   5.025   5.220  1.4306  0.6700 -2.0144
   92SAPE  H20T 9067   2.810   5.050   5.179  0.4408 -2.3169 -1.6953
   92SAPE   C33 9068   2.700   5.433   5.260  0.6558 -0.7381 -0.2176
   92SAPE   H3X 9069   2.595   5.464   5.279  0.6856 -1.2672  0.8128
   92SAPE   H3Y 9070   2.697   5.342   5.197  0.8813  1.0238 -2.8800
   92SAPE   C34 9071   2.785   5.552   5.187 -0.0166  0.5613  0.0128
   92SAPE   H4X 9072   2.875   5.500   5.147 -1.7363 -0.9002 -2.1087
   92SAPE   H4Y 9073   2.816   5.612   5.275 -1.2293  0.0633  0.7904
   92SAPE   C35 9074   2.700   5.614   5.087  0.2721 -0.1277 -0.1832
   92SAPE   H5X 9075   2.607   5.648   5.137  0.9972  2.2424 -0.4001
   92SAPE   H5Y 9076   2.664   5.537   5.016 -1.0290 -0.9311  1.3168
   92SAPE   C36 9077   2.772   5.726   5.007  0.0746  0.5761 -0.0178
   92SAPE   H6X 9078   2.795   5.798   5.089 -1.9645  1.5515 -0.2748
   92SAPE   H6Y 9079   2.698   5.773   4.938  0.2955  0.4735 -0.3224
   92SAPE   C37 9080   2.899   5.690   4.935 -0.1953  0.3578  0.1808
   92SAPE   H7X 9081   2.863   5.625   4.853  0.5094  2.0203 -1.4960
   92SAPE   H7Y 9082   2.972   5.627   4.991 -1.6972 -0.0879  1.6581
   92SAPE   C38 9083   2.955   5.820   4.867 -0.5536 -0.1274 -0.0320
   92SAPE   H8X 9084   2.968   5.892   4.951  0.0474  1.7647 -1.7031
   92SAPE   H8Y 9085   2.874   5.852   4.798 -1.3133 -0.1590  0.8416
   92SAPE   C39 9086   3.088   5.802   4.800 -0.0304  0.0976  0.3829
   92SAPE   H9X 9087   3.079   5.707   4.743  0.1196 -0.0754  0.6487
   92SAPE   H9Y 9088   3.168   5.795   4.876  1.2864  2.2981 -0.7335
   92SAPE  C310 9089   3.128   5.906   4.693 -0.1660 -0.0819  0.1712
   92SAPE  H10X 9090   3.158   6.001   4.742 -2.2562 -0.2899  1.9467
   92SAPE  H10Y 9091   3.038   5.939   4.637  0.4734  0.6601 -0.4239
   92SAPE  C311 9092   3.237   5.855   4.593 -0.4540  0.1263 -0.1867
   92SAPE  H11X 9093   3.232   5.919   4.502 -0.4774  0.7711  0.2672
   92SAPE  H11Y 9094   3.215   5.751   4.563  2.4499 -1.4719  2.9830
   92SAPE  C312 9095   3.375   5.876   4.648 -0.5647  0.9041  0.4673
   92SAPE  H12X 9096   3.392   5.802   4.730  0.6854 -1.7934 -2.1169
   92SAPE  H12Y 9097   3.401   5.978   4.681  0.5995  0.5654  0.6242
   92SAPE  C313 9098   3.491   5.825   4.555  0.6150  0.4479 -0.3945
   92SAPE  H13X 9099   3.489   5.883   4.460  0.4849  1.3116  0.1306
   92SAPE  H13Y 9100   3.476   5.717   4.534  1.6388 -0.1206  1.6339
   92SAPE  C314 9101   3.630   5.831   4.623 -0.7885 -0.1029  0.0149
   92SAPE  H14X 9102   3.607   5.794   4.725 -1.8336  2.9151  0.9212
   92SAPE  H14Y 9103   3.651   5.940   4.630  2.0943 -0.7309  1.7140
   92SAPE  C315 9104   3.754   5.765   4.550  0.9146 -0.1596 -0.6892
   92SAPE  H15X 9105   3.749   5.654   4.546 -4.0570 -0.0464 -0.3713
   92SAPE  H15Y 9106   3.844   5.792   4.610 -0.4467 -1.8270  2.1957
   92SAPE  C316 9107   3.768   5.809   4.409  0.2386  0.7660 -0.1075
   92SAPE  H16X 9108   3.760   5.920   4.405 -2.0935  0.6550  0.5824
   92SAPE  H16Y 9109   3.691   5.757   4.348  1.3262  0.4107 -1.1822
   92SAPE  C317 9110   3.904   5.759   4.351 -0.2834  0.8966  0.8863
   92SAPE  H17X 9111   3.898   5.649   4.338 -1.1301  1.0342  0.0651
   92SAPE  H17Y 9112   3.981   5.787   4.426  0.8250  1.4921 -0.4632
   92SAPE  C318 9113   3.938   5.822   4.210  0.2216 -0.7200 -0.4243
   92SAPE  H18X 9114   3.853   5.803   4.140 -0.9715 -1.6434  1.2357
   92SAPE  H18Y 9115   4.035   5.789   4.168  0.0721 -0.8141 -0.7023
   92SAPE  H18Z 9116   3.947   5.931   4.231  0.6904 -0.2311 -3.0218
   93SAPE     N 9117   5.634   3.642   6.178  0.4097 -0.0310  0.0605
   93SAPE   HN1 9118   5.612   3.615   6.080  0.3282  1.1492 -0.2527
   93SAPE   HN2 9119   5.593   3.728   6.220 -1.2360 -0.6135 -0.2871
   93SAPE   HN3 9120   5.735   3.665   6.173  0.0077  1.5704 -0.8556
   93SAPE   C12 9121   5.607   3.519   6.262 -0.1636  0.4519 -0.0617
   93SAPE  H12A 9122   5.502   3.492   6.234 -0.7626  1.4189  1.2268
   93SAPE  H12B 9123   5.612   3.547   6.369  1.2882 -2.1539  0.5994
   93SAPE   C11 9124   5.702   3.405   6.233 -0.5065 -0.4483 -0.4862
   93SAPE  H11A 9125   5.673   3.326   6.305  0.8358 -0.9509 -0.4860
   93SAPE  H11B 9126   5.808   3.437   6.244 -0.3268  0.4119 -4.2147
   93SAPE     P 9127   5.697   3.212   6.051 -0.1836 -0.0281 -0.0983
   93SAPE   O13 9128   5.712   3.133   6.176  0.1361  0.1889  0.3333
   93SAPE   O14 9129   5.584   3.168   5.957 -0.2477 -0.2965 -1.1087
   93SAPE   O12 9130   5.678   3.364   6.097  0.2693  0.5269 -0.1077
   93SAPE   O11 9131   5.839   3.202   5.975  0.1389 -0.3504  0.1758
   93SAPE    C1 9132   5.959   3.274   5.993  0.4930  0.0346  0.3479
   93SAPE    HA 9133   5.973   3.294   6.101  0.2926  4.0794 -0.3199
   93SAPE    HB 9134   6.046   3.213   5.960  0.3724  1.2869 -2.4411
   93SAPE    C2 9135   5.965   3.413   5.913 -0.6818 -0.4102 -0.0833
   93SAPE    HS 9136   5.891   3.478   5.965 -0.8021 -1.8277  1.5809
   93SAPE   O21 9137   5.947   3.390   5.771 -0.3263 -0.4122  0.2235
   93SAPE   C21 9138   5.827   3.417   5.724  0.0276 -0.0316  0.4448
   93SAPE   O22 9139   5.729   3.446   5.792  0.5000 -0.5931 -0.0537
   93SAPE   C22 9140   5.831   3.401   5.570 -0.4155 -0.4740 -0.1079
   93SAPE   H2R 9141   5.739   3.453   5.538  0.9400  1.3138 -1.1890
   93SAPE   H2S 9142   5.904   3.475   5.530  1.4088 -0.5274  2.9389
   93SAPE    C3 9143   6.102   3.478   5.948 -0.9568  0.4976 -0.2963
   93SAPE    HX 9144   6.105   3.503   6.056  0.3706  0.4218 -0.3079
   93SAPE    HY 9145   6.106   3.576   5.896  0.0538  0.7202  0.1848
   93SAPE   O31 9146   6.210   3.396   5.902 -0.1014  0.1487 -0.7509
   93SAPE   C31 9147   6.236   3.401   5.776  0.3773 -0.7849 -0.5107
   93SAPE   O32 9148   6.223   3.491   5.696  0.9358  0.2284 -0.2906
   93SAPE   C32 9149   6.296   3.256   5.748 -0.0619 -0.4393 -0.4407
   93SAPE   H2X 9150   6.211   3.186   5.768  0.9579 -1.7438 -0.6062
   93SAPE   H2Y 9151   6.370   3.240   5.829  0.2884 -0.0086 -0.6764
   93SAPE   C23 9152   5.859   3.256   5.530  0.2496 -0.4267 -0.3323
   93SAPE   H3R 9153   5.786   3.181   5.567 -0.2115 -0.0084 -0.3968
   93SAPE   H3S 9154   5.959   3.230   5.572  0.3143  2.6628  1.5721
   93SAPE   C24 9155   5.860   3.252   5.377  0.1722  0.1077 -0.7796
   93SAPE   H4R 9156   5.935   3.331   5.353 -0.7176  0.7692 -1.4220
   93SAPE   H4S 9157   5.768   3.302   5.338 -0.1039 -1.0431 -1.6323
   93SAPE   C25 9158   5.892   3.123   5.311 -0.5088 -0.3068  0.5975
   93SAPE   H5R 9159   5.903   3.042   5.385 -0.4595  0.0237  0.9513
   93SAPE   C26 9160   5.869   3.089   5.187 -0.3017  0.7828  0.1481
   93SAPE   H6R 9161   5.903   2.991   5.151 -3.2085 -0.6372  1.1550
   93SAPE   C27 9162   5.803   3.175   5.085  0.9409  0.4702  0.7103
   93SAPE   H7R 9163   5.863   3.165   4.992 -0.3013 -2.8784  0.1832
   93SAPE   H7S 9164   5.801   3.284   5.103  2.7807  1.0206 -2.0571
   93SAPE   C28 9165   5.661   3.124   5.062 -0.2870 -0.1911 -0.2287
   93SAPE   H8R 9166   5.591   3.146   5.144 -1.6281 -0.7959 -1.1966
   93SAPE   C29 9167   5.609   3.065   4.951 -0.5532  0.0947 -0.0454
   93SAPE   H9R 9168   5.503   3.035   4.959 -1.1095  0.8921 -3.8116
   93SAPE  C210 9169   5.689   3.042   4.827  0.0675  0.4318  0.8662
   93SAPE  H10R 9170   5.787   3.010   4.866  0.3142 -1.0154 -0.8848
   93SAPE  H10S 9171   5.691   3.140   4.774 -0.7316 -0.7954 -1.5349
   93SAPE  C211 9172   5.625   2.924   4.750  0.3618 -0.0902  0.3172
   93SAPE  H11R 9173   5.586   2.838   4.806 -1.6500 -0.1276 -1.0676
   93SAPE  C212 9174   5.584   2.925   4.620 -0.5981  0.8665  0.2389
   93SAPE  H12R 9175   5.544   2.832   4.575 -1.9842  1.9012 -0.7164
   93SAPE  C213 9176   5.577   3.039   4.527  0.3333 -0.2299  0.0479
   93SAPE  H13R 9177   5.635   3.025   4.433  0.6582  0.4050  0.1520
   93SAPE  H13S 9178   5.625   3.132   4.565 -0.8644  1.9701 -3.5040
   93SAPE  C214 9179   5.432   3.056   4.503  0.1298 -0.9927 -0.6630
   93SAPE  H14R 9180   5.385   3.124   4.574 -0.8259 -1.2788 -1.0159
   93SAPE  C215 9181   5.376   3.003   4.394 -0.0826  0.3421  0.0882
   93SAPE  H15R 9182   5.273   3.040   4.380  0.4528  1.4346 -0.9773
   93SAPE  C216 9183   5.437   2.921   4.286 -0.3611  0.3473 -0.7755
   93SAPE  H16R 9184   5.517   2.848   4.310 -0.9070 -0.1021 -0.3035
   93SAPE  H16S 9185   5.477   2.992   4.210 -2.8235  0.4029 -2.0750
   93SAPE  C217 9186   5.330   2.830   4.221  0.3673 -0.1891 -0.0855
   93SAPE  H17R 9187   5.366   2.779   4.130 -2.8549 -1.5873 -0.6583
   93SAPE  H17S 9188   5.246   2.889   4.178  1.2663  2.0199  1.0941
   93SAPE  C218 9189   5.268   2.733   4.320  0.4537  0.1138  0.2062
   93SAPE  H18R 9190   5.201   2.783   4.393 -0.5521 -1.3496  0.3106
   93SAPE  H18S 9191   5.345   2.686   4.386  0.5797 -3.5441 -2.3780
   93SAPE  C219 9192   5.195   2.620   4.247 -1.0585 -0.4358 -0.3525
   93SAPE  H19R 9193   5.158   2.530   4.301  2.5939 -1.2585  0.9850
   93SAPE  H19S 9194   5.271   2.569   4.183 -0.8868 -4.5028  2.8619
   93SAPE  C220 9195   5.086   2.671   4.151  0.5077 -0.4625  0.0682
   93SAPE  H20R 9196   5.004   2.728   4.200 -0.6747 -0.7043 -1.5948
   93SAPE  H20S 9197   5.030   2.582   4.114  1.4870 -1.6645  1.4370
   93SAPE  H20T 9198   5.122   2.743   4.074  0.8301  0.2395  0.8739
   93SAPE   C33 9199   6.355   3.232   5.607 -0.2356 -0.8751 -0.8308
   93SAPE   H3X 9200   6.416   3.139   5.608 -0.7188 -1.1899  1.2563
   93SAPE   H3Y 9201   6.423   3.317   5.586  1.2389 -2.0320 -0.8365
   93SAPE   C34 9202   6.242   3.210   5.508  0.4558 -0.5313 -0.8571
   93SAPE   H4X 9203   6.180   3.302   5.514  0.3956 -0.7109  2.0676
   93SAPE   H4Y 9204   6.163   3.138   5.540 -1.1170  1.2664 -0.6223
   93SAPE   C35 9205   6.270   3.177   5.368  0.0851  0.8016  0.5005
   93SAPE   H5X 9206   6.176   3.181   5.309 -0.1649 -1.0445  0.7378
   93SAPE   H5Y 9207   6.328   3.083   5.351  1.3401  1.5523  0.5403
   93SAPE   C36 9208   6.356   3.285   5.295  0.0462  0.2140 -0.2007
   93SAPE   H6X 9209   6.456   3.292   5.344  0.5802  0.7706 -1.3421
   93SAPE   H6Y 9210   6.312   3.384   5.318  1.1211  0.6236  0.0994
   93SAPE   C37 9211   6.371   3.259   5.145 -0.0997 -0.7718 -0.2142
   93SAPE   H7X 9212   6.399   3.152   5.129  2.5506 -0.3887  1.4429
   93SAPE   H7Y 9213   6.461   3.321   5.124 -2.2596  0.5917 -6.2292
   93SAPE   C38 9214   6.256   3.315   5.061 -0.1131  0.5122 -0.0533
   93SAPE   H8X 9215   6.230   3.415   5.101  0.8177  0.9828 -0.6153
   93SAPE   H8Y 9216   6.160   3.261   5.077  1.6983 -2.3903  1.3943
   93SAPE   C39 9217   6.273   3.303   4.913 -0.7736  0.1951  0.7235
   93SAPE   H9X 9218   6.288   3.199   4.877 -1.5744  0.5048 -0.5333
   93SAPE   H9Y 9219   6.368   3.355   4.886 -0.5010 -1.5962 -2.0000
   93SAPE  C310 9220   6.160   3.368   4.837  0.2346  0.1085  0.2923
   93SAPE  H10X 9221   6.136   3.475   4.851  1.4418  0.2854  1.0774
   93SAPE  H10Y 9222   6.069   3.319   4.876  1.2715 -1.5032  0.7423
   93SAPE  C311 9223   6.162   3.336   4.683 -0.5565  0.5417  0.1454
   93SAPE  H11X 9224   6.059   3.351   4.644  0.3006  0.5034 -2.2103
   93SAPE  H11Y 9225   6.190   3.229   4.674  0.9209  0.9114  0.2683
   93SAPE  C312 9226   6.253   3.424   4.602  0.3322 -0.2622  0.5324
   93SAPE  H12X 9227   6.359   3.391   4.609  0.5834  1.1259  4.1203
   93SAPE  H12Y 9228   6.249   3.528   4.639 -0.4024 -0.7641  1.9130
   93SAPE  C313 9229   6.209   3.411   4.458 -0.4073  0.2805 -0.3634
   93SAPE  H13X 9230   6.115   3.468   4.441  0.7232  1.7122 -1.9815
   93SAPE  H13Y 9231   6.200   3.302   4.435  1.0381 -0.1003  0.8042
   93SAPE  C314 9232   6.317   3.472   4.357  0.8440  0.0820  0.1076
   93SAPE  H14X 9233   6.412   3.417   4.370  0.8657  0.1379  0.1836
   93SAPE  H14Y 9234   6.336   3.579   4.380 -0.4778  0.8382 -2.1742
   93SAPE  C315 9235   6.275   3.456   4.210 -1.0703  0.2340  0.2311
   93SAPE  H15X 9236   6.177   3.506   4.193 -1.9654 -1.8108 -0.8223
   93SAPE  H15Y 9237   6.265   3.347   4.188  0.0150  0.5101 -1.6857
   93SAPE  C316 9238   6.382   3.517   4.108  0.6708  0.6716 -0.6352
   93SAPE  H16X 9239   6.467   3.446   4.119  1.5422  1.5507 -1.5934
   93SAPE  H16Y 9240   6.405   3.621   4.142 -1.1212  0.4636  1.2914
   93SAPE  C317 9241   6.345   3.515   3.961 -0.2412  0.0767  0.1820
   93SAPE  H17X 9242   6.326   3.411   3.927 -1.9316  0.8015 -1.1673
   93SAPE  H17Y 9243   6.436   3.543   3.904 -0.8078  1.5968 -0.0096
   93SAPE  C318 9244   6.228   3.602   3.930 -0.2743  0.3488 -0.4661
   93SAPE  H18X 9245   6.249   3.703   3.972  3.0330 -0.0332 -1.0594
   93SAPE  H18Y 9246   6.143   3.574   3.996  0.4615  2.2255  1.3361
   93SAPE  H18Z 9247   6.208   3.603   3.821  2.1960  1.1830 -0.9516
   94SAPE     N 9248   3.898   5.631   5.849 -0.3628 -0.2454  0.1416
   94SAPE   HN1 9249   3.973   5.645   5.779 -0.4747 -3.5708 -0.7700
   94SAPE   HN2 9250   3.853   5.538   5.836  0.0976 -0.2549 -1.5147
   94SAPE   HN3 9251   3.823   5.704   5.847 -0.7432 -0.6178  0.7521
   94SAPE   C12 9252   3.980   5.624   5.975 -0.5093  0.4647  0.3098
   94SAPE  H12A 9253   4.087   5.644   5.951  0.4392  0.0072  3.7983
   94SAPE  H12B 9254   3.969   5.521   6.014  2.7054 -0.0164  0.0361
   94SAPE   C11 9255   3.937   5.735   6.070  0.1744  0.1404 -0.4648
   94SAPE  H11A 9256   3.939   5.830   6.013  4.1233  0.0652 -0.5876
   94SAPE  H11B 9257   4.016   5.747   6.147 -0.7987 -0.8964  0.7160
   94SAPE     P 9258   3.679   5.773   6.111  0.2009  0.4105 -0.0867
   94SAPE   O13 9259   3.572   5.695   6.176 -0.1576  0.2093  0.1173
   94SAPE   O14 9260   3.701   5.910   6.160  0.4038  0.1613 -0.2113
   94SAPE   O12 9261   3.810   5.692   6.130  0.4339  0.2984  0.6174
   94SAPE   O11 9262   3.652   5.780   5.957 -0.3108  0.3081  0.3032
   94SAPE    C1 9263   3.631   5.907   5.883  0.5183  0.4928 -0.5909
   94SAPE    HA 9264   3.520   5.917   5.880  0.3562 -0.5526  1.0508
   94SAPE    HB 9265   3.668   5.991   5.946 -1.8834  0.4158  1.0289
   94SAPE    C2 9266   3.689   5.920   5.740  0.0503 -0.0141  0.6802
   94SAPE    HS 9267   3.623   5.978   5.671  0.4955 -2.0161 -1.5028
   94SAPE   O21 9268   3.717   5.782   5.700  0.2812  0.5394  0.0640
   94SAPE   C21 9269   3.684   5.757   5.577 -0.1495 -0.1392  0.3984
   94SAPE   O22 9270   3.638   5.829   5.493  0.2178 -0.4913  0.0152
   94SAPE   C22 9271   3.728   5.618   5.533 -0.0785 -0.0529  0.0413
   94SAPE   H2R 9272   3.830   5.634   5.494 -0.9947  3.1157 -1.2018
   94SAPE   H2S 9273   3.730   5.543   5.615 -2.6267  0.2907  0.4672
   94SAPE    C3 9274   3.823   5.999   5.748  0.2451  0.4943  0.7222
   94SAPE    HX 9275   3.891   5.949   5.821  1.9402  0.7382 -0.6331
   94SAPE    HY 9276   3.800   6.100   5.788  0.3798 -0.0882  2.3058
   94SAPE   O31 9277   3.876   6.022   5.614 -1.0506  0.2206  0.1545
   94SAPE   C31 9278   3.950   5.924   5.568 -0.6123  0.3676 -0.0367
   94SAPE   O32 9279   3.970   5.815   5.622  0.4233  0.3396 -0.4322
   94SAPE   C32 9280   4.010   5.968   5.437 -0.2597 -0.2240  0.3283
   94SAPE   H2X 9281   4.084   6.049   5.450  0.5751 -0.7728 -0.9517
   94SAPE   H2Y 9282   3.925   6.006   5.376 -2.1769 -1.6696  2.0297
   94SAPE   C23 9283   3.647   5.559   5.417 -0.9270 -0.1296  0.5115
   94SAPE   H3R 9284   3.685   5.591   5.317  0.8735  0.9839  1.5259
   94SAPE   H3S 9285   3.540   5.590   5.424 -0.7445  0.9535 -1.1964
   94SAPE   C24 9286   3.646   5.404   5.436 -0.3087 -0.2501 -0.3414
   94SAPE   H4R 9287   3.570   5.378   5.358 -1.1639 -0.7941  0.6593
   94SAPE   H4S 9288   3.599   5.381   5.534 -0.3533  0.9673 -0.0653
   94SAPE   C25 9289   3.771   5.322   5.416  0.2544  0.4719  0.2154
   94SAPE   H5R 9290   3.814   5.261   5.497 -0.8140 -2.5141 -1.3871
   94SAPE   C26 9291   3.835   5.302   5.299  0.4820  0.1458  0.6245
   94SAPE   H6R 9292   3.928   5.244   5.293 -0.2181 -0.8783 -0.9231
   94SAPE   C27 9293   3.798   5.351   5.167  0.1694  0.5300 -0.3232
   94SAPE   H7R 9294   3.690   5.375   5.160  0.4642  1.8906 -0.3201
   94SAPE   H7S 9295   3.818   5.273   5.091  1.8147  0.5642  0.0521
   94SAPE   C28 9296   3.877   5.475   5.131  0.5073 -0.1229  0.0584
   94SAPE   H8R 9297   3.891   5.552   5.209 -0.9505 -0.6654  0.8750
   94SAPE   C29 9298   3.901   5.504   4.999 -0.1538  0.6075  0.0155
   94SAPE   H9R 9299   3.939   5.602   4.966  1.5163  0.2652  0.9137
   94SAPE  C210 9300   3.876   5.412   4.879 -0.2269 -0.3968 -0.5630
   94SAPE  H10R 9301   3.827   5.465   4.795  1.5026  3.5888  0.8354
   94SAPE  H10S 9302   3.805   5.329   4.901  0.3064 -0.5371  0.6768
   94SAPE  C211 9303   4.000   5.348   4.828 -0.2243 -0.1585  0.6139
   94SAPE  H11R 9304   4.045   5.284   4.906 -2.1622 -2.5939 -0.1839
   94SAPE  C212 9305   4.049   5.350   4.705  0.9024 -0.6818 -0.4260
   94SAPE  H12R 9306   4.141   5.291   4.692  2.2259  1.5589 -1.4292
   94SAPE  C213 9307   3.991   5.427   4.592 -0.5155 -0.1141  0.0300
   94SAPE  H13R 9308   3.943   5.524   4.620  2.5814  1.4193  0.1695
   94SAPE  H13S 9309   3.902   5.383   4.541  0.4208 -1.3470 -0.5442
   94SAPE  C214 9310   4.101   5.463   4.496 -0.0908  0.1468  0.2916
   94SAPE  H14R 9311   4.122   5.388   4.418  1.5160  0.2760  0.5758
   94SAPE  C215 9312   4.178   5.567   4.508 -0.6277 -0.1324 -0.1416
   94SAPE  H15R 9313   4.268   5.568   4.444  0.4353  1.1713  1.3258
   94SAPE  C216 9314   4.179   5.675   4.615  0.3520  0.1799  0.3458
   94SAPE  H16R 9315   4.153   5.646   4.719  2.0832 -1.4071  0.3375
   94SAPE  H16S 9316   4.101   5.752   4.598  0.8699  0.3671 -1.2180
   94SAPE  C217 9317   4.317   5.740   4.623  0.1175 -0.5395  0.0927
   94SAPE  H17R 9318   4.323   5.800   4.529 -2.9053 -0.4758 -0.1100
   94SAPE  H17S 9319   4.392   5.659   4.623 -2.0554 -2.6197 -0.9483
   94SAPE  C218 9320   4.337   5.833   4.748  0.0944  0.2683  1.3805
   94SAPE  H18R 9321   4.237   5.864   4.784  0.1576  0.5976  1.2777
   94SAPE  H18S 9322   4.386   5.925   4.712 -1.1473  0.3897 -0.0765
   94SAPE  C219 9323   4.405   5.759   4.860  0.2002  0.3603 -0.1846
   94SAPE  H19R 9324   4.501   5.716   4.827  0.5618  1.7790 -1.0153
   94SAPE  H19S 9325   4.341   5.676   4.898 -0.3581 -0.6373 -3.1599
   94SAPE  C220 9326   4.446   5.850   4.973  0.0158  0.1780 -1.0592
   94SAPE  H20R 9327   4.500   5.799   5.056 -0.3915  2.0538  0.3909
   94SAPE  H20S 9328   4.356   5.898   5.016  1.0079  0.6290  0.5594
   94SAPE  H20T 9329   4.518   5.926   4.937  1.2908  0.2638  1.5390
   94SAPE   C33 9330   4.085   5.858   5.348 -0.2286  0.6848  0.2642
   94SAPE   H3X 9331   4.017   5.772   5.330  1.7181 -0.3388 -2.3596
   94SAPE   H3Y 9332   4.180   5.821   5.392  0.1134  0.7781 -0.3962
   94SAPE   C34 9333   4.116   5.902   5.199  1.1218  0.1192  0.8626
   94SAPE   H4X 9334   4.153   5.812   5.147  0.2604 -0.5127  1.3352
   94SAPE   H4Y 9335   4.196   5.979   5.196  0.5133  0.7068 -0.6716
   94SAPE   C35 9336   3.991   5.950   5.120 -0.2289 -0.2558 -0.0758
   94SAPE   H5X 9337   3.944   6.035   5.174 -0.8795  0.5283 -1.8450
   94SAPE   H5Y 9338   3.926   5.861   5.129 -0.4323 -0.1726 -0.7097
   94SAPE   C36 9339   4.033   5.984   4.978 -0.2090 -0.1812 -0.5781
   94SAPE   H6X 9340   4.065   5.887   4.933  0.7079 -1.5639  2.8987
   94SAPE   H6Y 9341   4.122   6.051   4.975  0.2489 -0.7625 -0.1130
   94SAPE   C37 9342   3.927   6.069   4.906  0.3200 -0.5476  0.0715
   94SAPE   H7X 9343   3.934   6.178   4.928 -3.6170 -0.6480  2.2702
   94SAPE   H7Y 9344   3.830   6.022   4.933 -0.0574 -1.1567 -2.2496
   94SAPE   C38 9345   3.927   6.038   4.762 -0.0284  0.4790 -0.0848
   94SAPE   H8X 9346   3.826   6.048   4.716  0.9675  0.5371 -2.2985
   94SAPE   H8Y 9347   3.948   5.929   4.753  2.5501  0.7724  1.9586
   94SAPE   C39 9348   4.021   6.127   4.688  0.0226  0.2646 -0.1461
   94SAPE   H9X 9349   4.118   6.137   4.741 -0.5777  1.8468  0.6704
   94SAPE   H9Y 9350   3.978   6.229   4.691 -0.7367  0.2372 -5.1718
   94SAPE  C310 9351   4.038   6.087   4.541  0.1390 -0.1298 -0.2773
   94SAPE  H10X 9352   3.945   6.039   4.507 -0.9256  1.3728  0.4587
   94SAPE  H10Y 9353   4.115   6.007   4.552 -1.1723 -1.1787  1.5487
   94SAPE  C311 9354   4.079   6.202   4.451  0.8087 -0.5635  0.2845
   94SAPE  H11X 9355   4.140   6.161   4.368 -0.2065  2.8837 -2.2673
   94SAPE  H11Y 9356   4.156   6.255   4.511  1.3203 -1.5108  0.4714
   94SAPE  C312 9357   3.968   6.289   4.390 -0.0048  1.0062 -0.8272
   94SAPE  H12X 9358   3.912   6.332   4.475  0.7195 -2.1700  1.3673
   94SAPE  H12Y 9359   3.904   6.231   4.320  2.6893 -1.3278 -1.4655
   94SAPE  C313 9360   4.032   6.387   4.297  0.2390 -0.1436  0.2970
   94SAPE  H13X 9361   4.079   6.321   4.220  0.7776 -0.1827  0.6592
   94SAPE  H13Y 9362   4.110   6.444   4.352  0.7317 -0.1430 -0.3852
   94SAPE  C314 9363   3.939   6.490   4.231  0.5650 -0.3565 -1.0548
   94SAPE  H14X 9364   3.898   6.558   4.309  0.5122  0.0010 -1.3947
   94SAPE  H14Y 9365   3.848   6.432   4.208 -0.9025  0.4212  2.4744
   94SAPE  C315 9366   3.992   6.563   4.116 -0.0495 -0.0725  0.0667
   94SAPE  H15X 9367   4.084   6.613   4.154 -0.2683 -0.8407  1.6503
   94SAPE  H15Y 9368   3.930   6.650   4.085 -1.9611 -2.1018 -1.9858
   94SAPE  C316 9369   4.021   6.469   3.995 -0.2620 -0.6404  0.2045
   94SAPE  H16X 9370   3.928   6.412   3.972  1.2342 -3.5375  1.1012
   94SAPE  H16Y 9371   4.087   6.387   4.029 -1.0595 -1.7320 -0.8331
   94SAPE  C317 9372   4.078   6.541   3.874  0.2635 -0.6762  0.1022
   94SAPE  H17X 9373   3.992   6.597   3.833  1.2576  1.2212  0.5253
   94SAPE  H17Y 9374   4.105   6.456   3.807  0.3361 -2.1049  1.8960
   94SAPE  C318 9375   4.202   6.625   3.906 -0.1985 -0.3692 -0.5512
   94SAPE  H18X 9376   4.266   6.575   3.981  0.7486 -0.2000 -1.2260
   94SAPE  H18Y 9377   4.183   6.727   3.946  1.5586  1.0521 -3.1396
   94SAPE  H18Z 9378   4.274   6.647   3.824 -3.5365  2.3529 -2.9098
   95SAPE     N 9379   0.658   3.600   5.848 -0.7431  0.3919 -0.0315
   95SAPE   HN1 9380   0.558   3.597   5.821 -0.9470  1.3582  0.5806
   95SAPE   HN2 9381   0.688   3.517   5.902  0.8030  0.9117 -0.0431
   95SAPE   HN3 9382   0.677   3.684   5.907  0.5471  2.1996 -2.8888
   95SAPE   C12 9383   0.745   3.606   5.728 -0.3472 -0.1575  0.3470
   95SAPE  H12A 9384   0.698   3.653   5.639  3.4569 -0.7669 -2.0799
   95SAPE  H12B 9385   0.754   3.499   5.698 -2.2874 -0.8419  2.0764
   95SAPE   C11 9386   0.878   3.676   5.762  0.5181  0.0575  0.7380
   95SAPE  H11A 9387   0.862   3.786   5.754 -0.9834 -0.2607 -1.0107
   95SAPE  H11B 9388   0.957   3.658   5.687 -0.2363 -3.9165  0.7970
   95SAPE     P 9389   1.022   3.532   5.911  0.1534 -0.1679  0.0906
   95SAPE   O13 9390   1.155   3.575   5.861  0.2663  0.8514  0.0884
   95SAPE   O14 9391   1.014   3.485   6.055 -0.1312 -0.0524  0.4675
   95SAPE   O12 9392   0.928   3.658   5.888 -0.1236  0.7058  0.1968
   95SAPE   O11 9393   0.961   3.425   5.816 -0.1339 -0.3543  0.5518
   95SAPE    C1 9394   1.040   3.316   5.758  0.4913 -0.1415 -0.0393
   95SAPE    HA 9395   1.124   3.289   5.826  0.6335  1.8741  0.6065
   95SAPE    HB 9396   0.982   3.222   5.744  1.3172 -0.6032 -0.4338
   95SAPE    C2 9397   1.104   3.365   5.623  0.5943  0.6073 -0.2217
   95SAPE    HS 9398   1.157   3.460   5.645 -0.5265  0.7731  1.8961
   95SAPE   O21 9399   1.000   3.387   5.522  0.4640  0.4858 -0.0567
   95SAPE   C21 9400   1.031   3.479   5.427  0.3561 -0.0033 -0.3365
   95SAPE   O22 9401   1.130   3.544   5.415  0.1074 -1.0091 -0.8461
   95SAPE   C22 9402   0.902   3.482   5.339  0.6928  0.0154 -0.6301
   95SAPE   H2R 9403   0.883   3.378   5.303  0.0810 -0.1039  0.0407
   95SAPE   H2S 9404   0.821   3.536   5.392  1.9270  1.4739 -0.1956
   95SAPE    C3 9405   1.200   3.254   5.580  0.0075 -0.0171  0.3289
   95SAPE    HX 9406   1.147   3.163   5.545 -2.1498  1.5004 -0.4981
   95SAPE    HY 9407   1.273   3.237   5.662  0.7986  1.2991 -0.0946
   95SAPE   O31 9408   1.273   3.300   5.465  1.4078  0.1417  0.2382
   95SAPE   C31 9409   1.385   3.369   5.488 -1.0421 -0.8469 -0.0653
   95SAPE   O32 9410   1.438   3.389   5.593 -0.1758 -0.2616 -0.5156
   95SAPE   C32 9411   1.443   3.417   5.348  0.5859  0.9553  0.1656
   95SAPE   H2X 9412   1.545   3.373   5.339  0.5443  1.0350 -0.7704
   95SAPE   H2Y 9413   1.443   3.527   5.362 -0.1644  0.9904 -0.1180
   95SAPE   C23 9414   0.902   3.572   5.207 -0.5943 -0.1221 -0.3575
   95SAPE   H3R 9415   0.967   3.655   5.243 -0.9462  0.4963 -1.1488
   95SAPE   H3S 9416   0.805   3.619   5.182  0.8537  2.0423 -2.1683
   95SAPE   C24 9417   0.964   3.498   5.086 -0.7591 -0.9230  0.3836
   95SAPE   H4R 9418   1.050   3.435   5.117 -0.5837  0.2970  2.4121
   95SAPE   H4S 9419   0.996   3.573   5.011 -2.7500 -0.1666  0.2567
   95SAPE   C25 9420   0.854   3.425   5.026  0.4323 -0.0390 -0.3838
   95SAPE   H5R 9421   0.758   3.431   5.079  0.5866 -2.7608  0.3175
   95SAPE   C26 9422   0.867   3.340   4.921  0.1065  0.1846 -0.0200
   95SAPE   H6R 9423   0.775   3.302   4.873 -0.6771 -1.4648  2.6546
   95SAPE   C27 9424   0.991   3.321   4.836 -0.1243  0.4305 -0.8652
   95SAPE   H7R 9425   1.008   3.212   4.837  0.3457  0.5016 -1.4119
   95SAPE   H7S 9426   1.088   3.353   4.879  1.4085 -0.9425 -3.2536
   95SAPE   C28 9427   0.984   3.382   4.699  0.2242  0.4334  0.8945
   95SAPE   H8R 9428   1.051   3.468   4.683 -0.6986  1.2970  1.5637
   95SAPE   C29 9429   0.901   3.346   4.593 -0.1354  0.0265  0.0895
   95SAPE   H9R 9430   0.905   3.400   4.498 -3.3112  0.4007  0.1035
   95SAPE  C210 9431   0.805   3.229   4.601 -0.0964  0.5032 -0.3753
   95SAPE  H10R 9432   0.723   3.266   4.666 -0.7370 -0.2898 -0.7284
   95SAPE  H10S 9433   0.851   3.142   4.653  2.6352  1.4451 -1.1482
   95SAPE  C211 9434   0.755   3.176   4.466 -0.1350 -0.6751 -0.5059
   95SAPE  H11R 9435   0.815   3.101   4.411  0.1142 -1.3284  0.6293
   95SAPE  C212 9436   0.629   3.194   4.420 -0.3683 -0.1973  0.3124
   95SAPE  H12R 9437   0.595   3.126   4.341 -1.2267  0.5364  0.0319
   95SAPE  C213 9438   0.509   3.266   4.484 -0.1571 -0.3287  0.2244
   95SAPE  H13R 9439   0.523   3.374   4.463  0.0326 -0.2149  0.9063
   95SAPE  H13S 9440   0.529   3.251   4.593 -1.2880  1.8175  0.7555
   95SAPE  C214 9441   0.367   3.215   4.448 -0.1240  0.0708  0.0826
   95SAPE  H14R 9442   0.298   3.192   4.531  0.4201 -2.2144 -0.0808
   95SAPE  C215 9443   0.316   3.194   4.327 -0.1790  0.2824  0.8083
   95SAPE  H15R 9444   0.213   3.154   4.323 -0.4938  1.1932 -0.7275
   95SAPE  C216 9445   0.387   3.212   4.188 -0.8892 -0.1397 -0.1356
   95SAPE  H16R 9446   0.494   3.245   4.183 -0.9484  0.0856  0.1004
   95SAPE  H16S 9447   0.340   3.301   4.141 -1.2465 -0.5308 -0.5190
   95SAPE  C217 9448   0.357   3.087   4.104 -0.0335 -1.0606 -0.2213
   95SAPE  H17R 9449   0.391   3.111   4.001 -0.7720  1.3953  0.0697
   95SAPE  H17S 9450   0.246   3.076   4.102 -0.1831  0.1613  0.8369
   95SAPE  C218 9451   0.426   2.957   4.152  0.4690 -0.3792  0.7022
   95SAPE  H18R 9452   0.409   2.943   4.261 -0.0912 -2.8059  0.3167
   95SAPE  H18S 9453   0.536   2.959   4.137  0.3162  1.0310 -0.3714
   95SAPE  C219 9454   0.372   2.828   4.078  0.4203  0.1230 -0.8268
   95SAPE  H19R 9455   0.375   2.852   3.969 -2.8334 -1.5578 -1.3323
   95SAPE  H19S 9456   0.268   2.810   4.111  1.0811  0.6856  1.6328
   95SAPE  C220 9457   0.459   2.707   4.110  0.0157  0.0442  0.5891
   95SAPE  H20R 9458   0.452   2.666   4.213  1.2813  0.8602  1.0212
   95SAPE  H20S 9459   0.566   2.737   4.105 -0.7999  3.2658  1.0086
   95SAPE  H20T 9460   0.443   2.625   4.037 -0.9765 -0.7590  1.7033
   95SAPE   C33 9461   1.363   3.382   5.218 -0.4669  0.1104  0.5559
   95SAPE   H3X 9462   1.395   3.451   5.138 -1.0501  1.7846  1.7387
   95SAPE   H3Y 9463   1.257   3.401   5.246 -1.2394 -0.2566 -1.9901
   95SAPE   C34 9464   1.386   3.251   5.164 -0.6959 -0.1340  0.2805
   95SAPE   H4X 9465   1.349   3.171   5.231  1.2283 -0.5295  0.9004
   95SAPE   H4Y 9466   1.492   3.220   5.156 -0.9753 -1.1026  0.3132
   95SAPE   C35 9467   1.327   3.217   5.020 -0.3024 -0.1250 -0.3203
   95SAPE   H5X 9468   1.222   3.255   5.020 -0.3735 -0.3153  0.1370
   95SAPE   H5Y 9469   1.336   3.107   5.004  1.7009 -0.0887  0.4412
   95SAPE   C36 9470   1.394   3.289   4.909 -0.1242 -0.2973  0.0145
   95SAPE   H6X 9471   1.503   3.271   4.899  0.0646  1.3655 -0.9711
   95SAPE   H6Y 9472   1.392   3.399   4.918 -1.2875 -0.2724 -0.4276
   95SAPE   C37 9473   1.348   3.255   4.768 -0.0332 -0.4457  0.7178
   95SAPE   H7X 9474   1.239   3.273   4.759  0.2706  1.9788  1.4015
   95SAPE   H7Y 9475   1.361   3.145   4.760 -1.6404 -0.4722 -1.8204
   95SAPE   C38 9476   1.425   3.338   4.672 -0.1869 -0.4818  0.0803
   95SAPE   H8X 9477   1.444   3.280   4.579  0.6545  0.3962 -0.3088
   95SAPE   H8Y 9478   1.522   3.358   4.723 -0.7723  1.8920  0.3037
   95SAPE   C39 9479   1.368   3.479   4.641 -0.0625 -0.0894 -0.1951
   95SAPE   H9X 9480   1.348   3.544   4.729 -2.1130 -2.6234  1.2700
   95SAPE   H9Y 9481   1.266   3.463   4.600  0.0324  0.7038 -0.7359
   95SAPE  C310 9482   1.439   3.552   4.527  0.4885  0.5187 -0.4739
   95SAPE  H10X 9483   1.428   3.510   4.425  3.0714 -0.1152 -0.5280
   95SAPE  H10Y 9484   1.546   3.572   4.550  0.3279 -2.1487  3.1941
   95SAPE  C311 9485   1.370   3.689   4.497 -0.3748  0.0361 -0.1101
   95SAPE  H11X 9486   1.409   3.755   4.578 -0.6185 -0.4481  0.4041
   95SAPE  H11Y 9487   1.264   3.671   4.524 -0.6335  0.1315 -1.0410
   95SAPE  C312 9488   1.390   3.740   4.352  0.8420  0.7039 -0.0124
   95SAPE  H12X 9489   1.339   3.838   4.359 -2.3765 -1.0906  2.8943
   95SAPE  H12Y 9490   1.341   3.688   4.267  1.4328 -0.8979  0.6053
   95SAPE  C313 9491   1.538   3.742   4.311  0.9595 -0.1575  0.1650
   95SAPE  H13X 9492   1.583   3.640   4.317 -1.0157 -1.1087 -0.8955
   95SAPE  H13Y 9493   1.597   3.804   4.382  0.0232  1.7090 -0.6502
   95SAPE  C314 9494   1.562   3.809   4.172 -0.2234 -0.2491 -0.3378
   95SAPE  H14X 9495   1.500   3.900   4.154 -1.5000 -1.0031  0.1991
   95SAPE  H14Y 9496   1.534   3.739   4.091 -2.5645  0.3735 -0.1095
   95SAPE  C315 9497   1.714   3.838   4.157  0.3431  0.1294 -0.1622
   95SAPE  H15X 9498   1.759   3.737   4.160 -0.4345 -0.2743 -1.6292
   95SAPE  H15Y 9499   1.739   3.903   4.244 -1.6352 -0.8159  1.1466
   95SAPE  C316 9500   1.749   3.903   4.025 -0.1343 -0.0661 -0.3729
   95SAPE  H16X 9501   1.681   3.988   4.005  0.6437  0.8072  0.6867
   95SAPE  H16Y 9502   1.727   3.830   3.943  0.3652 -1.4700  0.7161
   95SAPE  C317 9503   1.901   3.924   4.013  0.0304 -1.0188 -0.0220
   95SAPE  H17X 9504   1.953   3.833   4.051  2.1161 -0.4177 -1.3828
   95SAPE  H17Y 9505   1.935   4.011   4.073 -1.0017  0.0177 -0.9424
   95SAPE  C318 9506   1.940   3.955   3.872 -0.0274 -0.2252 -0.5013
   95SAPE  H18X 9507   1.883   4.046   3.842  0.8485  0.5849  0.2871
   95SAPE  H18Y 9508   1.899   3.872   3.811 -1.5120 -0.4564  0.7771
   95SAPE  H18Z 9509   2.050   3.953   3.857  0.0301  0.3712 -0.1586
   96SAPE     N 9510   3.356   6.036   6.348  0.1338 -0.4374 -0.4719
   96SAPE   HN1 9511   3.457   6.050   6.326  0.4933 -0.7609  0.9401
   96SAPE   HN2 9512   3.301   6.122   6.326  1.7182  0.6197 -0.3684
   96SAPE   HN3 9513   3.354   5.998   6.445  0.9156  1.2221  0.2078
   96SAPE   C12 9514   3.311   5.926   6.254 -0.0461  0.0668 -0.7514
   96SAPE  H12A 9515   3.226   5.871   6.301 -1.7205  3.1178 -0.1211
   96SAPE  H12B 9516   3.410   5.879   6.234  0.5241  0.6284  0.7610
   96SAPE   C11 9517   3.261   5.992   6.122 -0.2133 -0.2919 -0.6855
   96SAPE  H11A 9518   3.258   5.910   6.047 -1.2986 -0.8222 -0.0698
   96SAPE  H11B 9519   3.337   6.063   6.082 -0.2407  0.3793  0.4339
   96SAPE     P 9520   3.103   6.192   6.166 -0.1039 -0.6590  0.2960
   96SAPE   O13 9521   2.960   6.215   6.187  0.1745 -0.8108  0.1704
   96SAPE   O14 9522   3.188   6.249   6.273 -0.0220 -0.2937 -0.4641
   96SAPE   O12 9523   3.131   6.041   6.143 -0.2537 -0.4402  0.0014
   96SAPE   O11 9524   3.146   6.252   6.019 -0.2491 -0.6998  0.0807
   96SAPE    C1 9525   3.078   6.208   5.898  1.0502 -0.3129  0.1345
   96SAPE    HA 9526   3.080   6.097   5.896  0.9886 -0.3069 -0.2805
   96SAPE    HB 9527   2.977   6.255   5.899  1.3818  0.4421 -0.8357
   96SAPE    C2 9528   3.154   6.248   5.779  0.4920 -0.8348 -0.1577
   96SAPE    HS 9529   3.193   6.351   5.791  1.5771 -1.0138 -1.9434
   96SAPE   O21 9530   3.072   6.220   5.663  0.1877  0.5748  0.0540
   96SAPE   C21 9531   3.002   6.326   5.621  0.0787 -0.5367 -0.2667
   96SAPE   O22 9532   2.992   6.437   5.681 -0.1984  0.0371 -0.3629
   96SAPE   C22 9533   2.941   6.286   5.485 -0.4821 -0.4394 -0.5883
   96SAPE   H2R 9534   2.920   6.177   5.492  1.5983 -0.8820 -1.0405
   96SAPE   H2S 9535   2.850   6.343   5.455 -0.6339  0.4262  1.4629
   96SAPE    C3 9536   3.288   6.166   5.760 -0.7021 -0.3940 -0.1305
   96SAPE    HX 9537   3.269   6.057   5.769 -0.5187 -0.2916  1.6326
   96SAPE    HY 9538   3.362   6.189   5.840  2.2470 -1.3850 -2.4350
   96SAPE   O31 9539   3.346   6.200   5.637  0.0556 -0.2290 -0.1145
   96SAPE   C31 9540   3.476   6.243   5.628 -0.0254  0.6604 -0.0748
   96SAPE   O32 9541   3.559   6.237   5.721 -0.0263  0.4285  0.5032
   96SAPE   C32 9542   3.504   6.293   5.488  0.0358 -0.1980 -0.1936
   96SAPE   H2X 9543   3.558   6.390   5.493 -2.3316  1.0989  0.7965
   96SAPE   H2Y 9544   3.409   6.305   5.433  0.8826 -1.0523 -1.8915
   96SAPE   C23 9545   3.051   6.292   5.369 -0.5735  0.1174  0.2637
   96SAPE   H3R 9546   3.023   6.236   5.277 -0.8721 -0.7157  0.8527
   96SAPE   H3S 9547   3.142   6.237   5.401  0.2144  1.6925  0.8012
   96SAPE   C24 9548   3.087   6.435   5.322  0.0460  0.5817 -0.8717
   96SAPE   H4R 9549   3.166   6.436   5.245  0.4460  2.1747 -0.4467
   96SAPE   H4S 9550   3.122   6.493   5.410 -0.4520 -1.7910  0.9421
   96SAPE   C25 9551   2.965   6.508   5.266  0.1020  0.8525  0.2274
   96SAPE   H5R 9552   2.877   6.505   5.332 -0.6273 -0.1578 -0.7705
   96SAPE   C26 9553   2.969   6.580   5.155 -0.1042  0.0554  0.7748
   96SAPE   H6R 9554   2.873   6.619   5.118 -0.8686 -1.8611  0.6512
   96SAPE   C27 9555   3.098   6.610   5.075  0.3548 -0.1486 -0.1396
   96SAPE   H7R 9556   3.135   6.516   5.029  2.0619  1.0341 -1.2403
   96SAPE   H7S 9557   3.171   6.648   5.149 -0.1168  0.5044 -0.0099
   96SAPE   C28 9558   3.079   6.714   4.963  0.1936 -0.2144 -0.4578
   96SAPE   H8R 9559   3.030   6.810   4.987  0.9568  0.4271 -1.3949
   96SAPE   C29 9560   3.087   6.703   4.831 -0.3762 -0.6020  0.1278
   96SAPE   H9R 9561   3.062   6.787   4.765  1.8759  0.9582  1.2378
   96SAPE  C210 9562   3.120   6.578   4.756 -0.8287  0.5214  0.2127
   96SAPE  H10R 9563   3.032   6.523   4.718 -0.7320  0.1113  0.5730
   96SAPE  H10S 9564   3.172   6.501   4.819  0.2781  1.9188  1.0488
   96SAPE  C211 9565   3.223   6.601   4.647 -0.4249  0.4249  0.3857
   96SAPE  H11R 9566   3.289   6.686   4.665  0.1782 -0.1201  0.7377
   96SAPE  C212 9567   3.238   6.536   4.533 -1.0367 -0.4341 -0.5902
   96SAPE  H12R 9568   3.296   6.592   4.458 -0.3483 -0.8390 -0.3655
   96SAPE  C213 9569   3.158   6.418   4.482 -0.3854 -0.1312  0.7501
   96SAPE  H13R 9570   3.122   6.439   4.379 -2.1453  1.9508  1.7498
   96SAPE  H13S 9571   3.065   6.420   4.542 -0.3193 -1.2821  0.8925
   96SAPE  C214 9572   3.227   6.286   4.514  0.2765 -0.7294  0.5351
   96SAPE  H14R 9573   3.247   6.270   4.621  0.6734 -1.4287  0.3593
   96SAPE  C215 9574   3.285   6.196   4.434  0.0510  0.0524 -0.1585
   96SAPE  H15R 9575   3.316   6.104   4.484 -0.2252  0.6857  1.1997
   96SAPE  C216 9576   3.298   6.205   4.284  0.0208 -0.1236 -0.3153
   96SAPE  H16R 9577   3.325   6.306   4.248 -2.7445  0.7141 -0.2057
   96SAPE  H16S 9578   3.203   6.175   4.234  0.6721  0.7764 -2.1127
   96SAPE  C217 9579   3.409   6.114   4.222  0.2098 -0.1095  0.1329
   96SAPE  H17R 9580   3.412   6.127   4.112  0.5335  0.4581  0.2060
   96SAPE  H17S 9581   3.388   6.007   4.240 -0.4970  0.1211  0.7472
   96SAPE  C218 9582   3.553   6.147   4.278 -0.6085 -0.7318  0.0720
   96SAPE  H18R 9583   3.555   6.104   4.380 -2.2221  0.6615  0.7208
   96SAPE  H18S 9584   3.576   6.255   4.276  0.0570 -0.8709  0.1394
   96SAPE  C219 9585   3.670   6.067   4.211  0.5326 -0.2043  0.0200
   96SAPE  H19R 9586   3.635   5.962   4.223 -0.6147  0.3965  2.1235
   96SAPE  H19S 9587   3.762   6.072   4.273  0.9779 -1.2068 -0.5514
   96SAPE  C220 9588   3.699   6.104   4.068 -0.8421 -0.3026 -0.0730
   96SAPE  H20R 9589   3.728   6.211   4.081  0.7490 -0.9884  2.5258
   96SAPE  H20S 9590   3.614   6.096   3.997 -1.1494  0.7985  0.1586
   96SAPE  H20T 9591   3.782   6.045   4.024  0.4199  0.2007  1.5799
   96SAPE   C33 9592   3.597   6.188   5.426  0.3688 -0.2817  0.1254
   96SAPE   H3X 9593   3.544   6.091   5.424 -1.0370  0.4352  1.1450
   96SAPE   H3Y 9594   3.689   6.167   5.486 -0.9760 -1.3556  1.8505
   96SAPE   C34 9595   3.648   6.221   5.285 -0.1018 -0.1971  0.2037
   96SAPE   H4X 9596   3.694   6.126   5.250  1.8030  0.1409  1.7431
   96SAPE   H4Y 9597   3.715   6.310   5.287 -0.9937  0.4445  1.6612
   96SAPE   C35 9598   3.532   6.242   5.190 -0.6824  0.3359  0.3504
   96SAPE   H5X 9599   3.470   6.332   5.212 -2.2326  0.0401 -2.5090
   96SAPE   H5Y 9600   3.463   6.155   5.195 -1.2539  0.7439 -0.1973
   96SAPE   C36 9601   3.585   6.255   5.045  0.0545 -0.0529 -0.6626
   96SAPE   H6X 9602   3.654   6.171   5.025  1.0163 -0.0256  2.2847
   96SAPE   H6Y 9603   3.643   6.349   5.037  1.3722 -0.9546 -1.9146
   96SAPE   C37 9604   3.483   6.272   4.933 -0.2561  0.4553  0.4513
   96SAPE   H7X 9605   3.431   6.363   4.970 -1.6141 -0.1659  0.0982
   96SAPE   H7Y 9606   3.415   6.184   4.923  1.3419 -0.5432 -2.0280
   96SAPE   C38 9607   3.532   6.310   4.794 -0.1829  0.1245  0.0336
   96SAPE   H8X 9608   3.445   6.361   4.748  0.3162  0.1663 -0.8752
   96SAPE   H8Y 9609   3.542   6.222   4.727  0.1133  0.0135  0.2214
   96SAPE   C39 9610   3.646   6.405   4.776  0.1545  0.0555  0.2352
   96SAPE   H9X 9611   3.739   6.364   4.820  1.7222  0.6487 -2.4188
   96SAPE   H9Y 9612   3.625   6.504   4.823 -0.6282 -0.2670  0.5789
   96SAPE  C310 9613   3.685   6.413   4.623 -0.5730 -0.4707  0.4724
   96SAPE  H10X 9614   3.699   6.308   4.589  0.6869 -0.6579  1.5007
   96SAPE  H10Y 9615   3.786   6.460   4.628 -0.5649 -0.2120 -1.8336
   96SAPE  C311 9616   3.585   6.488   4.541 -0.6354  0.7994  0.8203
   96SAPE  H11X 9617   3.572   6.589   4.586  2.2907  2.1765 -1.3133
   96SAPE  H11Y 9618   3.488   6.436   4.530 -1.0993  1.6221  0.9943
   96SAPE  C312 9619   3.638   6.510   4.398  0.3014 -0.3209 -0.3946
   96SAPE  H12X 9620   3.689   6.419   4.358  0.4871 -0.5902  0.4460
   96SAPE  H12Y 9621   3.720   6.583   4.415 -0.6033  0.6200  0.0042
   96SAPE  C313 9622   3.542   6.572   4.301  0.0391 -1.1348  0.3746
   96SAPE  H13X 9623   3.496   6.660   4.351 -3.2565 -1.2442 -2.2550
   96SAPE  H13Y 9624   3.460   6.498   4.287 -0.9797  0.3922 -1.8971
   96SAPE  C314 9625   3.606   6.604   4.168 -0.2832  0.1643 -0.7493
   96SAPE  H14X 9626   3.678   6.528   4.133 -0.6624  0.0210 -1.2352
   96SAPE  H14Y 9627   3.671   6.694   4.171  0.5563 -0.4636 -0.1797
   96SAPE  C315 9628   3.497   6.619   4.063 -0.4000 -0.0620  0.3779
   96SAPE  H15X 9629   3.425   6.695   4.099  0.5794  1.0243  0.0400
   96SAPE  H15Y 9630   3.427   6.535   4.041 -1.2728  0.5351  0.8743
   96SAPE  C316 9631   3.546   6.676   3.933 -0.0227 -0.0751  0.6323
   96SAPE  H16X 9632   3.595   6.773   3.958 -1.2807  0.3307  1.5949
   96SAPE  H16Y 9633   3.461   6.711   3.871  0.1739  0.6221  0.7547
   96SAPE  C317 9634   3.633   6.585   3.852 -0.4999 -0.7150  0.0829
   96SAPE  H17X 9635   3.727   6.568   3.908  0.2847  1.9200 -0.3842
   96SAPE  H17Y 9636   3.669   6.651   3.770 -0.1435  1.2946  1.8276
   96SAPE  C318 9637   3.575   6.453   3.796 -0.4293  0.0808  0.1905
   96SAPE  H18X 9638   3.643   6.397   3.729  0.8436  2.5797 -0.6321
   96SAPE  H18Y 9639   3.480   6.484   3.749  0.1557  0.1782 -0.9380
   96SAPE  H18Z 9640   3.547   6.387   3.882 -1.0180 -0.7074 -0.5990
   97SAPE     N 9641   6.848   2.320   5.978 -0.1991  0.2386 -0.1647
   97SAPE   HN1 9642   6.941   2.324   5.932  0.2409 -1.2835  0.5653
   97SAPE   HN2 9643   6.837   2.220   6.003 -2.3405  0.1846 -1.1860
   97SAPE   HN3 9644   6.776   2.337   5.904 -0.5096 -1.0116 -0.1636
   97SAPE   C12 9645   6.830   2.414   6.092 -0.5044  0.9622  0.0844
   97SAPE  H12A 9646   6.904   2.373   6.163  0.6995  1.5693 -0.8060
   97SAPE  H12B 9647   6.725   2.401   6.126 -0.3695 -2.9521 -0.7190
   97SAPE   C11 9648   6.870   2.556   6.058 -0.3049  0.6582  0.3894
   97SAPE  H11A 9649   6.964   2.548   5.998  0.0285  2.1620  0.6960
   97SAPE  H11B 9650   6.903   2.611   6.148 -0.4457 -0.4546  1.1279
   97SAPE     P 9651   6.644   2.699   6.054  0.0478  0.1675  0.0889
   97SAPE   O13 9652   6.624   2.650   6.192  0.4646  0.2118  0.2422
   97SAPE   O14 9653   6.639   2.843   6.035 -0.2982 -0.2626  0.1441
   97SAPE   O12 9654   6.777   2.635   5.982  0.5751 -0.1853  0.0497
   97SAPE   O11 9655   6.524   2.654   5.978 -0.1383  0.1241  0.5107
   97SAPE    C1 9656   6.518   2.517   5.941 -0.2172 -0.2224  0.8946
   97SAPE    HA 9657   6.611   2.457   5.947  0.9957  1.3092 -1.5653
   97SAPE    HB 9658   6.445   2.463   6.005  0.1269 -1.0740  0.5823
   97SAPE    C2 9659   6.474   2.509   5.794 -0.1355  0.8481  0.4555
   97SAPE    HS 9660   6.481   2.402   5.765 -3.4891 -0.2404  3.1599
   97SAPE   O21 9661   6.552   2.595   5.707 -0.2646  0.0780  0.5647
   97SAPE   C21 9662   6.680   2.558   5.696  0.3262  0.0491  0.5800
   97SAPE   O22 9663   6.728   2.450   5.725  0.1542 -0.1352  0.0475
   97SAPE   C22 9664   6.777   2.671   5.650 -0.4699  0.1825  0.0854
   97SAPE   H2R 9665   6.740   2.765   5.695 -1.7124 -0.5625  0.6448
   97SAPE   H2S 9666   6.875   2.647   5.697 -0.9094  2.2809  2.1410
   97SAPE    C3 9667   6.329   2.557   5.780  0.4903 -0.1548 -0.5928
   97SAPE    HX 9668   6.320   2.652   5.837 -1.6463 -1.9918  2.2446
   97SAPE    HY 9669   6.252   2.492   5.825  1.8658 -1.8730 -0.6480
   97SAPE   O31 9670   6.283   2.556   5.645 -0.4376  0.2542  0.2607
   97SAPE   C31 9671   6.263   2.672   5.589 -0.0135 -0.3109  0.4024
   97SAPE   O32 9672   6.246   2.780   5.644  0.3115  0.0187  0.2174
   97SAPE   C32 9673   6.276   2.653   5.436 -0.3970 -0.2709  0.4984
   97SAPE   H2X 9674   6.195   2.586   5.402  0.9855 -1.4523 -0.4772
   97SAPE   H2Y 9675   6.373   2.602   5.415 -0.4079 -0.4311  0.8422
   97SAPE   C23 9676   6.792   2.689   5.497  0.4759 -0.5326  0.0193
   97SAPE   H3R 9677   6.808   2.588   5.453 -2.0646 -1.6645  1.5885
   97SAPE   H3S 9678   6.883   2.751   5.483  1.1440 -0.9051  2.4676
   97SAPE   C24 9679   6.671   2.749   5.418  0.5987  0.4565  0.6481
   97SAPE   H4R 9680   6.582   2.684   5.433 -1.2460  2.0436 -2.8241
   97SAPE   H4S 9681   6.698   2.741   5.311  0.8689  4.6980  0.3114
   97SAPE   C25 9682   6.647   2.893   5.458  0.8814  0.4876  0.3874
   97SAPE   H5R 9683   6.579   2.892   5.545  0.3389 -0.5311 -0.0426
   97SAPE   C26 9684   6.667   3.007   5.389 -0.1120  0.4805 -0.4268
   97SAPE   H6R 9685   6.633   3.103   5.432  0.9272  0.6850 -0.0436
   97SAPE   C27 9686   6.735   3.019   5.248 -0.9525  0.3736 -0.4381
   97SAPE   H7R 9687   6.820   2.947   5.250 -1.5271 -0.3096 -0.7724
   97SAPE   H7S 9688   6.772   3.124   5.246  1.3701 -0.4209 -0.6878
   97SAPE   C28 9689   6.636   2.993   5.138 -0.1477  0.5356 -0.1677
   97SAPE   H8R 9690   6.562   2.919   5.171  1.6702 -1.7036 -0.9529
   97SAPE   C29 9691   6.633   3.040   5.014 -0.0881 -0.0503  0.0266
   97SAPE   H9R 9692   6.551   3.001   4.951 -1.2794  1.9604  0.2868
   97SAPE  C210 9693   6.720   3.146   4.955  0.2257 -0.2332 -0.4018
   97SAPE  H10R 9694   6.800   3.184   5.022 -0.6895 -1.3426  1.3669
   97SAPE  H10S 9695   6.648   3.228   4.931  0.4255 -0.4202 -1.6609
   97SAPE  C211 9696   6.764   3.091   4.824 -0.3545 -0.1171  0.3360
   97SAPE  H11R 9697   6.860   3.037   4.830  0.0099  0.1373 -2.3884
   97SAPE  C212 9698   6.708   3.106   4.704  0.1043  0.0974  0.2812
   97SAPE  H12R 9699   6.766   3.054   4.626 -0.4487 -0.7740  0.4439
   97SAPE  C213 9700   6.578   3.172   4.669 -0.1525 -0.1891 -0.5526
   97SAPE  H13R 9701   6.599   3.219   4.571  0.4501 -1.0443 -0.8493
   97SAPE  H13S 9702   6.543   3.255   4.734  0.4900  0.2601 -0.7687
   97SAPE  C214 9703   6.476   3.064   4.667  0.4077  0.2332  0.0894
   97SAPE  H14R 9704   6.455   3.029   4.769  1.5207 -3.6372 -0.9226
   97SAPE  C215 9705   6.430   2.998   4.556  0.4946 -0.3564  0.0856
   97SAPE  H15R 9706   6.354   2.920   4.573  0.6983 -0.1794  1.8735
   97SAPE  C216 9707   6.472   3.032   4.411  0.2250 -0.5294 -0.0460
   97SAPE  H16R 9708   6.567   2.978   4.389  0.0042 -1.6803  1.7195
   97SAPE  H16S 9709   6.494   3.140   4.404  0.9803 -0.6946 -0.3024
   97SAPE  C217 9710   6.374   3.003   4.296 -0.2159  0.2750  0.8986
   97SAPE  H17R 9711   6.285   3.065   4.319 -0.9096 -0.9124  1.3878
   97SAPE  H17S 9712   6.346   2.896   4.297 -3.0749  0.9772 -0.8121
   97SAPE  C218 9713   6.427   3.037   4.156  0.0678  0.4448  0.6104
   97SAPE  H18R 9714   6.525   2.985   4.141  0.9693  1.9337  1.2177
   97SAPE  H18S 9715   6.454   3.144   4.170 -1.7489  0.7818  1.6230
   97SAPE  C219 9716   6.321   3.023   4.049  0.0875 -0.4767  0.1243
   97SAPE  H19R 9717   6.233   3.076   4.090  1.2199  0.9801  0.6960
   97SAPE  H19S 9718   6.306   2.913   4.038  0.8004 -0.8628  2.6939
   97SAPE  C220 9719   6.376   3.079   3.918 -0.5433  0.0900 -0.8460
   97SAPE  H20R 9720   6.471   3.033   3.881 -1.0892 -0.5695 -1.4360
   97SAPE  H20S 9721   6.385   3.190   3.914  3.6854 -0.1712 -0.7322
   97SAPE  H20T 9722   6.298   3.062   3.841 -2.3407 -2.3298  1.4505
   97SAPE   C33 9723   6.264   2.790   5.358 -0.8213  0.3518  0.3643
   97SAPE   H3X 9724   6.346   2.857   5.391 -0.1503 -1.3244  2.2348
   97SAPE   H3Y 9725   6.167   2.838   5.383 -1.0226 -0.1389  0.5254
   97SAPE   C34 9726   6.268   2.771   5.208  0.8934  0.8997 -0.3841
   97SAPE   H4X 9727   6.223   2.670   5.195 -0.2796  1.5885 -1.8538
   97SAPE   H4Y 9728   6.373   2.756   5.177  0.1891 -1.4875 -1.7608
   97SAPE   C35 9729   6.196   2.886   5.135  0.2295  0.0436  0.6238
   97SAPE   H5X 9730   6.241   2.979   5.174  0.0762  0.6489 -0.6016
   97SAPE   H5Y 9731   6.086   2.877   5.151 -0.2066  1.4234 -1.3831
   97SAPE   C36 9732   6.207   2.878   4.983  0.2660  0.0618  0.3004
   97SAPE   H6X 9733   6.207   2.774   4.943  0.7422  0.2927 -0.3055
   97SAPE   H6Y 9734   6.305   2.924   4.956 -0.0239 -0.6239 -2.0040
   97SAPE   C37 9735   6.081   2.946   4.921  0.3903  0.4232  0.6745
   97SAPE   H7X 9736   6.086   3.055   4.945 -0.2864  0.5043  0.4458
   97SAPE   H7Y 9737   5.987   2.898   4.956  1.3290 -0.7798  1.6010
   97SAPE   C38 9738   6.092   2.940   4.767  0.4158 -0.1273  0.2011
   97SAPE   H8X 9739   6.201   2.947   4.746  1.2539 -4.6760  2.3825
   97SAPE   H8Y 9740   6.042   3.033   4.732  0.4402  0.7437  2.3865
   97SAPE   C39 9741   6.010   2.824   4.714 -0.0883  1.1067  0.4806
   97SAPE   H9X 9742   5.909   2.843   4.754  0.2043  0.0812  1.7349
   97SAPE   H9Y 9743   6.052   2.737   4.769 -0.6435  1.4276  1.4135
   97SAPE  C310 9744   6.019   2.806   4.560  0.1159  0.2430  0.9032
   97SAPE  H10X 9745   5.954   2.718   4.539  2.2633 -1.1803 -0.0212
   97SAPE  H10Y 9746   6.123   2.773   4.536 -0.4623 -1.6774  0.9082
   97SAPE  C311 9747   5.974   2.932   4.477  0.6531 -0.0673  0.0469
   97SAPE  H11X 9748   6.038   3.022   4.490  1.9945 -0.4294 -3.6336
   97SAPE  H11Y 9749   5.869   2.952   4.507  0.7422 -0.2872  0.5161
   97SAPE  C312 9750   5.995   2.909   4.328 -0.1380 -0.0614  1.0090
   97SAPE  H12X 9751   5.984   2.799   4.317 -4.5106  0.4759 -1.0834
   97SAPE  H12Y 9752   6.096   2.933   4.290  0.3509  0.2855  2.4703
   97SAPE  C313 9753   5.888   2.963   4.242  0.4694 -0.9518 -0.7650
   97SAPE  H13X 9754   5.784   2.935   4.267  0.2556  0.7655  0.3807
   97SAPE  H13Y 9755   5.906   2.934   4.137  0.5126  0.8081 -1.2638
   97SAPE  C314 9756   5.891   3.121   4.253  0.3833  0.2904 -0.2391
   97SAPE  H14X 9757   5.999   3.148   4.254 -0.0311  2.2099 -2.2677
   97SAPE  H14Y 9758   5.852   3.151   4.353  1.4259  0.6175  0.0780
   97SAPE  C315 9759   5.822   3.214   4.145 -0.3225 -0.2809  0.0023
   97SAPE  H15X 9760   5.869   3.314   4.142 -1.6787  0.3833  0.4143
   97SAPE  H15Y 9761   5.712   3.231   4.153 -0.2594  1.4606 -2.4603
   97SAPE  C316 9762   5.827   3.150   4.004  0.7219  0.0288  0.3659
   97SAPE  H16X 9763   5.753   3.068   3.993  1.7153 -0.8756  0.3534
   97SAPE  H16Y 9764   5.924   3.099   3.988  0.2266 -0.9060  0.2819
   97SAPE  C317 9765   5.825   3.263   3.897 -0.0119 -0.3566 -0.0042
   97SAPE  H17X 9766   5.902   3.337   3.927  0.1841 -0.1073 -1.0984
   97SAPE  H17Y 9767   5.724   3.308   3.900  1.0715  1.9975  2.4364
   97SAPE  C318 9768   5.864   3.223   3.755  0.4893  0.8393  0.5044
   97SAPE  H18X 9769   5.886   3.307   3.685  0.0201  1.3733  0.9936
   97SAPE  H18Y 9770   5.787   3.159   3.707  2.1901 -2.0598  1.5457
   97SAPE  H18Z 9771   5.954   3.158   3.755 -1.4058 -1.8671 -0.3330
   98SAPE     N 9772   5.880   1.666   5.901  0.2466 -0.7569  0.3323
   98SAPE   HN1 9773   5.980   1.643   5.915  0.5855 -0.8477 -2.0181
   98SAPE   HN2 9774   5.864   1.714   5.810 -0.4016 -1.5357  0.0339
   98SAPE   HN3 9775   5.850   1.739   5.970 -0.2711  0.0681 -0.7424
   98SAPE   C12 9776   5.797   1.545   5.923 -0.2863  0.4557 -0.7206
   98SAPE  H12A 9777   5.861   1.474   5.980 -1.0485 -0.0400 -0.4823
   98SAPE  H12B 9778   5.783   1.496   5.824 -2.8624  3.0692 -1.7354
   98SAPE   C11 9779   5.662   1.584   5.994 -0.6660 -0.2329  0.3238
   98SAPE  H11A 9780   5.705   1.627   6.087  1.8568 -1.3850 -0.2544
   98SAPE  H11B 9781   5.595   1.505   6.033  1.1563 -1.6737  0.6526
   98SAPE     P 9782   5.515   1.799   5.986  0.1759  0.7118  0.5899
   98SAPE   O13 9783   5.488   1.769   6.132 -0.0147 -0.0164 -0.4783
   98SAPE   O14 9784   5.592   1.921   5.953 -0.2772 -0.2396 -0.1022
   98SAPE   O12 9785   5.588   1.672   5.914 -0.4268  0.0879 -0.6868
   98SAPE   O11 9786   5.373   1.818   5.937 -0.2702  0.4414 -0.2450
   98SAPE    C1 9787   5.278   1.728   5.889  0.2671  0.3628  0.2630
   98SAPE    HA 9788   5.278   1.624   5.929  1.1241  0.2091 -0.1272
   98SAPE    HB 9789   5.185   1.776   5.927  0.6598  0.7281  0.7663
   98SAPE    C2 9790   5.273   1.723   5.728  0.3730 -0.2759 -0.2337
   98SAPE    HS 9791   5.211   1.635   5.701 -0.6379 -0.1867  1.7217
   98SAPE   O21 9792   5.407   1.712   5.674  0.2276  0.2320 -0.7012
   98SAPE   C21 9793   5.459   1.586   5.665  0.5443 -0.1174 -0.1115
   98SAPE   O22 9794   5.397   1.488   5.706 -0.1467  0.1552 -0.3298
   98SAPE   C22 9795   5.593   1.592   5.593  0.7259  0.2190  0.4751
   98SAPE   H2R 9796   5.673   1.641   5.654  1.7469  1.1398 -1.5681
   98SAPE   H2S 9797   5.627   1.488   5.579  0.7962 -0.1534  3.0537
   98SAPE    C3 9798   5.212   1.852   5.671  0.0002  0.2946  0.5991
   98SAPE    HX 9799   5.267   1.940   5.711  0.6304  1.1519 -2.0697
   98SAPE    HY 9800   5.107   1.850   5.707  0.1784 -1.6565  1.0816
   98SAPE   O31 9801   5.209   1.852   5.525  0.3305 -0.3774 -0.8249
   98SAPE   C31 9802   5.298   1.913   5.462  0.1618 -0.0421 -0.5599
   98SAPE   O32 9803   5.391   1.977   5.513  0.0145 -0.1734  0.6608
   98SAPE   C32 9804   5.279   1.892   5.313  0.0026  0.0688 -0.8421
   98SAPE   H2X 9805   5.185   1.939   5.278 -0.6524 -1.9104 -1.8328
   98SAPE   H2Y 9806   5.252   1.784   5.302 -0.2261 -0.0329  0.6144
   98SAPE   C23 9807   5.582   1.675   5.464  0.5898 -0.0595  0.0813
   98SAPE   H3R 9808   5.524   1.769   5.475 -0.3196 -0.5766 -0.2340
   98SAPE   H3S 9809   5.515   1.616   5.398  0.7932 -1.6149  1.2372
   98SAPE   C24 9810   5.715   1.701   5.396 -0.0568 -0.5496  0.3394
   98SAPE   H4R 9811   5.782   1.757   5.464 -0.7625 -1.6085  1.9258
   98SAPE   H4S 9812   5.707   1.768   5.307  1.9529 -0.5367  0.1349
   98SAPE   C25 9813   5.781   1.570   5.346 -0.6509 -0.2919 -0.5189
   98SAPE   H5R 9814   5.852   1.521   5.414 -0.1347  0.5165 -0.4629
   98SAPE   C26 9815   5.763   1.514   5.220  0.3251  0.5192  0.0410
   98SAPE   H6R 9816   5.806   1.417   5.194 -1.0438  0.5561 -2.5930
   98SAPE   C27 9817   5.688   1.585   5.111 -0.5566  0.2198  0.3039
   98SAPE   H7R 9818   5.723   1.537   5.017  0.4967  1.1944  0.1770
   98SAPE   H7S 9819   5.714   1.693   5.109 -2.6734  0.7355 -1.2259
   98SAPE   C28 9820   5.544   1.559   5.131 -0.1004 -0.5813 -0.4665
   98SAPE   H8R 9821   5.487   1.632   5.191 -0.4717 -1.2091 -0.0441
   98SAPE   C29 9822   5.475   1.457   5.086 -0.4474  0.2095  0.0280
   98SAPE   H9R 9823   5.367   1.458   5.103 -1.0029  0.2152 -3.1234
   98SAPE  C210 9824   5.521   1.328   5.018 -0.3228  0.1231  0.1783
   98SAPE  H10R 9825   5.624   1.341   4.980 -0.1331  0.0541  0.6673
   98SAPE  H10S 9826   5.465   1.305   4.925 -0.4513 -2.2094  0.8051
   98SAPE  C211 9827   5.514   1.211   5.123 -0.4857  0.2304 -0.7288
   98SAPE  H11R 9828   5.491   1.238   5.227 -0.6667  0.2928 -0.7864
   98SAPE  C212 9829   5.519   1.078   5.099  0.3662 -0.6887  0.3856
   98SAPE  H12R 9830   5.506   1.010   5.185  0.9328  1.4428  2.2080
   98SAPE  C213 9831   5.534   1.021   4.956  0.2073 -0.5662 -0.0163
   98SAPE  H13R 9832   5.623   0.955   4.955  0.2956 -0.4680  1.1894
   98SAPE  H13S 9833   5.544   1.099   4.877 -1.8562 -1.0278 -0.7586
   98SAPE  C214 9834   5.416   0.930   4.920 -0.8462 -0.5838 -0.2754
   98SAPE  H14R 9835   5.418   0.825   4.955  1.7512 -1.1163 -1.8777
   98SAPE  C215 9836   5.306   0.968   4.849 -0.5098 -0.3062  0.1266
   98SAPE  H15R 9837   5.236   0.887   4.824  0.2993 -0.8359 -0.4576
   98SAPE  C216 9838   5.271   1.102   4.795  0.4952 -0.1939  0.1863
   98SAPE  H16R 9839   5.336   1.129   4.710 -0.4492  0.4524 -0.3440
   98SAPE  H16S 9840   5.280   1.179   4.875 -1.2699 -0.7987  1.0032
   98SAPE  C217 9841   5.125   1.116   4.760 -0.1687 -0.1268 -0.1732
   98SAPE  H17R 9842   5.099   1.040   4.684  1.4067 -0.6749 -0.1891
   98SAPE  H17S 9843   5.105   1.221   4.730  1.4165  0.0786 -0.5245
   98SAPE  C218 9844   5.030   1.086   4.878 -0.1023  0.1956  0.0921
   98SAPE  H18R 9845   5.060   1.150   4.964  0.8845  3.4066 -2.5139
   98SAPE  H18S 9846   5.047   0.988   4.927 -1.7561  0.6416  1.5862
   98SAPE  C219 9847   4.883   1.118   4.854  0.4021 -0.5010 -0.3661
   98SAPE  H19R 9848   4.842   1.059   4.770 -0.2914  2.0481 -1.8466
   98SAPE  H19S 9849   4.880   1.220   4.811  2.6315 -0.6636 -0.9427
   98SAPE  C220 9850   4.784   1.115   4.972 -0.7476  0.6502  0.0101
   98SAPE  H20R 9851   4.826   1.173   5.057  0.1162  1.0299 -0.6708
   98SAPE  H20S 9852   4.768   1.011   5.008 -0.5719 -0.5929 -3.3410
   98SAPE  H20T 9853   4.685   1.158   4.945  0.0241  1.2416 -1.9270
   98SAPE   C33 9854   5.406   1.916   5.229  0.8109  0.2777  0.1501
   98SAPE   H3X 9855   5.495   1.874   5.281 -0.4143 -2.9443 -0.2353
   98SAPE   H3Y 9856   5.419   2.026   5.232  1.4037  0.2420 -0.9910
   98SAPE   C34 9857   5.383   1.857   5.086  0.2097  0.2575  0.4148
   98SAPE   H4X 9858   5.294   1.911   5.046  0.0815  1.5006  2.3349
   98SAPE   H4Y 9859   5.346   1.753   5.094 -1.7461  0.8840  0.0385
   98SAPE   C35 9860   5.493   1.868   4.978 -0.0796  0.1481  0.1159
   98SAPE   H5X 9861   5.562   1.783   4.996  0.8253  0.6143 -1.0046
   98SAPE   H5Y 9862   5.544   1.966   4.996 -0.4013  0.4461 -0.5544
   98SAPE   C36 9863   5.440   1.869   4.836 -0.2948 -0.2565  0.2967
   98SAPE   H6X 9864   5.528   1.899   4.776 -0.6300  1.3588  0.5853
   98SAPE   H6Y 9865   5.354   1.938   4.827  0.8127  1.1041  0.0731
   98SAPE   C37 9866   5.404   1.720   4.806 -0.8021  0.3868  0.3035
   98SAPE   H7X 9867   5.344   1.670   4.884 -1.4696 -0.3788 -0.6858
   98SAPE   H7Y 9868   5.497   1.661   4.818 -0.4108  1.1881  1.3562
   98SAPE   C38 9869   5.330   1.704   4.672 -0.3185 -0.4045 -0.1597
   98SAPE   H8X 9870   5.397   1.718   4.584  0.4108  1.1636  0.6143
   98SAPE   H8Y 9871   5.247   1.776   4.656  0.9976  1.0368 -0.6127
   98SAPE   C39 9872   5.281   1.557   4.652 -0.8236 -0.5749 -0.1203
   98SAPE   H9X 9873   5.186   1.546   4.709 -0.3804 -0.3684  0.6681
   98SAPE   H9Y 9874   5.362   1.488   4.686  0.8926  0.6058 -1.7586
   98SAPE  C310 9875   5.265   1.530   4.497 -0.0921 -0.0103  0.6704
   98SAPE  H10X 9876   5.354   1.560   4.438 -0.7315  2.5713  0.9594
   98SAPE  H10Y 9877   5.185   1.598   4.459 -0.2317 -0.1842  0.6538
   98SAPE  C311 9878   5.217   1.388   4.466  0.0024 -0.0249 -0.2232
   98SAPE  H11X 9879   5.110   1.384   4.498  0.3567  2.2178  1.3099
   98SAPE  H11Y 9880   5.272   1.310   4.522  1.9309  1.7355  0.3845
   98SAPE  C312 9881   5.209   1.344   4.319  0.1713 -0.5741  0.2772
   98SAPE  H12X 9882   5.302   1.379   4.270  0.5544  0.8492  1.9893
   98SAPE  H12Y 9883   5.113   1.380   4.277 -0.8814 -1.2158  2.0695
   98SAPE  C313 9884   5.220   1.195   4.303 -0.4568 -0.4440  0.4356
   98SAPE  H13X 9885   5.305   1.163   4.367 -0.6397 -0.4322  0.6870
   98SAPE  H13Y 9886   5.228   1.174   4.195 -4.2746  1.3077 -0.2756
   98SAPE  C314 9887   5.103   1.114   4.356 -0.2265  0.1261  0.6319
   98SAPE  H14X 9888   5.012   1.162   4.314 -1.5806 -0.6931  2.5863
   98SAPE  H14Y 9889   5.103   1.135   4.465 -2.4321 -1.0650  0.8937
   98SAPE  C315 9890   5.099   0.961   4.320 -0.5021  0.3247  0.1329
   98SAPE  H15X 9891   5.174   0.913   4.387  1.8224  1.6231 -1.4755
   98SAPE  H15Y 9892   5.136   0.943   4.217 -3.2126 -1.2950 -0.5970
   98SAPE  C316 9893   4.953   0.903   4.338  0.3843  0.1251  0.0006
   98SAPE  H16X 9894   4.911   0.949   4.430  1.9531  0.4388  0.5859
   98SAPE  H16Y 9895   4.957   0.793   4.349 -1.0690  0.0621 -0.0095
   98SAPE  C317 9896   4.868   0.936   4.215  0.9174  0.0256 -0.0240
   98SAPE  H17X 9897   4.903   0.877   4.128 -1.4306 -0.3890 -0.7021
   98SAPE  H17Y 9898   4.877   1.044   4.190 -0.3270 -0.1265 -1.1745
   98SAPE  C318 9899   4.717   0.914   4.240 -0.1383  0.4656 -0.0307
   98SAPE  H18X 9900   4.696   0.961   4.338  0.7056  3.7486 -1.3413
   98SAPE  H18Y 9901   4.694   0.806   4.234  0.6924  0.3315 -1.0483
   98SAPE  H18Z 9902   4.653   0.963   4.164  0.0581  0.1238 -0.4166
   99SAPE     N 9903   5.288   6.796   6.212  0.2246 -0.3080 -0.1973
   99SAPE   HN1 9904   5.201   6.852   6.207  1.0623  0.8828 -1.9303
   99SAPE   HN2 9905   5.364   6.834   6.273 -1.1133  1.0801  0.6291
   99SAPE   HN3 9906   5.330   6.800   6.117  2.3572  2.7543  0.7925
   99SAPE   C12 9907   5.250   6.655   6.268 -0.3093  0.0295  0.9967
   99SAPE  H12A 9908   5.221   6.654   6.375  2.1923  1.4429  1.7201
   99SAPE  H12B 9909   5.331   6.583   6.247 -0.6608 -0.0550 -0.0804
   99SAPE   C11 9910   5.134   6.597   6.185 -0.4553 -0.4329 -0.6413
   99SAPE  H11A 9911   5.121   6.497   6.233  2.1891  1.3595  4.2128
   99SAPE  H11B 9912   5.164   6.584   6.079 -0.7492  3.4516 -1.2443
   99SAPE     P 9913   4.958   6.769   6.099  0.4224 -0.2376  0.0007
   99SAPE   O13 9914   4.826   6.818   6.136  0.4158  0.3800  0.8621
   99SAPE   O14 9915   5.064   6.871   6.071 -0.3469  1.0005  0.1952
   99SAPE   O12 9916   5.008   6.673   6.206 -0.4811 -0.1925  0.3344
   99SAPE   O11 9917   4.937   6.682   5.969 -0.3019  0.2797 -0.2108
   99SAPE    C1 9918   4.851   6.563   5.969 -0.3307  0.1591  0.0813
   99SAPE    HA 9919   4.792   6.559   6.063 -1.6911  0.9003 -0.7210
   99SAPE    HB 9920   4.773   6.588   5.894 -1.5174  0.9399  1.5593
   99SAPE    C2 9921   4.909   6.427   5.935  0.1526 -0.0224 -0.6049
   99SAPE    HS 9922   4.989   6.413   6.011  0.3240 -2.7764 -1.2175
   99SAPE   O21 9923   4.959   6.420   5.803 -0.2205 -0.1819  0.1046
   99SAPE   C21 9924   5.054   6.332   5.775  0.1614  0.4749 -0.0364
   99SAPE   O22 9925   5.120   6.278   5.863  0.3965 -0.2251  0.4644
   99SAPE   C22 9926   5.051   6.312   5.625  0.4051 -0.2198  0.0320
   99SAPE   H2R 9927   4.950   6.294   5.583 -0.0397  1.5984  0.2945
   99SAPE   H2S 9928   5.082   6.407   5.575  0.0100 -1.1814 -2.1020
   99SAPE    C3 9929   4.815   6.308   5.959  0.5440  0.1845  0.2336
   99SAPE    HX 9930   4.780   6.307   6.064 -2.7840 -1.7107 -0.8277
   99SAPE    HY 9931   4.859   6.208   5.943  0.7250 -0.1832  2.8119
   99SAPE   O31 9932   4.693   6.325   5.885  0.1494 -0.6717 -0.7168
   99SAPE   C31 9933   4.669   6.279   5.765 -0.3118 -0.1810  0.3184
   99SAPE   O32 9934   4.747   6.212   5.701  0.4342  0.0250  0.0983
   99SAPE   C32 9935   4.544   6.342   5.719  0.2576  0.2458 -0.0216
   99SAPE   H2X 9936   4.464   6.331   5.796 -0.7262 -1.1607 -1.2313
   99SAPE   H2Y 9937   4.518   6.294   5.622  3.1263  1.3660 -1.4006
   99SAPE   C23 9938   5.141   6.200   5.566  0.2526  0.1883  0.6801
   99SAPE   H3R 9939   5.246   6.208   5.602  2.0387 -1.1474 -3.7978
   99SAPE   H3S 9940   5.135   6.211   5.455  1.3087 -1.9079  0.3912
   99SAPE   C24 9941   5.090   6.055   5.611  0.1112 -0.7455  0.2600
   99SAPE   H4R 9942   4.993   6.047   5.558  0.4190 -3.1341 -0.0004
   99SAPE   H4S 9943   5.079   6.062   5.721 -0.0043  1.5358  0.1284
   99SAPE   C25 9944   5.192   5.947   5.578 -0.2514 -0.4308 -0.0279
   99SAPE   H5R 9945   5.269   5.946   5.657  0.4247  1.4397 -0.6382
   99SAPE   C26 9946   5.201   5.844   5.490  0.3435 -0.1638  0.2277
   99SAPE   H6R 9947   5.292   5.783   5.487 -0.9388 -1.9999 -2.7688
   99SAPE   C27 9948   5.105   5.816   5.377 -0.0176 -0.3360 -0.7896
   99SAPE   H7R 9949   5.003   5.808   5.420 -0.4589  1.0343 -1.5761
   99SAPE   H7S 9950   5.123   5.718   5.327 -0.2441 -0.8075  0.0393
   99SAPE   C28 9951   5.104   5.923   5.271  0.1627 -0.3131 -0.0354
   99SAPE   H8R 9952   5.141   6.022   5.300 -0.7070 -0.0005  0.0115
   99SAPE   C29 9953   5.050   5.909   5.148 -0.5542  0.6431  0.1685
   99SAPE   H9R 9954   5.055   5.998   5.083 -2.0142  0.9520  0.4582
   99SAPE  C210 9955   4.978   5.792   5.076 -0.2805  0.3170  0.2347
   99SAPE  H10R 9956   4.969   5.703   5.141  0.9857 -0.5598 -0.7662
   99SAPE  H10S 9957   5.041   5.764   4.988 -2.1065 -1.0687 -0.6608
   99SAPE  C211 9958   4.834   5.826   5.020 -0.7123 -0.4102  0.6056
   99SAPE  H11R 9959   4.769   5.856   5.103  0.3251  2.0864  0.5557
   99SAPE  C212 9960   4.786   5.796   4.898  0.5709 -0.4424  0.2425
   99SAPE  H12R 9961   4.680   5.822   4.880  0.9906  0.8918 -0.3272
   99SAPE  C213 9962   4.860   5.719   4.784  0.0703 -0.5504  0.0802
   99SAPE  H13R 9963   4.923   5.638   4.827 -0.7493 -2.1932 -1.6805
   99SAPE  H13S 9964   4.930   5.790   4.736  0.3634  0.6393  2.2287
   99SAPE  C214 9965   4.763   5.656   4.677 -0.7606 -0.5373 -0.2863
   99SAPE  H14R 9966   4.670   5.611   4.717 -0.5090 -0.1330  0.7762
   99SAPE  C215 9967   4.774   5.667   4.542 -0.3443  0.1215  0.3848
   99SAPE  H15R 9968   4.698   5.613   4.483  0.6446 -0.4320 -0.3951
   99SAPE  C216 9969   4.882   5.745   4.469  0.3026  0.4166  0.0140
   99SAPE  H16R 9970   4.925   5.680   4.390  0.4644  0.8047 -0.2193
   99SAPE  H16S 9971   4.966   5.768   4.538 -0.9655 -1.4892  2.2358
   99SAPE  C217 9972   4.817   5.865   4.396  0.2021  0.1832 -0.2995
   99SAPE  H17R 9973   4.777   5.950   4.455 -1.3766 -1.0767  0.4973
   99SAPE  H17S 9974   4.738   5.815   4.336 -0.3073 -0.7312  1.1106
   99SAPE  C218 9975   4.916   5.918   4.292  0.0538  0.5030 -0.5736
   99SAPE  H18R 9976   4.855   5.955   4.207 -0.5895 -3.7034 -2.0885
   99SAPE  H18S 9977   4.968   5.833   4.242 -0.5629 -0.6048  0.6362
   99SAPE  C219 9978   5.024   6.003   4.352  0.4618 -0.0791  0.1655
   99SAPE  H19R 9979   5.080   5.946   4.429  0.8337 -0.3630 -0.3086
   99SAPE  H19S 9980   4.975   6.089   4.403 -0.2025 -0.9571  1.0299
   99SAPE  C220 9981   5.128   6.035   4.242  0.3161 -0.4898  0.3155
   99SAPE  H20R 9982   5.177   5.938   4.217  0.5282 -0.3445  0.1666
   99SAPE  H20S 9983   5.215   6.103   4.254  1.1709 -1.3503 -0.8699
   99SAPE  H20T 9984   5.078   6.059   4.147  0.9616  0.0675  0.1137
   99SAPE   C33 9985   4.561   6.500   5.705 -0.2776 -0.0511 -0.3814
   99SAPE   H3X 9986   4.647   6.523   5.639  0.0882  0.8665  0.3969
   99SAPE   H3Y 9987   4.578   6.561   5.796 -2.4123  1.1628 -0.7545
   99SAPE   C34 9988   4.448   6.560   5.618 -1.1522  0.1719 -0.7904
   99SAPE   H4X 9989   4.350   6.549   5.670 -1.6981 -0.0286 -1.8470
   99SAPE   H4Y 9990   4.433   6.498   5.527  1.6165 -1.3194 -0.2816
   99SAPE   C35 9991   4.469   6.707   5.589  0.2581  0.5405  0.8567
   99SAPE   H5X 9992   4.549   6.730   5.516  1.4554  1.5220  2.4299
   99SAPE   H5Y 9993   4.499   6.755   5.685 -2.1669  0.1601  1.8215
   99SAPE   C36 9994   4.336   6.781   5.541 -0.0476 -0.4337 -0.5178
   99SAPE   H6X 9995   4.356   6.887   5.567  3.6500 -0.9697 -0.8071
   99SAPE   H6Y 9996   4.245   6.754   5.600 -0.7218  1.5687 -0.6291
   99SAPE   C37 9997   4.315   6.761   5.392 -0.7065  0.0831  0.4735
   99SAPE   H7X 9998   4.285   6.655   5.378 -4.2370  1.1054 -0.2216
   99SAPE   H7Y 9999   4.411   6.775   5.337 -1.0242 -1.0147 -0.3941
   99SAPE   C3810000   4.204   6.852   5.332  0.2981 -0.0442 -0.4131
   99SAPE   H8X10001   4.224   6.951   5.379 -0.3595  0.0016 -0.2151
   99SAPE   H8Y10002   4.104   6.820   5.371 -0.1443 -1.1079 -2.3853
   99SAPE   C3910003   4.200   6.861   5.174  0.7620 -0.2096  0.1042
   99SAPE   H9X10004   4.108   6.918   5.149  2.1566  2.4839  0.9727
   99SAPE   H9Y10005   4.205   6.756   5.137  0.4936 -0.4171  0.6474
   99SAPE  C31010006   4.319   6.935   5.118  0.7851  0.0890  0.2323
   99SAPE  H10X10007   4.411   6.906   5.173  0.4992 -1.9747 -0.3492
   99SAPE  H10Y10008   4.315   7.043   5.144  0.7258  0.5429 -1.5615
   99SAPE  C31110009   4.343   6.916   4.967 -0.0039 -0.1631  0.1210
   99SAPE  H11X10010   4.246   6.919   4.913 -0.3614  0.4099  0.7915
   99SAPE  H11Y10011   4.389   6.819   4.936  0.2652 -1.3623  4.0065
   99SAPE  C31210012   4.433   7.018   4.894 -0.6857 -0.2740  0.4888
   99SAPE  H12X10013   4.529   7.026   4.949 -2.2263  4.2621  2.6919
   99SAPE  H12Y10014   4.385   7.118   4.900 -0.6494 -0.1016 -1.5495
   99SAPE  C31310015   4.443   6.983   4.744 -0.1037  0.0000 -0.1161
   99SAPE  H13X10016   4.347   6.994   4.689  1.5924  1.5792 -2.8159
   99SAPE  H13Y10017   4.474   6.876   4.749 -1.8031 -0.4395  1.9505
   99SAPE  C31410018   4.547   7.052   4.660 -0.5080  0.1167 -0.4238
   99SAPE  H14X10019   4.648   7.043   4.705 -0.6142  0.0601 -0.1935
   99SAPE  H14Y10020   4.525   7.161   4.664  0.0412  0.1647  2.9357
   99SAPE  C31510021   4.560   6.997   4.517  0.0278  0.5294 -0.7871
   99SAPE  H15X10022   4.461   7.003   4.469 -0.5761 -0.5017  0.2843
   99SAPE  H15Y10023   4.590   6.890   4.530 -0.0176  0.5175 -0.7794
   99SAPE  C31610024   4.675   7.053   4.430  0.4652  0.6534 -0.6733
   99SAPE  H16X10025   4.767   7.046   4.492 -1.4898 -1.3425  2.1424
   99SAPE  H16Y10026   4.657   7.162   4.419  1.7789  0.9271 -0.2707
   99SAPE  C31710027   4.680   6.979   4.297  0.4270  0.0142  0.8574
   99SAPE  H17X10028   4.691   6.869   4.314  0.1856 -0.4972 -1.9375
   99SAPE  H17Y10029   4.772   7.015   4.246 -1.2791  1.2577 -1.4274
   99SAPE  C31810030   4.559   6.991   4.215  0.3696  0.0790  0.4308
   99SAPE  H18X10031   4.470   6.933   4.246  0.6727 -0.6488 -0.0605
   99SAPE  H18Y10032   4.579   6.967   4.108  1.3773  0.1367  0.6019
   99SAPE  H18Z10033   4.530   7.099   4.212  0.1537  0.0892  2.2757
  100SAPE     N10034   1.806   5.307   5.958 -0.2494 -0.0219 -0.1847
  100SAPE   HN110035   1.889   5.342   6.010 -0.9160 -1.4610  1.9019
  100SAPE   HN210036   1.822   5.204   5.957  2.6812  0.3824 -0.8643
  100SAPE   HN310037   1.811   5.331   5.857 -0.5594  2.1387  0.3025
  100SAPE   C1210038   1.675   5.344   6.017  0.2727  0.8113  0.6432
  100SAPE  H12A10039   1.639   5.272   6.093  1.4397  0.7510  1.1545
  100SAPE  H12B10040   1.597   5.352   5.938  1.3531 -1.2164 -0.6931
  100SAPE   C1110041   1.692   5.480   6.087 -0.0687 -0.7322 -1.0675
  100SAPE  H11A10042   1.743   5.472   6.185  1.1848 -1.2809 -1.7505
  100SAPE  H11B10043   1.587   5.514   6.100 -0.2132 -1.8307  0.6873
  100SAPE     P10044   1.715   5.627   5.861  0.0683 -0.2484  0.1232
  100SAPE   O1310045   1.810   5.729   5.814  0.2643 -0.0595  0.1498
  100SAPE   O1410046   1.704   5.504   5.784  0.0703  0.2664  0.0820
  100SAPE   O1210047   1.757   5.580   6.007 -0.0653 -0.0701  0.1134
  100SAPE   O1110048   1.580   5.702   5.887 -0.2023 -0.0998 -0.1776
  100SAPE    C110049   1.585   5.846   5.913 -0.0038  0.2209 -0.1196
  100SAPE    HA10050   1.667   5.877   5.981  2.6198 -1.4809 -2.3891
  100SAPE    HB10051   1.601   5.893   5.813 -0.0529 -0.9819 -0.6996
  100SAPE    C210052   1.451   5.905   5.955  0.5532  0.4851 -0.1206
  100SAPE    HS10053   1.423   5.855   6.050 -2.0753  0.7358 -0.7197
  100SAPE   O2110054   1.346   5.883   5.854 -0.4809 -0.0517 -0.4586
  100SAPE   C2110055   1.219   5.911   5.889 -0.2537  0.4159  0.4322
  100SAPE   O2210056   1.185   5.924   6.007 -0.5793  0.1687 -0.0589
  100SAPE   C2210057   1.136   5.924   5.762 -0.1335 -0.7081  0.1870
  100SAPE   H2R10058   1.092   5.826   5.732 -1.5883  0.5094 -1.7415
  100SAPE   H2S10059   1.039   5.966   5.796 -0.5159 -0.7076 -0.8608
  100SAPE    C310060   1.471   6.056   5.986 -0.3626  0.1226  0.1995
  100SAPE    HX10061   1.540   6.059   6.073  1.9496 -1.1918 -1.5350
  100SAPE    HY10062   1.372   6.096   6.017 -0.2540 -0.7758  1.7011
  100SAPE   O3110063   1.524   6.133   5.876 -0.1740 -0.0915 -0.0855
  100SAPE   C3110064   1.457   6.228   5.827  0.1285 -0.0791  0.3972
  100SAPE   O3210065   1.349   6.272   5.866 -0.2534  0.4872  0.1928
  100SAPE   C3210066   1.545   6.290   5.713 -0.0311  0.2165 -0.7884
  100SAPE   H2X10067   1.642   6.235   5.709 -0.1702 -0.1448  0.5497
  100SAPE   H2Y10068   1.576   6.395   5.734 -2.4242  0.6050  1.0437
  100SAPE   C2310069   1.203   5.993   5.639 -0.2787 -0.8545  0.8915
  100SAPE   H3R10070   1.295   5.937   5.611  3.1128  3.4333  2.8773
  100SAPE   H3S10071   1.243   6.091   5.674  0.1599 -1.9461  3.5310
  100SAPE   C2410072   1.119   6.004   5.512 -0.5880  0.2828 -0.6147
  100SAPE   H4R10073   1.161   6.083   5.445  2.9293 -0.0465  1.0863
  100SAPE   H4S10074   1.020   6.043   5.543 -0.3080  1.1181 -0.7523
  100SAPE   C2510075   1.105   5.868   5.446  0.5032 -0.3167 -0.4869
  100SAPE   H5R10076   1.032   5.796   5.485  1.0866 -0.0308  1.1998
  100SAPE   C2610077   1.157   5.828   5.330  0.0615  0.3049 -0.3050
  100SAPE   H6R10078   1.128   5.727   5.297  0.7360  0.3823 -1.1678
  100SAPE   C2710079   1.231   5.906   5.233  0.2783 -0.1955  0.0776
  100SAPE   H7R10080   1.339   5.892   5.255 -0.2159 -1.4396  1.8445
  100SAPE   H7S10081   1.214   6.016   5.231 -0.0313 -0.2564 -2.1302
  100SAPE   C2810082   1.210   5.874   5.086 -0.8166  0.2688  0.0039
  100SAPE   H8R10083   1.278   5.799   5.042 -1.4647 -0.1376 -0.3118
  100SAPE   C2910084   1.111   5.917   5.009 -0.5924  0.7802 -0.8217
  100SAPE   H9R10085   1.117   5.894   4.901 -2.3640 -3.6601 -0.0792
  100SAPE  C21010086   0.998   6.009   5.048  0.7420  0.1056  0.0385
  100SAPE  H10R10087   0.998   6.113   5.009  1.2151  0.7802  1.7761
  100SAPE  H10S10088   0.998   6.024   5.159 -3.0029 -2.0762  0.4189
  100SAPE  C21110089   0.863   5.949   5.014  0.1085 -0.8857 -0.0038
  100SAPE  H11R10090   0.794   5.932   5.097 -0.5298 -1.7072 -0.6857
  100SAPE  C21210091   0.811   5.922   4.887  0.6568 -0.0111 -0.0464
  100SAPE  H12R10092   0.706   5.890   4.880  0.5537  0.7663 -2.6309
  100SAPE  C21310093   0.875   5.934   4.747  0.1432  0.7124 -0.4556
  100SAPE  H13R10094   0.825   5.857   4.685 -1.6876  1.0359  0.5904
  100SAPE  H13S10095   0.981   5.900   4.746 -1.2911 -4.1043  0.0074
  100SAPE  C21410096   0.854   6.065   4.673  0.7936 -0.8840 -0.0457
  100SAPE  H14R10097   0.819   6.147   4.738 -1.2995 -0.7829 -1.2654
  100SAPE  C21510098   0.861   6.097   4.544 -0.1985  0.7259 -0.5339
  100SAPE  H15R10099   0.857   6.205   4.522  2.5925  1.0103  0.1854
  100SAPE  C21610100   0.899   6.015   4.431  0.5212  0.1898 -0.4993
  100SAPE  H16R10101   0.938   5.916   4.464  0.0509  0.5580  1.2062
  100SAPE  H16S10102   0.977   6.066   4.370  1.1812 -0.4531 -0.2153
  100SAPE  C21710103   0.782   5.969   4.340  0.0322 -0.4812  0.3550
  100SAPE  H17R10104   0.731   6.053   4.288  0.2624 -0.0915  0.7439
  100SAPE  H17S10105   0.701   5.926   4.403 -2.0355  2.0046 -0.5172
  100SAPE  C21810106   0.840   5.866   4.234 -1.0148 -0.7457  0.1254
  100SAPE  H18R10107   0.764   5.805   4.180  0.2663  0.0664 -2.7259
  100SAPE  H18S10108   0.904   5.800   4.296 -0.4473  0.7339  1.1582
  100SAPE  C21910109   0.924   5.926   4.122 -0.0677 -0.2593 -0.0553
  100SAPE  H19R10110   0.991   5.843   4.092 -0.5399 -0.4844 -0.4786
  100SAPE  H19S10111   0.995   6.000   4.165 -0.0787 -0.4051  0.2114
  100SAPE  C22010112   0.854   5.996   4.008  0.0237  0.5719 -0.3064
  100SAPE  H20R10113   0.925   6.037   3.933 -0.1359  1.8509  0.2278
  100SAPE  H20S10114   0.786   6.072   4.053  1.8064  1.2465  1.3115
  100SAPE  H20T10115   0.793   5.916   3.961  0.3134  1.6635 -2.6009
  100SAPE   C3310116   1.495   6.307   5.568 -0.3223  0.2146 -0.3189
  100SAPE   H3X10117   1.550   6.386   5.512 -0.7717  1.5580  1.0990
  100SAPE   H3Y10118   1.398   6.360   5.585  0.6684  1.5681  1.2445
  100SAPE   C3410119   1.485   6.178   5.482  0.0499  0.4634 -0.0164
  100SAPE   H4X10120   1.399   6.124   5.527 -0.6582  0.7812 -0.9851
  100SAPE   H4Y10121   1.577   6.119   5.504  1.2809  0.2644 -5.0086
  100SAPE   C3510122   1.468   6.219   5.335  0.5124  0.0696  0.1240
  100SAPE   H5X10123   1.377   6.277   5.308  0.0833 -1.4837 -1.9833
  100SAPE   H5Y10124   1.450   6.125   5.278  0.0242 -0.1788  0.6892
  100SAPE   C3610125   1.593   6.276   5.272  0.4757  1.0072 -0.5808
  100SAPE   H6X10126   1.662   6.189   5.270 -1.7334 -0.9163  2.1474
  100SAPE   H6Y10127   1.633   6.364   5.327  0.2700  2.2912 -2.4353
  100SAPE   C3710128   1.569   6.324   5.121  0.6629  0.7925 -0.3290
  100SAPE   H7X10129   1.669   6.347   5.079  0.7160  1.7086  0.2699
  100SAPE   H7Y10130   1.530   6.428   5.129  0.0331  0.3945  2.3712
  100SAPE   C3810131   1.483   6.235   5.034  0.4189 -0.1063 -0.4505
  100SAPE   H8X10132   1.388   6.195   5.074 -0.9335  1.7422 -1.7078
  100SAPE   H8Y10133   1.550   6.148   5.019 -0.8387 -1.1589  0.0077
  100SAPE   C3910134   1.449   6.300   4.898  0.5588 -0.0140 -0.5123
  100SAPE   H9X10135   1.526   6.371   4.862  0.7328  0.2917  0.4354
  100SAPE   H9Y10136   1.370   6.378   4.909 -1.4308 -1.8210 -1.5281
  100SAPE  C31010137   1.431   6.195   4.786 -0.2774 -0.3776 -0.5147
  100SAPE  H10X10138   1.524   6.135   4.774  0.6978  0.2724  3.3609
  100SAPE  H10Y10139   1.425   6.264   4.699  1.2481  0.2029 -0.1718
  100SAPE  C31110140   1.307   6.109   4.796  0.6395 -0.1219 -0.1688
  100SAPE  H11X10141   1.245   6.156   4.875  0.6601 -0.8075  0.2572
  100SAPE  H11Y10142   1.323   6.015   4.852 -0.3934 -0.2205 -0.0255
  100SAPE  C31210143   1.221   6.103   4.674 -0.1375  0.3618  0.2844
  100SAPE  H12X10144   1.202   6.199   4.621 -0.0612  0.3508  0.2378
  100SAPE  H12Y10145   1.123   6.077   4.720 -0.1348 -1.8283 -0.8900
  100SAPE  C31310146   1.249   5.987   4.574  0.1626 -0.2569  0.2860
  100SAPE  H13X10147   1.158   5.955   4.519  0.0463  1.8126 -0.7707
  100SAPE  H13Y10148   1.278   5.895   4.629  1.2381 -0.2002 -0.1913
  100SAPE  C31410149   1.356   6.020   4.479 -0.1959  0.8067 -0.4884
  100SAPE  H14X10150   1.449   6.058   4.526 -0.2105 -1.5443  1.5196
  100SAPE  H14Y10151   1.326   6.110   4.419 -1.2687  0.1239 -1.0027
  100SAPE  C31510152   1.380   5.904   4.381 -0.9217 -0.0654 -0.2776
  100SAPE  H15X10153   1.423   5.811   4.425  1.2364  0.8681 -0.3393
  100SAPE  H15Y10154   1.470   5.932   4.321 -0.2008  2.2936  1.8600
  100SAPE  C31610155   1.270   5.858   4.278 -0.2032 -0.1956 -0.3090
  100SAPE  H16X10156   1.199   5.944   4.282  1.0894  0.9544 -1.5347
  100SAPE  H16Y10157   1.206   5.778   4.319  1.8278 -2.7953 -2.0825
  100SAPE  C31710158   1.314   5.838   4.134 -0.1902 -0.0639 -0.4560
  100SAPE  H17X10159   1.379   5.925   4.109  0.7881 -0.4655  0.6682
  100SAPE  H17Y10160   1.226   5.832   4.066  1.3274 -2.2997 -2.3183
  100SAPE  C31810161   1.399   5.714   4.112  0.3964  0.0267 -0.2080
  100SAPE  H18X10162   1.349   5.621   4.145  2.7260 -0.5986  1.7407
  100SAPE  H18Y10163   1.496   5.735   4.162 -0.2966  4.1571 -0.4071
  100SAPE  H18Z10164   1.407   5.693   4.003  1.4713 -0.2660 -0.0736
  101SAPE     N10165   0.597   0.822   6.371  0.8888  0.5831  0.2154
  101SAPE   HN110166   0.519   0.871   6.323 -0.5671 -0.2060  1.6824
  101SAPE   HN210167   0.597   0.719   6.357 -1.9127  0.5994 -0.2605
  101SAPE   HN310168   0.568   0.842   6.469  2.8762  0.4827  0.8509
  101SAPE   C1210169   0.733   0.881   6.358  0.6186 -0.4470 -0.1145
  101SAPE  H12A10170   0.810   0.813   6.400 -0.5195 -1.9806 -0.4732
  101SAPE  H12B10171   0.731   0.980   6.407 -1.5970  0.0669 -1.2071
  101SAPE   C1110172   0.767   0.919   6.209  0.6353 -0.4943 -0.7484
  101SAPE  H11A10173   0.752   0.827   6.149 -1.8578 -0.6980  0.1467
  101SAPE  H11B10174   0.871   0.958   6.203  0.6240 -0.5274 -1.1599
  101SAPE     P10175   0.691   1.158   6.141  0.2702  0.4733  0.1858
  101SAPE   O1310176   0.764   1.194   6.268  0.3844 -0.7143  0.4459
  101SAPE   O1410177   0.760   1.194   6.016  0.9470 -0.0641  0.0776
  101SAPE   O1210178   0.671   1.004   6.149  0.0756 -0.3187  0.1915
  101SAPE   O1110179   0.543   1.205   6.148  0.0596  0.4616  0.2410
  101SAPE    C110180   0.493   1.292   6.253  0.2370 -0.1128 -0.6017
  101SAPE    HA10181   0.395   1.263   6.296  0.4744  3.1011  2.3319
  101SAPE    HB10182   0.551   1.285   6.348 -1.5362 -1.4360  0.4162
  101SAPE    C210183   0.496   1.449   6.214 -0.2516 -0.6813 -0.5517
  101SAPE    HS10184   0.442   1.504   6.294  1.6062  0.3675  0.0081
  101SAPE   O2110185   0.443   1.475   6.092 -0.2121  0.6136 -0.4756
  101SAPE   C2110186   0.326   1.432   6.066  0.3885  0.2591 -1.0019
  101SAPE   O2210187   0.243   1.387   6.148  0.6979  0.6282 -0.2991
  101SAPE   C2210188   0.291   1.454   5.922  0.0655  0.5965  0.1835
  101SAPE   H2R10189   0.288   1.349   5.886 -0.5786  0.5058  0.4922
  101SAPE   H2S10190   0.188   1.495   5.921  0.2158  0.9539 -2.7326
  101SAPE    C310191   0.641   1.496   6.206 -0.2256 -0.0402  0.6450
  101SAPE    HX10192   0.692   1.440   6.125  0.5479  0.9235  0.4518
  101SAPE    HY10193   0.695   1.468   6.299 -0.6043 -0.5618  0.7099
  101SAPE   O3110194   0.639   1.635   6.203 -0.6669  0.0629  0.0351
  101SAPE   C3110195   0.693   1.684   6.084  0.2337 -0.1402 -0.2851
  101SAPE   O3210196   0.732   1.613   5.995 -0.0267  0.1877 -0.1021
  101SAPE   C3210197   0.676   1.837   6.081  0.2085  0.7138  0.5076
  101SAPE   H2X10198   0.694   1.873   6.184 -0.2176 -0.4196  0.9918
  101SAPE   H2Y10199   0.567   1.849   6.063  0.9816  2.1336 -3.8387
  101SAPE   C2310200   0.398   1.518   5.835  0.2118 -0.1176 -0.9460
  101SAPE   H3R10201   0.492   1.459   5.838 -0.4753 -1.2133 -0.6644
  101SAPE   H3S10202   0.418   1.614   5.885  0.3293 -0.3434 -0.5612
  101SAPE   C2410203   0.340   1.552   5.695 -0.1121 -0.0444 -0.1928
  101SAPE   H4R10204   0.382   1.653   5.671  0.8860 -0.3459  0.2570
  101SAPE   H4S10205   0.231   1.569   5.695  0.1986  2.1317 -0.8298
  101SAPE   C2510206   0.381   1.449   5.595  0.5446  0.1714  0.5188
  101SAPE   H5R10207   0.330   1.352   5.590  0.8344 -0.0513  1.7523
  101SAPE   C2610208   0.487   1.465   5.519  0.9325 -0.1652  0.1593
  101SAPE   H6R10209   0.505   1.405   5.429  0.4361  0.1396 -0.1455
  101SAPE   C2710210   0.570   1.590   5.512  0.3901  0.1776  0.7752
  101SAPE   H7R10211   0.493   1.669   5.518 -0.2122 -0.2745 -0.8605
  101SAPE   H7S10212   0.621   1.597   5.414  0.1094  1.2127  0.7014
  101SAPE   C2810213   0.667   1.594   5.628 -0.1084  0.4123  0.2268
  101SAPE   H8R10214   0.619   1.581   5.725 -0.6755 -0.5960 -0.1825
  101SAPE   C2910215   0.791   1.640   5.632 -0.4205  0.0286  0.0026
  101SAPE   H9R10216   0.858   1.638   5.719 -3.1755 -1.4331  2.1508
  101SAPE  C21010217   0.867   1.679   5.512 -0.0518  0.3386  0.5099
  101SAPE  H10R10218   0.830   1.619   5.426 -0.9543 -0.0303  1.1430
  101SAPE  H10S10219   0.970   1.640   5.522 -0.0613  0.4052  0.8683
  101SAPE  C21110220   0.879   1.826   5.493 -0.2209 -0.5504 -0.4714
  101SAPE  H11R10221   0.826   1.891   5.564  0.8618 -0.2162  0.0349
  101SAPE  C21210222   0.941   1.879   5.388  0.9290 -0.6590  0.7242
  101SAPE  H12R10223   0.960   1.987   5.396 -0.9644 -0.3814  1.8417
  101SAPE  C21310224   1.005   1.816   5.267  0.1066 -0.4786  0.7275
  101SAPE  H13R10225   1.056   1.726   5.308 -2.0964 -1.9316  0.3552
  101SAPE  H13S10226   1.083   1.884   5.226  0.2178 -0.9392  0.1682
  101SAPE  C21410227   0.911   1.782   5.163  0.2654  0.0526 -0.6386
  101SAPE  H14R10228   0.808   1.791   5.201 -0.1240  1.4105 -1.9735
  101SAPE  C21510229   0.931   1.754   5.039  0.5663  0.6292 -0.5849
  101SAPE  H15R10230   0.841   1.753   4.975  1.3753  1.6200 -1.7895
  101SAPE  C21610231   1.064   1.760   4.970 -0.3898  0.5993  0.0492
  101SAPE  H16R10232   1.152   1.787   5.033 -0.4606 -1.8877  1.2765
  101SAPE  H16S10233   1.072   1.832   4.886 -0.5580 -0.5533 -0.9609
  101SAPE  C21710234   1.090   1.630   4.890 -0.2212 -0.6107  0.3071
  101SAPE  H17R10235   1.020   1.630   4.804  1.3133 -0.4200 -0.9622
  101SAPE  H17S10236   1.076   1.546   4.963 -0.3782  1.3007  2.5377
  101SAPE  C21810237   1.243   1.615   4.848  0.3117 -0.2254  0.2185
  101SAPE  H18R10238   1.268   1.515   4.806 -0.9402 -0.1853 -0.6881
  101SAPE  H18S10239   1.308   1.628   4.936 -1.3271 -0.8526  1.5548
  101SAPE  C21910240   1.284   1.734   4.752 -0.3594 -0.1415  0.2691
  101SAPE  H19R10241   1.325   1.820   4.808 -1.9768  1.5665 -1.1005
  101SAPE  H19S10242   1.185   1.772   4.719 -1.5312 -2.1456  1.3643
  101SAPE  C22010243   1.392   1.684   4.657 -0.0379  0.0688  0.5250
  101SAPE  H20R10244   1.334   1.638   4.573 -3.8160  1.1888  2.4055
  101SAPE  H20S10245   1.464   1.615   4.706 -0.4112  0.6676  1.9358
  101SAPE  H20T10246   1.468   1.759   4.627 -2.1160  2.6817  1.6153
  101SAPE   C3310247   0.765   1.907   5.971 -0.0895 -0.1802 -0.3981
  101SAPE   H3X10248   0.728   2.011   5.962 -2.4944 -1.0534 -1.0293
  101SAPE   H3Y10249   0.753   1.870   5.867 -1.6321  0.8949 -0.6116
  101SAPE   C3410250   0.911   1.924   6.016  0.0050  0.5591  0.4379
  101SAPE   H4X10251   0.919   1.969   6.117 -0.5801  4.2317 -1.0900
  101SAPE   H4Y10252   0.955   2.007   5.957  0.8830  1.3010  2.0773
  101SAPE   C3510253   1.003   1.800   5.994 -0.7028 -0.2490  0.3595
  101SAPE   H5X10254   0.979   1.759   5.894 -0.1038  1.9470 -0.7267
  101SAPE   H5Y10255   0.976   1.723   6.069  1.3643  0.8469  2.2867
  101SAPE   C3610256   1.147   1.846   5.990 -0.8050 -0.5562  0.2590
  101SAPE   H6X10257   1.204   1.764   6.039  0.4775  0.9121  1.2985
  101SAPE   H6Y10258   1.166   1.942   6.044  0.3168 -0.7781  0.2789
  101SAPE   C3710259   1.203   1.856   5.849 -0.3403  0.2425 -0.3245
  101SAPE   H7X10260   1.167   1.953   5.810  1.4271  1.0161 -0.0562
  101SAPE   H7Y10261   1.155   1.775   5.790 -3.3102  0.3657  1.8227
  101SAPE   C3810262   1.351   1.854   5.832  0.4908  0.4100  0.0686
  101SAPE   H8X10263   1.398   1.756   5.855 -1.4625 -0.2435  1.4141
  101SAPE   H8Y10264   1.391   1.919   5.912  1.1374 -0.4133  0.4174
  101SAPE   C3910265   1.397   1.893   5.693  0.2654  0.0742 -0.4723
  101SAPE   H9X10266   1.508   1.898   5.692  0.4024 -1.0002  2.5408
  101SAPE   H9Y10267   1.368   1.998   5.672  0.7900  0.0440 -1.3693
  101SAPE  C31010268   1.364   1.790   5.588  0.0448  0.1585  0.8761
  101SAPE  H10X10269   1.254   1.770   5.589  0.2330 -1.0278 -0.1932
  101SAPE  H10Y10270   1.421   1.703   5.626  0.8001  0.4431  0.3988
  101SAPE  C31110271   1.409   1.831   5.443 -0.2610  0.1247  0.0940
  101SAPE  H11X10272   1.499   1.895   5.442  0.5700 -1.0495 -0.7574
  101SAPE  H11Y10273   1.327   1.891   5.398  0.0639  0.3961 -0.1326
  101SAPE  C31210274   1.435   1.711   5.347  0.0236  0.0649  0.1088
  101SAPE  H12X10275   1.351   1.638   5.354  0.6670 -1.1097 -3.5169
  101SAPE  H12Y10276   1.521   1.651   5.383 -1.0013 -1.1791  0.5129
  101SAPE  C31310277   1.450   1.737   5.193  0.1486  0.4561  0.1572
  101SAPE  H13X10278   1.362   1.800   5.166  0.7935  1.0304 -0.6388
  101SAPE  H13Y10279   1.460   1.644   5.134 -0.5313  0.2933  0.2921
  101SAPE  C31410280   1.580   1.811   5.173  0.0486  0.2815 -0.7516
  101SAPE  H14X10281   1.662   1.744   5.206 -0.7023  0.0738  0.7016
  101SAPE  H14Y10282   1.575   1.902   5.235  1.9172 -1.7704  2.5452
  101SAPE  C31510283   1.601   1.856   5.028 -0.5394 -0.3318 -0.7772
  101SAPE  H15X10284   1.517   1.928   5.014 -0.9727 -0.4723  0.9891
  101SAPE  H15Y10285   1.577   1.767   4.966  0.5383 -1.1068 -0.1036
  101SAPE  C31610286   1.733   1.926   5.000 -0.1130  0.0395  0.0180
  101SAPE  H16X10287   1.813   1.852   5.026 -2.5096 -2.6120  0.0588
  101SAPE  H16Y10288   1.748   2.011   5.070 -0.6756 -1.2729  1.7784
  101SAPE  C31710289   1.745   1.972   4.851 -0.6378 -0.1064  0.6321
  101SAPE  H17X10290   1.845   2.022   4.854  0.1065 -1.3486 -1.8037
  101SAPE  H17Y10291   1.677   2.059   4.841  0.3394  0.5718 -0.3336
  101SAPE  C31810292   1.734   1.875   4.737  0.0493 -0.3347 -0.2910
  101SAPE  H18X10293   1.633   1.830   4.735  0.9778 -2.5216  0.5635
  101SAPE  H18Y10294   1.805   1.790   4.750  1.6912  0.8194 -1.5414
  101SAPE  H18Z10295   1.749   1.926   4.640  0.0111  1.0794  0.4344
  102SAPE     N10296   6.548   1.337   6.000 -0.1841  0.3295  0.2670
  102SAPE   HN110297   6.522   1.368   6.096 -1.9326 -1.6244  0.4537
  102SAPE   HN210298   6.648   1.352   5.976 -0.0875  0.4690  0.7509
  102SAPE   HN310299   6.511   1.407   5.933  0.7600  2.0625  1.5293
  102SAPE   C1210300   6.506   1.203   5.962  0.2077  0.1359 -0.2950
  102SAPE  H12A10301   6.512   1.183   5.853  0.5299 -2.0745  0.1107
  102SAPE  H12B10302   6.405   1.199   6.009  0.5941  2.8050  0.8678
  102SAPE   C1110303   6.585   1.097   6.046 -0.3641 -0.4025 -0.2469
  102SAPE  H11A10304   6.683   1.098   5.995 -0.1532  1.4625  0.1678
  102SAPE  H11B10305   6.544   0.994   6.033 -1.8690  0.3274 -1.4221
  102SAPE     P10306   6.526   1.066   6.309 -0.0911 -0.0645  0.1447
  102SAPE   O1310307   6.510   1.155   6.425 -0.1974 -0.7425 -0.1800
  102SAPE   O1410308   6.400   1.009   6.252  0.8961 -0.7794  0.0671
  102SAPE   O1210309   6.595   1.134   6.180 -0.0080 -0.1666 -0.3335
  102SAPE   O1110310   6.624   0.950   6.354  0.2405  0.0735 -0.3092
  102SAPE    C110311   6.644   0.831   6.273 -0.1840 -0.8231  0.4278
  102SAPE    HA10312   6.616   0.745   6.338  0.6468 -0.1071  1.7358
  102SAPE    HB10313   6.575   0.827   6.185 -0.4702  0.5979  0.5686
  102SAPE    C210314   6.798   0.814   6.228  1.1769 -0.4999  0.6834
  102SAPE    HS10315   6.860   0.814   6.320  2.2077 -1.5830 -0.0025
  102SAPE   O2110316   6.843   0.924   6.142 -0.7640 -0.4047 -0.9841
  102SAPE   C2110317   6.968   0.924   6.121 -0.3789  0.0068  0.9699
  102SAPE   O2210318   7.054   0.857   6.173 -0.0159  0.2713  0.3431
  102SAPE   C2210319   6.993   1.028   6.007  0.0408 -0.5110 -0.9942
  102SAPE   H2R10320   6.916   1.021   5.927 -1.2881  1.5063  0.0705
  102SAPE   H2S10321   6.989   1.125   6.060  0.7136 -0.4917 -0.9771
  102SAPE    C310322   6.806   0.684   6.145  0.0222 -0.3978 -0.1436
  102SAPE    HX10323   6.787   0.595   6.208 -1.3541 -1.1466 -1.5955
  102SAPE    HY10324   6.912   0.684   6.111  0.2631 -0.0023  0.5874
  102SAPE   O3110325   6.719   0.684   6.026 -0.1249 -0.3522  0.2525
  102SAPE   C3110326   6.695   0.572   5.972  0.6271  0.7162  1.0564
  102SAPE   O3210327   6.742   0.464   6.002  0.1369 -0.6704  0.3261
  102SAPE   C3210328   6.589   0.587   5.859 -0.5125  0.7381 -0.2172
  102SAPE   H2X10329   6.500   0.534   5.897  1.3547 -0.5668  2.4404
  102SAPE   H2Y10330   6.625   0.538   5.766 -2.0353  0.4964 -0.6896
  102SAPE   C2310331   7.140   1.013   5.956  0.0710 -0.4016  0.3794
  102SAPE   H3R10332   7.155   0.906   5.931  1.0691 -0.1631 -0.0594
  102SAPE   H3S10333   7.216   1.033   6.035  1.5561  0.9084 -1.3403
  102SAPE   C2410334   7.169   1.093   5.826  0.0528 -0.5537  0.0675
  102SAPE   H4R10335   7.154   1.200   5.850  2.7132 -0.2021  0.3124
  102SAPE   H4S10336   7.106   1.055   5.743 -0.1725 -2.1380  0.9333
  102SAPE   C2510337   7.320   1.092   5.810 -0.4185 -0.1480  0.5552
  102SAPE   H5R10338   7.370   1.143   5.894 -2.2676 -0.6010  1.9741
  102SAPE   C2610339   7.392   1.042   5.714  0.7828 -0.3924  0.0569
  102SAPE   H6R10340   7.502   1.031   5.719  0.9012  0.1883 -1.0426
  102SAPE   C2710341   7.332   0.966   5.596  0.6909 -0.2040  0.3573
  102SAPE   H7R10342   7.325   1.023   5.501 -1.0119 -1.1088 -0.0861
  102SAPE   H7S10343   7.229   0.925   5.605  0.1814  0.8299 -0.6511
  102SAPE   C2810344   7.408   0.845   5.582  0.4939 -0.0862  0.1277
  102SAPE   H8R10345   7.404   0.785   5.674 -0.4503  0.0811  0.2039
  102SAPE   C2910346   7.469   0.795   5.469  0.4458  0.0895 -0.2125
  102SAPE   H9R10347   7.542   0.715   5.488  2.9465  2.4220  0.3185
  102SAPE  C21010348   7.469   0.833   5.326  1.0775  0.2873 -0.6131
  102SAPE  H10R10349   7.575   0.851   5.300  0.6099  2.5180 -1.0970
  102SAPE  H10S10350   7.415   0.928   5.306  0.8404  0.2845 -0.0007
  102SAPE  C21110351   7.396   0.717   5.247  0.2014 -0.0393 -0.1147
  102SAPE  H11R10352   7.331   0.658   5.312  0.1182 -0.1851 -0.3343
  102SAPE  C21210353   7.443   0.676   5.124 -0.4096  0.3994  0.2744
  102SAPE  H12R10354   7.392   0.586   5.086 -2.0394  1.3388  0.1982
  102SAPE  C21310355   7.546   0.729   5.030 -0.9002  0.5398  0.2727
  102SAPE  H13R10356   7.569   0.653   4.952 -0.3463 -1.0557  1.9702
  102SAPE  H13S10357   7.637   0.755   5.087 -1.9000  0.0835  2.0966
  102SAPE  C21410358   7.491   0.854   4.970  1.1674  0.4378 -0.4310
  102SAPE  H14R10359   7.449   0.924   5.043  2.7053 -0.9625  1.8417
  102SAPE  C21510360   7.477   0.890   4.846  0.1697  0.5833  0.4247
  102SAPE  H15R10361   7.455   0.996   4.828 -2.8001 -0.4113 -2.2979
  102SAPE  C21610362   7.522   0.811   4.727 -0.1188  0.3790  0.5650
  102SAPE  H16R10363   7.610   0.749   4.755  1.1971  2.1531  0.4184
  102SAPE  H16S10364   7.549   0.889   4.653 -1.3498 -0.3398 -0.6783
  102SAPE  C21710365   7.430   0.705   4.652  0.0590  0.1042 -0.0842
  102SAPE  H17R10366   7.408   0.617   4.716 -1.1652 -0.4964 -1.3004
  102SAPE  H17S10367   7.484   0.672   4.561  0.5754  2.1367 -0.5277
  102SAPE  C21810368   7.281   0.756   4.620  0.2778 -0.6517 -0.9207
  102SAPE  H18R10369   7.253   0.793   4.721  2.3744  0.9771 -0.8851
  102SAPE  H18S10370   7.210   0.674   4.596 -0.0596 -0.9359  0.9824
  102SAPE  C21910371   7.275   0.877   4.530  0.0509 -0.0242 -0.2601
  102SAPE  H19R10372   7.358   0.943   4.564 -0.3560 -0.0863  0.8465
  102SAPE  H19S10373   7.177   0.928   4.539 -0.8250 -1.4634 -1.2747
  102SAPE  C22010374   7.290   0.847   4.378  0.6030  0.3072 -0.2585
  102SAPE  H20R10375   7.234   0.756   4.345  0.5348  0.3735 -0.3264
  102SAPE  H20S10376   7.395   0.814   4.365  0.0343 -1.2539 -1.0878
  102SAPE  H20T10377   7.272   0.938   4.318 -2.4511  0.6806  1.1010
  102SAPE   C3310378   6.561   0.733   5.812 -0.0625 -0.4312 -0.3721
  102SAPE   H3X10379   6.540   0.791   5.904 -0.1510 -3.1700  1.3864
  102SAPE   H3Y10380   6.470   0.741   5.748 -1.1093  1.1262  1.2661
  102SAPE   C3410381   6.680   0.804   5.747  0.1629  0.0370  0.1249
  102SAPE   H4X10382   6.775   0.796   5.803  1.1346 -0.8428 -1.6135
  102SAPE   H4Y10383   6.640   0.908   5.739  1.5634  0.4100 -3.1062
  102SAPE   C3510384   6.716   0.769   5.600  0.6279  0.5644  0.4002
  102SAPE   H5X10385   6.627   0.742   5.538 -0.4070  2.2545  1.0961
  102SAPE   H5Y10386   6.776   0.677   5.613  0.0837  0.2127  0.4528
  102SAPE   C3610387   6.804   0.873   5.534  0.2722 -0.4510 -0.2693
  102SAPE   H6X10388   6.892   0.901   5.595 -0.9170 -1.9508  2.1978
  102SAPE   H6Y10389   6.730   0.956   5.532 -1.4679 -1.9773 -0.5633
  102SAPE   C3710390   6.851   0.857   5.392  0.6966 -0.3128 -0.0719
  102SAPE   H7X10391   6.889   0.955   5.358  2.0050  0.0864  2.4504
  102SAPE   H7Y10392   6.774   0.829   5.317 -1.0107  3.3398  0.1996
  102SAPE   C3810393   6.954   0.753   5.373  0.1812 -0.7214  0.1162
  102SAPE   H8X10394   6.909   0.655   5.399 -0.6663 -0.0029  1.3864
  102SAPE   H8Y10395   7.029   0.779   5.450 -0.9516  2.4362  0.2044
  102SAPE   C3910396   7.020   0.763   5.235  0.2678 -0.4347  0.3219
  102SAPE   H9X10397   7.093   0.846   5.230 -0.0563 -0.2076 -0.9203
  102SAPE   H9Y10398   6.936   0.792   5.168 -1.1764  0.7127  2.5712
  102SAPE  C31010399   7.062   0.641   5.163  0.0554 -0.1046  0.0401
  102SAPE  H10X10400   7.132   0.574   5.218  1.0579 -1.1839 -2.4550
  102SAPE  H10Y10401   7.123   0.674   5.077  0.8548 -1.9990 -0.1477
  102SAPE  C31110402   6.941   0.549   5.135  0.1727  0.4563  0.0214
  102SAPE  H11X10403   6.883   0.614   5.066  1.0472 -0.9293 -2.0724
  102SAPE  H11Y10404   6.885   0.526   5.228  1.1874 -0.4950  0.4054
  102SAPE  C31210405   6.974   0.427   5.041  0.8768 -0.1950 -0.7010
  102SAPE  H12X10406   6.880   0.376   5.010  1.2729 -0.8605 -0.8293
  102SAPE  H12Y10407   7.040   0.355   5.094 -0.3287 -0.5942  0.2634
  102SAPE  C31310408   7.033   0.460   4.901 -0.0192  0.7546 -0.3994
  102SAPE  H13X10409   7.132   0.505   4.926  0.2057 -0.0545  0.1982
  102SAPE  H13Y10410   6.969   0.540   4.857 -3.5851 -2.1342 -0.7239
  102SAPE  C31410411   7.046   0.344   4.802  0.1143 -0.0139 -0.2022
  102SAPE  H14X10412   6.950   0.290   4.793  0.6081 -0.8755 -0.3475
  102SAPE  H14Y10413   7.121   0.274   4.845 -1.0074 -0.5736  0.8573
  102SAPE  C31510414   7.094   0.392   4.669 -0.2680  0.3733  0.1749
  102SAPE  H15X10415   7.204   0.398   4.677 -0.3533  3.2483 -0.0429
  102SAPE  H15Y10416   7.053   0.493   4.646 -0.9367  0.1691  0.4432
  102SAPE  C31610417   7.058   0.306   4.545  0.2628  0.2413 -0.2408
  102SAPE  H16X10418   6.949   0.300   4.525 -0.1117  0.6146  1.6091
  102SAPE  H16Y10419   7.083   0.203   4.577 -2.3260 -0.6266 -0.9160
  102SAPE  C31710420   7.138   0.344   4.424 -0.0747 -0.0356 -0.1909
  102SAPE  H17X10421   7.144   0.263   4.348 -4.4212  0.9933 -1.7929
  102SAPE  H17Y10422   7.244   0.349   4.457  0.2761  0.9040 -1.4174
  102SAPE  C31810423   7.103   0.472   4.343 -0.2462 -0.2844  0.2376
  102SAPE  H18X10424   6.993   0.484   4.336 -0.0378  0.6454 -1.5805
  102SAPE  H18Y10425   7.158   0.476   4.247  1.7148 -2.5562  1.2039
  102SAPE  H18Z10426   7.148   0.564   4.387  1.2378 -0.6863 -0.4082
  103SAPE     N10427   2.493   3.629   1.889 -0.4300 -0.2741 -0.2291
  103SAPE   HN110428   2.532   3.713   1.937  0.2871 -1.4833  1.3332
  103SAPE   HN210429   2.483   3.548   1.954 -1.1867 -0.5261 -0.6541
  103SAPE   HN310430   2.558   3.599   1.813  1.1113 -2.0709  1.7158
  103SAPE   C1210431   2.359   3.683   1.838 -0.6053 -0.4992 -0.1900
  103SAPE  H12A10432   2.288   3.680   1.923  1.0010 -1.2865  1.1276
  103SAPE  H12B10433   2.317   3.607   1.769  0.3685 -1.8279  0.6590
  103SAPE   C1110434   2.381   3.821   1.777 -0.4833  0.0959  0.0916
  103SAPE  H11A10435   2.299   3.867   1.717  1.7527  1.5656 -1.9223
  103SAPE  H11B10436   2.456   3.807   1.697 -0.0247  2.3896  0.0820
  103SAPE     P10437   2.366   3.997   1.967  0.0381  0.0302  0.3344
  103SAPE   O1310438   2.422   4.131   1.977  0.0151 -0.4590  0.5472
  103SAPE   O1410439   2.218   3.985   1.932 -0.0999  0.0840  0.2650
  103SAPE   O1210440   2.445   3.911   1.863 -0.7297 -0.4944 -1.0102
  103SAPE   O1110441   2.401   3.907   2.095 -0.5422 -0.0674 -0.1955
  103SAPE    C110442   2.509   3.951   2.177  0.0128 -0.0444 -0.5533
  103SAPE    HA10443   2.608   3.933   2.130  1.4420  1.0068  1.9478
  103SAPE    HB10444   2.508   4.058   2.206  0.3831 -0.2298  0.1582
  103SAPE    C210445   2.523   3.874   2.307 -0.0816 -0.1563  0.4779
  103SAPE    HS10446   2.517   3.766   2.281 -3.6503 -0.0486  0.5541
  103SAPE   O2110447   2.417   3.913   2.398  0.2529 -0.2743  0.5182
  103SAPE   C2110448   2.400   3.831   2.510 -0.0174  0.4213 -0.3508
  103SAPE   O2210449   2.475   3.738   2.537 -0.4363 -0.2512 -0.3369
  103SAPE   C2210450   2.267   3.868   2.572 -0.0793  0.5464 -0.2361
  103SAPE   H2R10451   2.239   3.971   2.542 -1.9911  0.1379  0.0491
  103SAPE   H2S10452   2.195   3.792   2.535 -0.5490  2.0422 -2.4481
  103SAPE    C310453   2.661   3.906   2.371  0.1815 -0.5391 -0.5003
  103SAPE    HX10454   2.733   3.845   2.313  0.7119 -1.7510  1.3923
  103SAPE    HY10455   2.661   3.856   2.470  1.3359 -0.7722 -0.6150
  103SAPE   O3110456   2.703   4.038   2.368  0.5569 -0.3035  0.1324
  103SAPE   C3110457   2.693   4.106   2.483 -0.0304 -0.5187  0.0216
  103SAPE   O3210458   2.639   4.065   2.586  0.4286 -0.8047  0.2135
  103SAPE   C3210459   2.744   4.245   2.457  0.2905  0.6444 -0.3007
  103SAPE   H2X10460   2.656   4.308   2.429  1.6514  1.7626 -2.2127
  103SAPE   H2Y10461   2.813   4.255   2.371 -3.4091 -1.8088 -3.7018
  103SAPE   C2310462   2.258   3.872   2.728 -0.0623 -0.4092 -0.7615
  103SAPE   H3R10463   2.268   3.776   2.783  0.9751  1.3345  2.2347
  103SAPE   H3S10464   2.154   3.898   2.757  0.2499 -2.3362  2.2098
  103SAPE   C2410465   2.352   3.966   2.800  0.4465  0.1510 -0.3139
  103SAPE   H4R10466   2.319   4.069   2.773  1.7473  0.6918  0.0920
  103SAPE   H4S10467   2.459   3.963   2.768 -0.1369 -1.5955 -2.2100
  103SAPE   C2510468   2.344   3.940   2.948  0.3786  0.0131  0.1375
  103SAPE   H5R10469   2.382   3.841   2.977  0.1292  0.1147  0.8028
  103SAPE   C2610470   2.287   4.019   3.038 -0.2347 -0.0649  0.5923
  103SAPE   H6R10471   2.294   3.986   3.143  1.0126 -1.6292  0.0430
  103SAPE   C2710472   2.209   4.148   3.016 -0.1723 -0.1892 -1.0321
  103SAPE   H7R10473   2.120   4.133   3.081 -0.4080  1.7978 -0.8660
  103SAPE   H7S10474   2.168   4.156   2.913 -1.1624 -1.0859 -0.7082
  103SAPE   C2810475   2.283   4.276   3.054  0.3454  0.0526 -0.1806
  103SAPE   H8R10476   2.386   4.285   3.017  1.3631  3.2560  3.0549
  103SAPE   C2910477   2.249   4.374   3.136  0.5442  0.0347  0.3066
  103SAPE   H9R10478   2.319   4.450   3.175 -0.4525  0.3130  1.6280
  103SAPE  C21010479   2.118   4.386   3.214  0.0604  0.5423  0.4731
  103SAPE  H10R10480   2.040   4.309   3.195 -2.9724  2.8518  2.9484
  103SAPE  H10S10481   2.073   4.479   3.173  0.2499  1.1413  1.6027
  103SAPE  C21110482   2.130   4.391   3.366 -0.1910 -0.4850 -0.0612
  103SAPE  H11R10483   2.229   4.417   3.406 -0.2174  0.3681 -0.5253
  103SAPE  C21210484   2.033   4.358   3.454  1.0416 -0.0873  0.8317
  103SAPE  H12R10485   2.060   4.368   3.560  2.8091 -0.7503  0.4643
  103SAPE  C21310486   1.894   4.314   3.421  0.7890 -1.0572 -0.0124
  103SAPE  H13R10487   1.879   4.299   3.312  1.6676  1.3529 -0.5027
  103SAPE  H13S10488   1.824   4.389   3.464  0.8790 -2.6428  3.0555
  103SAPE  C21410489   1.870   4.183   3.490  0.0450  0.3244  0.2203
  103SAPE  H14R10490   1.952   4.156   3.559  0.5227  1.7939  0.2483
  103SAPE  C21510491   1.770   4.104   3.471 -0.2535 -0.3541 -0.2941
  103SAPE  H15R10492   1.780   4.004   3.516  0.3143  0.1878  0.8134
  103SAPE  C21610493   1.646   4.116   3.381 -0.0730 -0.3407  0.2087
  103SAPE  H16R10494   1.645   4.217   3.335 -0.0721  0.2298  1.4365
  103SAPE  H16S10495   1.550   4.105   3.436 -0.2246 -0.6828 -0.1264
  103SAPE  C21710496   1.646   4.013   3.269  0.2398 -0.4910  0.1739
  103SAPE  H17R10497   1.550   4.029   3.215 -0.5490  0.2358  1.7606
  103SAPE  H17S10498   1.654   3.907   3.300 -0.9523 -0.3574  0.9840
  103SAPE  C21810499   1.752   4.041   3.156 -0.1724 -0.1122  0.0932
  103SAPE  H18R10500   1.858   4.034   3.189  0.3361 -0.7352 -1.6031
  103SAPE  H18S10501   1.732   4.146   3.125  1.5410  0.3799  0.5826
  103SAPE  C21910502   1.737   3.953   3.035 -0.1074  0.3596 -0.6978
  103SAPE  H19R10503   1.630   3.921   3.033 -0.2366  0.7720 -0.5317
  103SAPE  H19S10504   1.794   3.858   3.048  1.3578  1.2026 -0.8836
  103SAPE  C22010505   1.797   4.018   2.912  0.3550 -0.2308 -0.8892
  103SAPE  H20R10506   1.736   4.110   2.897 -0.6291 -0.7595 -0.2226
  103SAPE  H20S10507   1.779   3.948   2.829  0.7703 -0.6571 -0.6204
  103SAPE  H20T10508   1.905   4.039   2.926 -0.0376  0.2526  1.8689
  103SAPE   C3310509   2.820   4.296   2.586 -0.6212  0.0596  0.6686
  103SAPE   H3X10510   2.921   4.250   2.584 -1.1741 -1.1797  0.9028
  103SAPE   H3Y10511   2.761   4.279   2.679  0.5224 -0.6114  1.2860
  103SAPE   C3410512   2.851   4.447   2.578  0.3898  0.0266  0.0636
  103SAPE   H4X10513   2.756   4.501   2.594 -0.0833 -0.3692 -1.3621
  103SAPE   H4Y10514   2.894   4.482   2.481  0.1749  2.3106  0.7621
  103SAPE   C3510515   2.951   4.495   2.690  0.0397 -0.0466  0.1918
  103SAPE   H5X10516   2.961   4.605   2.682 -0.7461  0.0106 -0.0440
  103SAPE   H5Y10517   3.052   4.453   2.671 -0.6788 -1.5385 -0.4033
  103SAPE   C3610518   2.891   4.456   2.827 -0.1200  0.2138  0.4750
  103SAPE   H6X10519   2.876   4.345   2.824  0.2507  0.1650  0.4560
  103SAPE   H6Y10520   2.789   4.495   2.847 -0.1069  0.1031  0.7548
  103SAPE   C3710521   2.980   4.500   2.945  0.0300 -0.2413 -0.8627
  103SAPE   H7X10522   2.988   4.611   2.951  2.7940 -0.5016  1.3102
  103SAPE   H7Y10523   3.079   4.456   2.919  1.2957  2.4965 -0.8972
  103SAPE   C3810524   2.947   4.452   3.093 -0.9546 -0.4609  0.5062
  103SAPE   H8X10525   2.932   4.342   3.087  1.1075 -0.7274 -0.3090
  103SAPE   H8Y10526   2.849   4.492   3.128 -0.7958 -0.3148  0.7828
  103SAPE   C3910527   3.055   4.495   3.193  0.6497  0.5144  0.6907
  103SAPE   H9X10528   3.099   4.594   3.171 -0.8689  1.1708  0.5541
  103SAPE   H9Y10529   3.130   4.413   3.202  0.1180  0.2185  2.8131
  103SAPE  C31010530   3.013   4.506   3.348  0.3149 -0.0673  0.0092
  103SAPE  H10X10531   2.943   4.422   3.368 -1.1543  1.1923  0.2754
  103SAPE  H10Y10532   2.952   4.600   3.352  2.3286  1.4826 -3.1014
  103SAPE  C31110533   3.132   4.511   3.441  0.0110 -0.0580  0.0531
  103SAPE  H11X10534   3.202   4.581   3.390 -0.7545  1.0497  0.5078
  103SAPE  H11Y10535   3.186   4.414   3.443 -0.6093 -0.4214 -0.6741
  103SAPE  C31210536   3.097   4.544   3.584 -0.4760  0.0754  0.4282
  103SAPE  H12X10537   3.024   4.468   3.621 -0.0074  0.8223  2.9748
  103SAPE  H12Y10538   3.042   4.641   3.588 -0.8349 -0.1202  0.3321
  103SAPE  C31310539   3.226   4.539   3.669 -0.3259 -0.8419  0.0943
  103SAPE  H13X10540   3.299   4.614   3.631 -0.7651 -1.1628 -1.4158
  103SAPE  H13Y10541   3.273   4.440   3.652 -0.6792 -1.3367  1.8941
  103SAPE  C31410542   3.205   4.547   3.823  0.3618  0.1459  0.0891
  103SAPE  H14X10543   3.124   4.478   3.857  0.6550 -0.9487 -1.3759
  103SAPE  H14Y10544   3.174   4.649   3.855 -1.7281  0.0193 -1.3529
  103SAPE  C31510545   3.330   4.515   3.896  0.3194 -0.2957 -0.3043
  103SAPE  H15X10546   3.398   4.603   3.881 -1.8068  1.4316 -0.0486
  103SAPE  H15Y10547   3.383   4.426   3.855  1.4190  0.2441 -0.0828
  103SAPE  C31610548   3.308   4.490   4.046  0.3370  0.5864 -0.0889
  103SAPE  H16X10549   3.241   4.402   4.056 -2.4677  2.7600  0.6687
  103SAPE  H16Y10550   3.248   4.572   4.091 -0.5486 -0.2109  0.2081
  103SAPE  C31710551   3.437   4.471   4.133 -0.2515  0.5976  0.0123
  103SAPE  H17X10552   3.509   4.404   4.082  0.9024  1.6021  0.2788
  103SAPE  H17Y10553   3.401   4.429   4.229 -1.0708  0.7585 -0.2277
  103SAPE  C31810554   3.508   4.607   4.162  0.5407 -0.0603  0.0127
  103SAPE  H18X10555   3.435   4.677   4.206 -2.5399 -3.9734  1.3844
  103SAPE  H18Y10556   3.572   4.648   4.080 -1.9210  0.2152 -1.8237
  103SAPE  H18Z10557   3.585   4.590   4.241  0.0668  2.6563  1.1002
  104SAPE     N10558   1.929   2.575   1.808  0.3757 -1.0778 -0.2199
  104SAPE   HN110559   2.031   2.564   1.826  0.5892  1.2399  0.0947
  104SAPE   HN210560   1.899   2.503   1.739  1.6519 -1.5797 -0.2712
  104SAPE   HN310561   1.926   2.675   1.782 -0.5327 -0.5497  1.8409
  104SAPE   C1210562   1.848   2.545   1.934 -0.5211  0.1252 -0.7241
  104SAPE  H12A10563   1.827   2.437   1.918 -0.3220 -0.3148  1.7523
  104SAPE  H12B10564   1.755   2.605   1.939  0.0837  1.1443 -1.5060
  104SAPE   C1110565   1.928   2.557   2.062  0.3557 -0.0426  0.2194
  104SAPE  H11A10566   1.889   2.511   2.155  1.9469  1.3632  1.6214
  104SAPE  H11B10567   1.944   2.667   2.076  1.4488 -0.4915  2.8541
  104SAPE     P10568   2.105   2.362   2.073 -0.0142  0.0745  0.7943
  104SAPE   O1310569   2.005   2.275   1.999  0.0565 -0.2527 -0.0851
  104SAPE   O1410570   2.249   2.342   2.038  0.2844  0.0896 -0.2346
  104SAPE   O1210571   2.063   2.513   2.045 -0.6286  0.1172 -0.0647
  104SAPE   O1110572   2.083   2.333   2.225  0.2204  0.1400  0.4974
  104SAPE    C110573   2.173   2.400   2.322  0.2958  0.0488  0.2888
  104SAPE    HA10574   2.202   2.323   2.397  0.4587 -0.2856 -0.1136
  104SAPE    HB10575   2.270   2.419   2.272  0.9026 -0.1283  1.3919
  104SAPE    C210576   2.112   2.525   2.373 -0.0174 -0.3707 -0.3915
  104SAPE    HS10577   2.088   2.593   2.289 -0.1511 -0.5246 -0.4771
  104SAPE   O2110578   2.204   2.581   2.459 -0.0965  0.1626 -0.2144
  104SAPE   C2110579   2.288   2.671   2.407  1.0335  0.8754  0.6550
  104SAPE   O2210580   2.296   2.715   2.294 -0.8613 -0.4171  0.2729
  104SAPE   C2210581   2.345   2.739   2.525  0.9492  0.8015 -0.5331
  104SAPE   H2R10582   2.267   2.794   2.581  0.4838 -1.5254  1.1632
  104SAPE   H2S10583   2.374   2.656   2.593  1.5836  0.1085 -1.6444
  104SAPE    C310584   1.979   2.491   2.448  1.1168 -0.1011 -0.5569
  104SAPE    HX10585   1.907   2.449   2.375 -0.5841 -1.4544  1.8519
  104SAPE    HY10586   1.941   2.590   2.479 -2.0564 -1.0288 -1.3439
  104SAPE   O3110587   1.998   2.395   2.556 -0.0536  0.2167 -0.1403
  104SAPE   C3110588   2.040   2.448   2.674  0.0604  0.2030 -0.5361
  104SAPE   O3210589   2.045   2.567   2.699  0.2103  0.3784 -0.3988
  104SAPE   C3210590   2.073   2.333   2.764  0.2595 -0.2684  0.4125
  104SAPE   H2X10591   2.130   2.264   2.698 -1.2571 -0.5751 -0.5805
  104SAPE   H2Y10592   1.979   2.283   2.795  1.4947 -4.1776 -1.8298
  104SAPE   C2310593   2.468   2.842   2.518  1.0124  0.4622 -0.0371
  104SAPE   H3R10594   2.424   2.943   2.506 -2.0239 -1.0987 -3.1509
  104SAPE   H3S10595   2.527   2.810   2.429  1.4853  0.7331  0.1763
  104SAPE   C2410596   2.563   2.841   2.637  0.0270 -0.1880 -0.7779
  104SAPE   H4R10597   2.625   2.750   2.636 -1.3961 -1.1771 -1.2054
  104SAPE   H4S10598   2.502   2.827   2.729 -0.0622 -0.0031 -0.8081
  104SAPE   C2510599   2.646   2.965   2.633 -0.0119 -0.0154 -0.3456
  104SAPE   H5R10600   2.714   2.970   2.547  2.8618 -2.2286  1.6976
  104SAPE   C2610601   2.642   3.063   2.724  0.0281 -0.0046  0.4946
  104SAPE   H6R10602   2.702   3.154   2.707 -0.0573  0.0511  0.4910
  104SAPE   C2710603   2.551   3.074   2.839 -0.3828  0.2351  0.6137
  104SAPE   H7R10604   2.472   2.995   2.838  0.6695 -0.8265  0.2138
  104SAPE   H7S10605   2.508   3.176   2.833 -0.7173  0.0775  0.2773
  104SAPE   C2810606   2.637   3.056   2.961  0.3608  0.4140 -0.2776
  104SAPE   H8R10607   2.746   3.051   2.945  0.7401 -1.3571  2.4543
  104SAPE   C2910608   2.593   3.017   3.082 -0.0246  0.5911 -0.0010
  104SAPE   H9R10609   2.662   2.994   3.165 -1.3662  1.2648  1.3339
  104SAPE  C21010610   2.452   2.990   3.133  0.0328 -0.4708 -0.5515
  104SAPE  H10R10611   2.365   3.012   3.067 -0.1948  0.1583 -0.0515
  104SAPE  H10S10612   2.452   3.062   3.217 -1.4627  0.1078 -1.0290
  104SAPE  C21110613   2.448   2.852   3.194  0.2090  0.2342  0.0805
  104SAPE  H11R10614   2.427   2.774   3.119  1.2450 -0.5340  0.5730
  104SAPE  C21210615   2.458   2.818   3.327  0.4897 -0.3148  0.1611
  104SAPE  H12R10616   2.437   2.715   3.360 -2.2143 -0.2519 -1.2611
  104SAPE  C21310617   2.482   2.905   3.447  0.3295  0.1313  0.9850
  104SAPE  H13R10618   2.449   2.849   3.537 -1.9627 -0.7823 -0.3867
  104SAPE  H13S10619   2.409   2.988   3.445 -1.5064 -1.4992 -0.3171
  104SAPE  C21410620   2.622   2.954   3.465 -0.4134 -0.2559  0.2210
  104SAPE  H14R10621   2.697   2.919   3.392  1.2189  1.2723  1.1410
  104SAPE  C21510622   2.654   3.043   3.560 -0.5300  0.6277 -0.1957
  104SAPE  H15R10623   2.756   3.083   3.565 -1.2401  2.7056 -1.6966
  104SAPE  C21610624   2.563   3.108   3.655  0.0138  0.3011 -0.1478
  104SAPE  H16R10625   2.458   3.113   3.619  0.1312  3.3650 -0.1677
  104SAPE  H16S10626   2.598   3.211   3.675 -0.0357  0.4745 -0.9416
  104SAPE  C21710627   2.547   3.027   3.785  0.7919 -0.4679 -0.4804
  104SAPE  H17R10628   2.645   2.983   3.816  1.0314  0.4636  0.1079
  104SAPE  H17S10629   2.489   2.936   3.760  0.1152  0.3627 -1.9706
  104SAPE  C21810630   2.481   3.102   3.905 -0.2618 -0.1859  0.8420
  104SAPE  H18R10631   2.437   3.026   3.973 -1.9633  0.4612  0.4830
  104SAPE  H18S10632   2.395   3.158   3.862  1.6465  1.4993 -0.9290
  104SAPE  C21910633   2.574   3.209   3.975 -0.2303 -0.3586 -0.0641
  104SAPE  H19R10634   2.520   3.239   4.067 -0.9714  0.4142 -0.7509
  104SAPE  H19S10635   2.580   3.296   3.906  1.0733 -0.4701 -0.1120
  104SAPE  C22010636   2.710   3.159   3.999 -0.2096 -0.0579  0.0696
  104SAPE  H20R10637   2.691   3.056   4.034  0.6356  0.3726  1.9075
  104SAPE  H20S10638   2.750   3.220   4.084 -1.4000  0.5484  0.2001
  104SAPE  H20T10639   2.773   3.167   3.908 -0.4585  1.0317 -0.0244
  104SAPE   C3310640   2.168   2.368   2.885 -0.3228 -0.4791 -0.0020
  104SAPE   H3X10641   2.254   2.429   2.851  0.4622 -1.8456 -0.5064
  104SAPE   H3Y10642   2.224   2.280   2.923 -0.5225 -0.6642 -0.1369
  104SAPE   C3410643   2.101   2.443   3.002  0.3475  0.4309 -0.1271
  104SAPE   H4X10644   2.117   2.387   3.097 -0.3897 -2.5451 -1.6940
  104SAPE   H4Y10645   1.990   2.438   3.008  0.3313 -0.4017 -0.9332
  104SAPE   C3510646   2.153   2.585   3.023 -0.1033 -0.2994 -0.9113
  104SAPE   H5X10647   2.166   2.639   2.927  0.1259  0.8624 -0.2362
  104SAPE   H5Y10648   2.258   2.578   3.056  0.0248  0.4625 -1.1518
  104SAPE   C3610649   2.061   2.667   3.118 -0.3545  0.1186  0.5232
  104SAPE   H6X10650   1.960   2.687   3.074 -0.7765 -0.4005  1.2458
  104SAPE   H6Y10651   2.111   2.766   3.127  2.0583 -1.1485  1.4367
  104SAPE   C3710652   2.060   2.599   3.260  1.2381 -0.1051 -0.1638
  104SAPE   H7X10653   2.160   2.552   3.267  0.7631 -1.1512 -0.2369
  104SAPE   H7Y10654   1.994   2.510   3.261 -0.2077  0.8268 -3.7677
  104SAPE   C3810655   2.044   2.698   3.379  0.2921  0.3231 -0.9466
  104SAPE   H8X10656   1.952   2.760   3.386  0.6783  0.9292 -1.1076
  104SAPE   H8Y10657   2.129   2.770   3.372  0.9976 -0.5305 -1.1489
  104SAPE   C3910658   2.055   2.621   3.512 -0.4119  0.1331 -1.0701
  104SAPE   H9X10659   2.139   2.549   3.511 -1.2545 -0.9549  1.4223
  104SAPE   H9Y10660   1.967   2.554   3.522 -0.3648  0.3233  0.9906
  104SAPE  C31010661   2.061   2.711   3.632 -0.1189  0.2382  0.4726
  104SAPE  H10X10662   1.982   2.790   3.634  0.1471  0.5242 -0.2141
  104SAPE  H10Y10663   2.157   2.763   3.612  0.6092 -1.6966 -1.2107
  104SAPE  C31110664   2.068   2.632   3.761 -0.4078 -0.3562 -0.9232
  104SAPE  H11X10665   2.174   2.625   3.793 -0.2556  0.4056 -1.2490
  104SAPE  H11Y10666   2.047   2.524   3.746  1.2815 -1.2115  2.3516
  104SAPE  C31210667   1.981   2.678   3.876 -0.0133 -0.6470 -0.5407
  104SAPE  H12X10668   2.014   2.632   3.971  0.8162  1.0194 -0.0127
  104SAPE  H12Y10669   1.877   2.661   3.838  0.9238 -1.7033 -2.7147
  104SAPE  C31310670   2.007   2.823   3.917 -0.3939  1.1796  0.1752
  104SAPE  H13X10671   1.990   2.895   3.834  4.2467  0.6545 -1.3872
  104SAPE  H13Y10672   2.117   2.830   3.935 -0.2317  0.6473 -0.5677
  104SAPE  C31410673   1.931   2.866   4.048 -0.0002 -0.3960 -0.2331
  104SAPE  H14X10674   1.962   2.797   4.130  1.0636  0.5762  0.1988
  104SAPE  H14Y10675   1.823   2.847   4.031 -0.1170  0.3484 -0.3158
  104SAPE  C31510676   1.951   3.020   4.094 -0.3791  0.2733 -0.7671
  104SAPE  H15X10677   1.901   3.044   4.191  0.5977 -0.7373 -0.0007
  104SAPE  H15Y10678   1.909   3.095   4.024  1.7729  2.4720  0.2135
  104SAPE  C31610679   2.102   3.062   4.109  0.2224  0.7107 -0.0054
  104SAPE  H16X10680   2.146   3.071   4.008  1.1497 -0.1745  0.3129
  104SAPE  H16Y10681   2.156   2.968   4.135  0.4963  0.2606 -2.1214
  104SAPE  C31710682   2.137   3.185   4.201 -0.4483 -0.2031  0.1625
  104SAPE  H17X10683   2.105   3.158   4.304 -0.8715 -0.5995 -0.0696
  104SAPE  H17Y10684   2.065   3.261   4.164  1.3974  1.8299  0.6765
  104SAPE  C31810685   2.279   3.223   4.198 -0.1404 -0.1165 -0.1004
  104SAPE  H18X10686   2.295   3.322   4.245  0.0435  0.3246 -1.0811
  104SAPE  H18Y10687   2.322   3.227   4.096 -1.0975 -2.3921 -0.6208
  104SAPE  H18Z10688   2.341   3.154   4.259  0.8143  0.8168  0.0089
  105SAPE     N10689   5.573   2.207   2.007 -0.0469  0.3591  0.0240
  105SAPE   HN110690   5.479   2.251   2.011  0.6399  1.8762 -0.1249
  105SAPE   HN210691   5.593   2.144   1.926 -0.8577 -1.7844  1.4428
  105SAPE   HN310692   5.582   2.148   2.092  0.3970  0.0212 -0.2510
  105SAPE   C1210693   5.665   2.324   2.018 -0.3274 -0.0210 -0.0958
  105SAPE  H12A10694   5.766   2.284   2.042 -0.1680  1.0399  1.0920
  105SAPE  H12B10695   5.625   2.378   2.107 -1.2521 -2.0477  0.7439
  105SAPE   C1110696   5.651   2.409   1.891  0.0137  0.1865 -0.8355
  105SAPE  H11A10697   5.717   2.361   1.815  0.1852 -1.1143  0.1283
  105SAPE  H11B10698   5.672   2.516   1.915 -0.5428  0.3473 -1.0665
  105SAPE     P10699   5.412   2.519   1.841 -0.3212  0.7004 -0.0164
  105SAPE   O1310700   5.470   2.639   1.773  0.5756 -0.3633  0.2818
  105SAPE   O1410701   5.291   2.460   1.788 -0.0979 -0.5438 -0.1520
  105SAPE   O1210702   5.514   2.401   1.840  0.4753  0.3349  0.0991
  105SAPE   O1110703   5.406   2.549   1.995  0.5261 -0.5283  0.3605
  105SAPE    C110704   5.292   2.559   2.081  0.1825  0.5660  0.0323
  105SAPE    HA10705   5.217   2.481   2.056  0.3808 -0.0382  1.3110
  105SAPE    HB10706   5.317   2.546   2.188  1.2399  3.8081  0.2346
  105SAPE    C210707   5.225   2.699   2.075  0.1757  0.4493  0.1707
  105SAPE    HS10708   5.215   2.714   1.965  3.1915  2.7746  0.1298
  105SAPE   O2110709   5.326   2.790   2.130  0.3714 -0.8664  0.3543
  105SAPE   C2110710   5.283   2.910   2.152 -0.0249 -0.2738  0.3960
  105SAPE   O2210711   5.186   2.964   2.107  0.4438 -0.1442  0.0594
  105SAPE   C2210712   5.384   2.995   2.229 -0.9552  0.1016  0.5326
  105SAPE   H2R10713   5.461   2.931   2.277  0.8572  0.3884 -1.9024
  105SAPE   H2S10714   5.426   3.061   2.151  1.5762  0.4466  2.1339
  105SAPE    C310715   5.091   2.689   2.160  0.3767  0.4789  0.8505
  105SAPE    HX10716   5.041   2.600   2.116  0.7606 -0.8145  2.9344
  105SAPE    HY10717   5.033   2.784   2.157  1.3644  1.0530 -0.2415
  105SAPE   O3110718   5.124   2.666   2.300 -0.8492  0.2003  0.0567
  105SAPE   C3110719   5.024   2.653   2.383  0.3949 -0.4978 -0.8499
  105SAPE   O3210720   4.906   2.668   2.344  0.1248  0.2968  0.0677
  105SAPE   C3210721   5.059   2.601   2.521  0.3175 -0.0198  0.2166
  105SAPE   H2X10722   5.146   2.661   2.558  0.6655 -1.3690  1.6439
  105SAPE   H2Y10723   5.102   2.502   2.495  0.3327 -0.3055  1.3316
  105SAPE   C2310724   5.324   3.096   2.335 -0.1803  0.0096 -0.5374
  105SAPE   H3R10725   5.240   3.153   2.290 -0.9759  0.4497  1.4746
  105SAPE   H3S10726   5.413   3.152   2.373  0.9423 -0.5900 -2.2095
  105SAPE   C2410727   5.264   3.024   2.458 -0.1303 -0.2440  0.3332
  105SAPE   H4R10728   5.184   2.961   2.415 -0.0493  0.2281 -0.5427
  105SAPE   H4S10729   5.208   3.100   2.517  0.8721  2.0060 -1.5001
  105SAPE   C2510730   5.364   2.944   2.537 -0.5919  0.1028  1.1158
  105SAPE   H5R10731   5.416   2.859   2.490 -0.2916  1.3174 -0.8157
  105SAPE   C2610732   5.399   2.968   2.667 -0.2463 -0.0467  0.1460
  105SAPE   H6R10733   5.482   2.908   2.705  0.6176  0.4614 -0.9075
  105SAPE   C2710734   5.358   3.081   2.755 -0.1164  0.1908 -0.2110
  105SAPE   H7R10735   5.359   3.175   2.696  1.4194  0.4086  0.1383
  105SAPE   H7S10736   5.429   3.094   2.840  1.1803  2.7186 -1.6273
  105SAPE   C2810737   5.215   3.080   2.813 -0.1788  0.8322  0.4288
  105SAPE   H8R10738   5.131   3.121   2.755 -0.8522  2.7810  2.7133
  105SAPE   C2910739   5.201   3.023   2.934  0.3633 -0.4510  0.0625
  105SAPE   H9R10740   5.103   3.020   2.983  0.6975  0.6996  0.8295
  105SAPE  C21010741   5.305   2.949   3.019  0.7207  0.6957  0.5649
  105SAPE  H10R10742   5.398   2.921   2.965  1.2435 -1.9734  2.7674
  105SAPE  H10S10743   5.266   2.859   3.071  0.1338  2.0234  2.4775
  105SAPE  C21110744   5.352   3.052   3.121  0.2086  0.2457 -0.1814
  105SAPE  H11R10745   5.403   3.142   3.083  1.0505  0.5264  1.5705
  105SAPE  C21210746   5.325   3.051   3.256  0.0137 -0.3792 -0.2796
  105SAPE  H12R10747   5.355   3.130   3.326 -0.6385 -1.2181  0.9531
  105SAPE  C21310748   5.241   2.951   3.331 -0.0372 -0.3571 -0.4924
  105SAPE  H13R10749   5.283   2.936   3.433 -0.5768 -0.5501 -0.2995
  105SAPE  H13S10750   5.268   2.852   3.287  1.2084 -0.8565  1.2906
  105SAPE  C21410751   5.094   2.984   3.335 -0.5001  0.5510 -0.0159
  105SAPE  H14R10752   5.065   3.049   3.251  0.3452  0.7575 -0.1559
  105SAPE  C21510753   5.007   2.946   3.440  0.0308 -0.0073  0.3329
  105SAPE  H15R10754   4.899   2.959   3.421  0.4538 -0.4528 -2.6001
  105SAPE  C21610755   5.015   2.861   3.564  0.0943 -0.4126  0.1057
  105SAPE  H16R10756   5.117   2.840   3.603  0.5986  2.6765  0.5789
  105SAPE  H16S10757   4.981   2.758   3.539 -0.2238 -0.8159  2.1635
  105SAPE  C21710758   4.926   2.911   3.677 -0.2590 -0.0352 -0.1529
  105SAPE  H17R10759   4.819   2.933   3.654  0.0053  2.2408  0.7010
  105SAPE  H17S10760   4.963   3.012   3.701  0.3194 -0.0987 -0.7561
  105SAPE  C21810761   4.941   2.819   3.802  0.3796  0.4482 -0.1787
  105SAPE  H18R10762   5.042   2.835   3.845 -0.4113 -0.6454  2.1553
  105SAPE  H18S10763   4.914   2.716   3.770 -1.2910  1.2785 -1.5366
  105SAPE  C21910764   4.842   2.855   3.921  0.2668 -0.1556 -0.3155
  105SAPE  H19R10765   4.866   2.790   4.008  0.3464 -0.0277 -0.2395
  105SAPE  H19S10766   4.736   2.841   3.895  0.0676 -2.2593  1.5072
  105SAPE  C22010767   4.858   3.003   3.970  0.4029  0.5922 -0.0052
  105SAPE  H20R10768   4.964   3.031   3.994  0.5009  0.5866 -0.4296
  105SAPE  H20S10769   4.798   3.031   4.059  1.9396  1.4860  0.7779
  105SAPE  H20T10770   4.833   3.059   3.877  0.7498  0.6763 -0.0521
  105SAPE   C3310771   4.933   2.596   2.617  0.2687  0.0883 -0.0801
  105SAPE   H3X10772   4.866   2.516   2.578 -1.0168  0.8190  0.6201
  105SAPE   H3Y10773   4.870   2.686   2.603 -1.6551 -1.2576 -0.3550
  105SAPE   C3410774   4.962   2.571   2.764  0.4702  0.4765 -0.6313
  105SAPE   H4X10775   5.033   2.486   2.770 -0.3322 -0.2711 -1.5405
  105SAPE   H4Y10776   4.871   2.539   2.818  2.1250 -3.6352 -0.0914
  105SAPE   C3510777   5.018   2.693   2.835 -0.4158  0.2335 -0.0371
  105SAPE   H5X10778   4.987   2.786   2.783 -1.2737 -1.3787 -2.5231
  105SAPE   H5Y10779   5.129   2.702   2.837 -0.5069  1.7855 -1.0206
  105SAPE   C3610780   4.954   2.711   2.974 -0.8973  1.3854 -0.4452
  105SAPE   H6X10781   4.845   2.725   2.957 -1.5227 -1.0163  1.3760
  105SAPE   H6Y10782   4.986   2.809   3.016 -0.6403  0.5300  1.3834
  105SAPE   C3710783   4.993   2.593   3.072  0.2558  0.2756  0.3223
  105SAPE   H7X10784   5.100   2.613   3.098  1.2000  1.7413 -4.1755
  105SAPE   H7Y10785   4.998   2.495   3.020  2.3708  1.3741 -1.6666
  105SAPE   C3810786   4.911   2.583   3.198  0.5652 -0.7142  0.2098
  105SAPE   H8X10787   4.825   2.522   3.163 -0.6294  0.8633  0.3699
  105SAPE   H8Y10788   4.872   2.681   3.231 -2.1295 -2.0849  1.2533
  105SAPE   C3910789   4.981   2.519   3.319  0.3173 -0.1317 -0.1074
  105SAPE   H9X10790   5.048   2.593   3.367 -0.3051 -0.2473  0.9664
  105SAPE   H9Y10791   5.031   2.424   3.291 -0.9517 -0.0859 -2.6912
  105SAPE  C31010792   4.874   2.477   3.420 -0.1563  0.1898  0.4863
  105SAPE  H10X10793   4.815   2.392   3.380  1.4375  0.2386 -2.0456
  105SAPE  H10Y10794   4.809   2.566   3.433 -1.1099 -0.6363  1.5222
  105SAPE  C31110795   4.940   2.442   3.555  0.1556 -0.2346 -0.4905
  105SAPE  H11X10796   4.979   2.537   3.597 -2.3361  0.6794 -0.1594
  105SAPE  H11Y10797   5.023   2.371   3.531  1.8328  0.2505  3.4126
  105SAPE  C31210798   4.845   2.384   3.662  0.6905 -0.9280  0.2549
  105SAPE  H12X10799   4.801   2.300   3.604 -3.1523  2.6612 -2.2832
  105SAPE  H12Y10800   4.771   2.464   3.681  0.7356 -0.6805 -0.6116
  105SAPE  C31310801   4.908   2.336   3.794 -0.5147 -1.0984 -0.4663
  105SAPE  H13X10802   4.976   2.414   3.835 -0.9511 -1.9740  2.0042
  105SAPE  H13Y10803   4.969   2.245   3.777  0.7386 -0.8886  2.6082
  105SAPE  C31410804   4.816   2.299   3.907  0.6100  0.0790  0.4568
  105SAPE  H14X10805   4.892   2.289   3.988 -0.6428 -0.6653  1.5593
  105SAPE  H14Y10806   4.775   2.196   3.897 -0.7289  0.8246 -2.0453
  105SAPE  C31510807   4.709   2.404   3.933  0.6065 -0.2918 -0.4344
  105SAPE  H15X10808   4.646   2.413   3.842 -0.3603  1.9904  0.4302
  105SAPE  H15Y10809   4.762   2.502   3.932  0.9649 -0.4856 -0.7097
  105SAPE  C31610810   4.623   2.391   4.055  0.3743 -0.4287 -0.1260
  105SAPE  H16X10811   4.546   2.471   4.063  0.7993  0.0673 -0.9542
  105SAPE  H16Y10812   4.695   2.392   4.140 -0.0948 -2.8176  0.3330
  105SAPE  C31710813   4.550   2.252   4.057  0.0817  0.4243  0.1485
  105SAPE  H17X10814   4.609   2.158   4.067 -2.4462 -1.1290  0.9219
  105SAPE  H17Y10815   4.504   2.242   3.956  2.0348 -5.2359 -0.3820
  105SAPE  C31810816   4.431   2.257   4.161 -0.4320 -0.2943  0.0929
  105SAPE  H18X10817   4.355   2.334   4.136  1.7598  1.6904 -0.7036
  105SAPE  H18Y10818   4.455   2.280   4.267 -0.4386  0.4175 -0.0519
  105SAPE  H18Z10819   4.391   2.154   4.161  0.4444 -0.6373  0.2346
  106SAPE     N10820   6.081   4.260   1.797 -0.0678 -0.0307  0.1745
  106SAPE   HN110821   6.064   4.291   1.699 -4.8682  0.3082  0.9881
  106SAPE   HN210822   6.037   4.166   1.804  1.7591 -0.8486  0.8319
  106SAPE   HN310823   6.040   4.334   1.858  3.5356  2.7008 -0.5864
  106SAPE   C1210824   6.230   4.262   1.820 -0.1030  0.3139 -0.3765
  106SAPE  H12A10825   6.265   4.366   1.807 -1.1161  0.3993 -2.6216
  106SAPE  H12B10826   6.272   4.198   1.740 -0.5132 -0.5917  0.1190
  106SAPE   C1110827   6.254   4.210   1.963 -0.1582 -0.6216 -0.0283
  106SAPE  H11A10828   6.196   4.268   2.038  0.1746  0.4245 -0.5724
  106SAPE  H11B10829   6.362   4.232   1.978 -0.5639 -0.4691  2.8682
  106SAPE     P10830   6.299   3.988   2.084 -0.5583 -0.0027  0.3427
  106SAPE   O1310831   6.225   3.869   2.118 -0.1594 -0.2570  0.1080
  106SAPE   O1410832   6.439   3.964   2.044  0.6807  0.5236  0.0874
  106SAPE   O1210833   6.228   4.076   1.968 -0.5987  0.4029  0.3852
  106SAPE   O1110834   6.291   4.081   2.207 -0.6194  0.0375  0.2068
  106SAPE    C110835   6.170   4.128   2.261  0.1774 -0.3501 -0.6231
  106SAPE    HA10836   6.096   4.148   2.180 -1.2448  0.8856  0.9383
  106SAPE    HB10837   6.146   4.052   2.338  0.8569  2.9824  3.0034
  106SAPE    C210838   6.178   4.266   2.338  0.3530  0.1899 -0.4929
  106SAPE    HS10839   6.166   4.345   2.261 -0.8894  0.5364  0.0409
  106SAPE   O2110840   6.291   4.282   2.414 -0.0827  0.0393 -0.2704
  106SAPE   C2110841   6.404   4.318   2.348  0.7499  0.3279  0.0712
  106SAPE   O2210842   6.418   4.352   2.235 -0.7459 -0.2668 -0.2587
  106SAPE   C2210843   6.522   4.307   2.439 -0.3723  0.2704 -0.9098
  106SAPE   H2R10844   6.507   4.236   2.524  0.6082  2.5097  1.2019
  106SAPE   H2S10845   6.602   4.261   2.378  1.7481 -0.3725  2.2023
  106SAPE    C310846   6.053   4.287   2.430 -0.3304 -0.0535 -0.1137
  106SAPE    HX10847   5.962   4.268   2.368 -1.7650  1.7068  1.3651
  106SAPE    HY10848   6.053   4.397   2.450 -0.2192 -0.2264  0.8519
  106SAPE   O3110849   6.055   4.215   2.552  0.3876  0.0236  0.4867
  106SAPE   C3110850   5.962   4.120   2.559  0.4836 -0.2607 -0.7644
  106SAPE   O3210851   5.908   4.060   2.465  0.0853  0.0586  0.6895
  106SAPE   C3210852   5.939   4.092   2.709  0.1432 -0.0507 -0.6311
  106SAPE   H2X10853   5.899   4.188   2.749  1.9194 -0.2547  1.7392
  106SAPE   H2Y10854   6.040   4.087   2.756 -0.0693 -0.5450 -0.2330
  106SAPE   C2310855   6.567   4.444   2.485  0.5282  0.1906  0.8772
  106SAPE   H3R10856   6.474   4.495   2.516 -1.0544 -1.0289 -1.6836
  106SAPE   H3S10857   6.610   4.502   2.401 -1.3976 -0.8846 -0.9163
  106SAPE   C2410858   6.667   4.448   2.605 -0.7322  0.0486 -0.0040
  106SAPE   H4R10859   6.699   4.552   2.629 -0.8871 -0.3994  2.2006
  106SAPE   H4S10860   6.755   4.386   2.579 -1.3463  0.4010 -3.1697
  106SAPE   C2510861   6.617   4.371   2.722 -0.1346  0.2957 -0.5530
  106SAPE   H5R10862   6.682   4.284   2.743  0.5241  0.7399 -0.7465
  106SAPE   C2610863   6.517   4.394   2.801 -0.0346 -0.1161  0.5636
  106SAPE   H6R10864   6.489   4.321   2.878 -3.0632 -0.6600 -0.9598
  106SAPE   C2710865   6.407   4.497   2.783  0.3353  0.4376  0.1075
  106SAPE   H7R10866   6.436   4.571   2.705  2.3165 -0.3823  0.0583
  106SAPE   H7S10867   6.393   4.556   2.876  1.9948  2.2205 -0.7296
  106SAPE   C2810868   6.272   4.436   2.748  0.1264  0.2853 -0.2879
  106SAPE   H8R10869   6.255   4.405   2.644  0.3349 -1.5975  0.2302
  106SAPE   C2910870   6.173   4.405   2.839 -0.3141  0.3740  0.1302
  106SAPE   H9R10871   6.080   4.376   2.790 -0.8466  0.4243  1.1048
  106SAPE  C21010872   6.175   4.409   2.992 -1.0105  0.3727 -0.0933
  106SAPE  H10R10873   6.129   4.500   3.036  0.1416  1.7740 -1.6990
  106SAPE  H10S10874   6.276   4.410   3.037 -1.7203 -1.0107  1.5778
  106SAPE  C21110875   6.102   4.297   3.062  0.0561 -0.5180 -0.1829
  106SAPE  H11R10876   6.092   4.210   2.996 -0.8233 -0.7794  0.2843
  106SAPE  C21210877   6.075   4.282   3.197  0.3148  0.7657  0.0638
  106SAPE  H12R10878   6.010   4.195   3.212  1.8296 -0.3389  0.3164
  106SAPE  C21310879   6.121   4.375   3.301  0.2655 -0.1687  0.2224
  106SAPE  H13R10880   6.154   4.472   3.258 -0.7485  0.4109  0.7404
  106SAPE  H13S10881   6.206   4.334   3.360 -0.4056  2.0226  2.8078
  106SAPE  C21410882   6.008   4.393   3.403 -0.0335 -0.4712 -0.1374
  106SAPE  H14R10883   5.942   4.475   3.371  1.6371  1.0380  0.2387
  106SAPE  C21510884   5.988   4.319   3.515  0.5090  0.6110  0.3021
  106SAPE  H15R10885   5.901   4.331   3.582 -0.3842  0.5975 -0.8340
  106SAPE  C21610886   6.082   4.205   3.559  0.2007 -1.2577  0.6462
  106SAPE  H16R10887   6.169   4.178   3.495 -0.2618 -0.4388 -0.3614
  106SAPE  H16S10888   6.015   4.117   3.560 -1.9631  0.2835 -2.0982
  106SAPE  C21710889   6.139   4.227   3.695  0.2964 -0.5437 -0.1704
  106SAPE  H17R10890   6.066   4.263   3.770  1.8143 -1.5311  1.8266
  106SAPE  H17S10891   6.221   4.302   3.692  0.6931 -0.9787 -0.4631
  106SAPE  C21810892   6.205   4.100   3.757  0.6009 -0.2255 -0.0444
  106SAPE  H18R10893   6.117   4.037   3.785  0.2602 -0.3587 -1.3717
  106SAPE  H18S10894   6.242   4.138   3.854 -0.2913 -2.2939  1.1429
  106SAPE  C21910895   6.323   4.029   3.677 -0.1936  0.0275 -0.2047
  106SAPE  H19R10896   6.397   4.109   3.655  1.0850 -1.3273 -0.9310
  106SAPE  H19S10897   6.279   4.004   3.578  3.3361 -1.4507 -1.4884
  106SAPE  C22010898   6.388   3.914   3.753 -0.2322  0.2358 -0.3079
  106SAPE  H20R10899   6.471   3.871   3.693  0.0246  0.5191 -0.1593
  106SAPE  H20S10900   6.319   3.828   3.767 -0.0830  0.2522  0.5747
  106SAPE  H20T10901   6.421   3.957   3.850  0.2598  1.0073 -0.8080
  106SAPE   C3310902   5.842   3.975   2.745  1.4873  0.5995  0.7548
  106SAPE   H3X10903   5.881   3.886   2.691  0.7806  0.5367  0.3354
  106SAPE   H3Y10904   5.745   3.999   2.695  0.0422 -0.8621  2.7852
  106SAPE   C3410905   5.826   3.927   2.888 -0.2659  0.0634  0.4061
  106SAPE   H4X10906   5.798   3.820   2.893 -0.4942  0.1666  1.3651
  106SAPE   H4Y10907   5.743   3.981   2.938  0.0742  3.0487 -2.0511
  106SAPE   C3510908   5.960   3.932   2.979 -0.6918  0.3370  0.1003
  106SAPE   H5X10909   5.974   4.030   3.029 -0.5641  0.1773  0.3753
  106SAPE   H5Y10910   6.045   3.922   2.908 -0.9159  1.9815 -0.4221
  106SAPE   C3610911   5.972   3.812   3.069  0.0338  0.5432  0.1999
  106SAPE   H6X10912   6.065   3.821   3.129 -0.3670 -0.6383  1.0259
  106SAPE   H6Y10913   5.975   3.717   3.012  1.3514 -1.1632  2.9750
  106SAPE   C3710914   5.848   3.789   3.155  0.1487  0.1022  0.4533
  106SAPE   H7X10915   5.867   3.695   3.210  0.7468 -0.5611 -0.8499
  106SAPE   H7Y10916   5.756   3.780   3.094  0.0583 -0.3228  0.6541
  106SAPE   C3810917   5.826   3.905   3.254  0.2634 -0.2038 -0.1881
  106SAPE   H8X10918   5.826   4.004   3.204 -2.1298  0.0627  0.2637
  106SAPE   H8Y10919   5.916   3.916   3.318  1.5272  2.7436 -2.3374
  106SAPE   C3910920   5.699   3.890   3.346  0.3252 -0.2256  0.6170
  106SAPE   H9X10921   5.717   3.790   3.391 -1.5885 -1.8937 -2.1337
  106SAPE   H9Y10922   5.608   3.877   3.283  0.7686  0.1562 -0.1152
  106SAPE  C31010923   5.681   4.005   3.445 -0.3338 -0.1496  0.1336
  106SAPE  H10X10924   5.672   4.109   3.409  0.6682  0.1924  0.8459
  106SAPE  H10Y10925   5.768   3.987   3.512  0.4075  1.5068 -0.3673
  106SAPE  C31110926   5.543   3.980   3.513  0.1165  0.2427  0.6733
  106SAPE  H11X10927   5.553   4.035   3.609  1.3410  0.9995  0.1341
  106SAPE  H11Y10928   5.538   3.877   3.553 -0.2129  0.5605  1.4733
  106SAPE  C31210929   5.422   4.014   3.438 -0.7875 -0.2685 -0.3426
  106SAPE  H12X10930   5.418   3.958   3.341 -0.5867  2.2916 -1.8744
  106SAPE  H12Y10931   5.441   4.121   3.417  1.1643 -0.3059  1.1907
  106SAPE  C31310932   5.289   4.013   3.517 -0.5117  0.4430  0.4284
  106SAPE  H13X10933   5.281   3.913   3.565 -1.1165  1.3006  2.1605
  106SAPE  H13Y10934   5.200   4.043   3.459 -0.2789  0.3304  0.0052
  106SAPE  C31410935   5.277   4.111   3.638 -0.2722  0.6112 -0.5947
  106SAPE  H14X10936   5.259   4.213   3.598  1.7131  1.5946  0.9061
  106SAPE  H14Y10937   5.365   4.118   3.705 -0.0598 -0.5803 -0.7353
  106SAPE  C31510938   5.160   4.072   3.738 -0.1847  0.2775 -0.1171
  106SAPE  H15X10939   5.176   4.129   3.832  0.2723  1.0981 -0.6849
  106SAPE  H15Y10940   5.176   3.966   3.766 -0.3033  0.2332 -0.2142
  106SAPE  C31610941   5.023   4.091   3.678 -0.3272  0.2468 -0.0999
  106SAPE  H16X10942   5.011   4.002   3.611 -1.0113  0.0700  0.2472
  106SAPE  H16Y10943   5.032   4.186   3.622  0.5118 -0.2967 -0.9111
  106SAPE  C31710944   4.910   4.117   3.779  0.3078  0.4601  0.4842
  106SAPE  H17X10945   4.945   4.199   3.846  1.8964 -0.7830  1.2262
  106SAPE  H17Y10946   4.899   4.027   3.842 -1.2965  0.9167  0.8582
  106SAPE  C31810947   4.786   4.154   3.692  0.7154 -0.1554  0.2757
  106SAPE  H18X10948   4.813   4.222   3.607  3.6481 -1.0721  0.4073
  106SAPE  H18Y10949   4.721   4.209   3.763  1.3174  1.4872 -0.4061
  106SAPE  H18Z10950   4.743   4.061   3.649 -1.5657 -0.5714  3.3630
  107SAPE     N10951   0.898   3.148   1.801  0.2805  0.0729 -0.7215
  107SAPE   HN110952   0.925   3.174   1.704  0.8581 -1.2266 -0.9267
  107SAPE   HN210953   0.977   3.099   1.848  1.3622 -0.3730 -2.9252
  107SAPE   HN310954   0.832   3.068   1.806  0.3222  0.1314  0.9180
  107SAPE   C1210955   0.873   3.256   1.901  0.0927  0.1457  0.5258
  107SAPE  H12A10956   0.792   3.321   1.863  0.7625  1.5030  1.4109
  107SAPE  H12B10957   0.972   3.303   1.918  1.0585 -1.6663  0.1335
  107SAPE   C1110958   0.835   3.186   2.032  0.8754 -0.1199  0.2978
  107SAPE  H11A10959   0.808   3.272   2.097  0.7261  0.8989 -1.0831
  107SAPE  H11B10960   0.923   3.133   2.075  0.0541 -2.0005 -0.2706
  107SAPE     P10961   0.584   3.120   2.102 -0.2291 -0.1105  0.3058
  107SAPE   O1310962   0.509   3.223   2.028  0.0677 -0.1157 -0.2487
  107SAPE   O1410963   0.523   2.986   2.119 -0.4951 -0.1549 -0.5120
  107SAPE   O1210964   0.712   3.109   2.014  0.9119  0.1364  0.0192
  107SAPE   O1110965   0.637   3.180   2.237  0.2927 -0.8216  0.1017
  107SAPE    C110966   0.540   3.200   2.347  0.2382 -0.6241 -0.3371
  107SAPE    HA10967   0.572   3.291   2.403  0.9070 -0.4370 -1.0185
  107SAPE    HB10968   0.439   3.233   2.317 -0.3401  0.7747  2.8827
  107SAPE    C210969   0.550   3.083   2.444  0.8811 -0.6742  0.1540
  107SAPE    HS10970   0.554   2.988   2.386  4.3720  0.3056 -1.3289
  107SAPE   O2110971   0.443   3.084   2.543  0.2861 -0.1894  0.1335
  107SAPE   C2110972   0.317   3.066   2.494 -0.3778  0.3769  0.0898
  107SAPE   O2210973   0.289   3.068   2.379 -0.1021  0.6195 -0.0798
  107SAPE   C2210974   0.214   3.035   2.607 -0.0576  0.4352 -0.7152
  107SAPE   H2R10975   0.185   2.931   2.580  0.0086  0.8716 -2.5734
  107SAPE   H2S10976   0.265   3.036   2.706  0.5364 -0.5092 -0.9964
  107SAPE    C310977   0.690   3.087   2.513 -0.2025 -0.6336 -0.2892
  107SAPE    HX10978   0.729   3.190   2.496 -0.6424 -0.4168 -0.0033
  107SAPE    HY10979   0.759   3.019   2.459  0.4943 -2.6411  3.0254
  107SAPE   O3110980   0.691   3.057   2.654 -0.5709 -0.6030 -0.2207
  107SAPE   C3110981   0.679   2.929   2.691 -0.5264 -0.4633 -0.0581
  107SAPE   O3210982   0.681   2.835   2.614  0.3483  0.5279  0.4403
  107SAPE   C3210983   0.650   2.923   2.838 -0.5452  0.3017 -0.0338
  107SAPE   H2X10984   0.596   2.828   2.857  1.4072 -0.6868  0.7144
  107SAPE   H2Y10985   0.592   3.008   2.880 -0.3764  0.5926 -0.3857
  107SAPE   C2310986   0.087   3.130   2.601  0.3384  0.3431 -0.0438
  107SAPE   H3R10987   0.040   3.103   2.504  0.1855  0.0724  0.1043
  107SAPE   H3S10988   0.109   3.238   2.594  1.2993  0.2257  1.0469
  107SAPE   C2410989  -0.010   3.106   2.719  0.0535  0.2084 -0.0586
  107SAPE   H4R10990  -0.089   3.185   2.721  1.8638  2.0424  0.7526
  107SAPE   H4S10991   0.048   3.111   2.814  2.2138  2.0830 -1.4345
  107SAPE   C2510992  -0.082   2.978   2.711 -0.5709  0.1761  0.2020
  107SAPE   H5R10993  -0.170   2.987   2.645  1.0037 -0.6039 -2.0594
  107SAPE   C2610994  -0.059   2.861   2.761 -0.3284  0.2412  0.2396
  107SAPE   H6R10995  -0.141   2.789   2.752 -0.0344  0.0473 -0.8771
  107SAPE   C2710996   0.060   2.826   2.849  0.2363  0.4433  0.0394
  107SAPE   H7R10997   0.153   2.873   2.810  1.6140 -2.2832 -0.0513
  107SAPE   H7S10998   0.083   2.718   2.837  0.6120  0.5057  0.1942
  107SAPE   C2810999   0.022   2.879   2.986 -0.0528 -0.1044  0.0712
  107SAPE   H8R11000  -0.070   2.842   3.033  0.3536 -0.6763  0.4298
  107SAPE   C2911001   0.111   2.956   3.056  0.2609  0.0702  0.7670
  107SAPE   H9R11002   0.079   3.005   3.149 -1.1887  0.5632  0.0299
  107SAPE  C21011003   0.245   3.005   3.007 -0.4969  0.0885  0.1196
  107SAPE  H10R11004   0.226   3.096   2.946  0.2702 -1.0150 -1.7653
  107SAPE  H10S11005   0.293   2.934   2.937  0.6535  0.6512  0.3232
  107SAPE  C21111006   0.340   3.034   3.120 -0.1289 -0.1249 -0.6211
  107SAPE  H11R11007   0.366   3.140   3.135 -2.5134  0.3748  0.3362
  107SAPE  C21211008   0.390   2.942   3.208  0.3397 -0.7340  0.3408
  107SAPE  H12R11009   0.430   2.997   3.295 -1.1640  1.1837 -0.1476
  107SAPE  C21311010   0.355   2.796   3.226 -0.2722  0.9617  0.8147
  107SAPE  H13R11011   0.330   2.753   3.126  0.8227  0.1390  0.8878
  107SAPE  H13S11012   0.258   2.797   3.280 -0.6528  1.0695  0.1419
  107SAPE  C21411013   0.469   2.719   3.286 -0.3037  0.2690  0.2232
  107SAPE  H14R11014   0.558   2.719   3.222  1.0557 -0.5174  2.0670
  107SAPE  C21511015   0.463   2.643   3.396  0.4200  0.3779  0.1662
  107SAPE  H15R11016   0.552   2.591   3.435 -0.3200 -0.6370  0.5343
  107SAPE  C21611017   0.342   2.622   3.487 -0.0000  0.2989  0.1290
  107SAPE  H16R11018   0.259   2.687   3.452  0.7253 -0.5514 -3.3744
  107SAPE  H16S11019   0.367   2.647   3.593 -2.0229 -0.3925  0.8001
  107SAPE  C21711020   0.293   2.474   3.478  0.4413 -0.2346 -0.2211
  107SAPE  H17R11021   0.366   2.399   3.515 -0.6929 -0.4665  1.5984
  107SAPE  H17S11022   0.263   2.447   3.374  0.4990 -2.2360  0.2738
  107SAPE  C21811023   0.179   2.444   3.569 -0.5115 -0.4807 -0.1143
  107SAPE  H18R11024   0.132   2.346   3.548 -0.2699 -0.5395 -0.3765
  107SAPE  H18S11025   0.095   2.517   3.562 -1.4175 -1.6459 -1.9002
  107SAPE  C21911026   0.222   2.428   3.714  0.2632  0.4717  0.4407
  107SAPE  H19R11027   0.264   2.529   3.736  0.1785  1.3807 -3.2746
  107SAPE  H19S11028   0.299   2.348   3.725  1.4522  1.6185  0.6820
  107SAPE  C22011029   0.105   2.399   3.803 -0.1229 -0.6937  0.6502
  107SAPE  H20R11030   0.061   2.303   3.768 -0.5729 -0.4470  0.5424
  107SAPE  H20S11031   0.029   2.479   3.791 -0.2338 -0.8556  0.2501
  107SAPE  H20T11032   0.129   2.384   3.911 -0.0829  2.9026  1.2019
  107SAPE   C3311033   0.781   2.920   2.928  0.3782 -0.3166 -0.3937
  107SAPE   H3X11034   0.819   3.025   2.921  0.2324  0.1875  4.3619
  107SAPE   H3Y11035   0.855   2.854   2.877 -0.0900 -1.1648  0.0207
  107SAPE   C3411036   0.747   2.895   3.080 -0.3192 -0.0224  0.7274
  107SAPE   H4X11037   0.752   2.790   3.115 -2.6322 -0.3938 -0.0220
  107SAPE   H4Y11038   0.648   2.939   3.103 -1.2769 -1.8741  0.2549
  107SAPE   C3511039   0.852   2.968   3.163 -0.4531  0.9154 -0.2042
  107SAPE   H5X11040   0.864   3.069   3.119 -0.2785  0.7610 -0.5111
  107SAPE   H5Y11041   0.952   2.924   3.145 -1.2273 -1.8656  1.9313
  107SAPE   C3611042   0.814   2.985   3.309  0.5198 -0.0065  0.1643
  107SAPE   H6X11043   0.819   2.882   3.349  2.5213  0.2342  0.5740
  107SAPE   H6Y11044   0.709   3.023   3.312  0.9688  1.3080 -0.6512
  107SAPE   C3711045   0.912   3.086   3.389  0.0802 -0.0115 -0.2523
  107SAPE   H7X11046   0.881   3.087   3.495  1.5151 -1.0181  0.1889
  107SAPE   H7Y11047   0.914   3.192   3.355 -0.7904 -0.1852 -0.8499
  107SAPE   C3811048   1.056   3.042   3.383 -0.2081  0.2681  0.0668
  107SAPE   H8X11049   1.111   3.073   3.291 -0.0118  0.7637  0.3505
  107SAPE   H8Y11050   1.052   2.931   3.389  1.7771  0.2569  1.4481
  107SAPE   C3911051   1.139   3.094   3.501 -0.3095 -0.2092 -0.6614
  107SAPE   H9X11052   1.228   3.028   3.511 -0.8826 -1.1856 -1.8721
  107SAPE   H9Y11053   1.091   3.082   3.601 -1.6608 -1.1449 -1.4078
  107SAPE  C31011054   1.191   3.238   3.479  0.0603  0.3501 -0.4289
  107SAPE  H10X11055   1.218   3.253   3.372  0.4376  1.0511 -0.2354
  107SAPE  H10Y11056   1.291   3.236   3.527 -1.0607 -0.1230  1.9369
  107SAPE  C31111057   1.105   3.365   3.515  0.2002  0.4389 -0.3167
  107SAPE  H11X11058   1.056   3.345   3.612  1.4330  0.4451  0.3176
  107SAPE  H11Y11059   1.013   3.391   3.457  1.1342  1.9169 -1.1984
  107SAPE  C31211060   1.191   3.498   3.519 -0.3182 -0.0554 -0.0215
  107SAPE  H12X11061   1.120   3.563   3.463  1.6383  1.3567 -0.9283
  107SAPE  H12Y11062   1.274   3.487   3.446 -1.3337 -2.3862 -0.8733
  107SAPE  C31311063   1.220   3.574   3.652 -0.1718  0.1495  0.0221
  107SAPE  H13X11064   1.143   3.649   3.675 -0.5007  0.0595 -0.7674
  107SAPE  H13Y11065   1.316   3.628   3.641 -1.5417  2.5529 -0.3764
  107SAPE  C31411066   1.252   3.483   3.777 -0.2476  0.6605  0.0978
  107SAPE  H14X11067   1.338   3.415   3.759 -0.8206  0.1626 -0.7900
  107SAPE  H14Y11068   1.160   3.425   3.801  0.0658  0.6834  1.4210
  107SAPE  C31511069   1.296   3.560   3.901 -0.3148 -0.6090 -0.2622
  107SAPE  H15X11070   1.213   3.628   3.930  1.3846  1.6327 -0.5092
  107SAPE  H15Y11071   1.374   3.637   3.881 -0.5306 -0.2220  0.3965
  107SAPE  C31611072   1.348   3.485   4.022  0.2481 -0.4528  0.1408
  107SAPE  H16X11073   1.380   3.551   4.105 -0.5165  0.2963 -0.1503
  107SAPE  H16Y11074   1.431   3.423   3.981  0.2036 -1.3906  1.4303
  107SAPE  C31711075   1.245   3.381   4.076 -0.0737  0.0683 -0.4694
  107SAPE  H17X11076   1.294   3.300   4.134  2.0949  3.8066  3.1449
  107SAPE  H17Y11077   1.197   3.328   3.990 -0.4661  0.9249 -0.7798
  107SAPE  C31811078   1.146   3.443   4.173  0.3509  0.1657  0.2078
  107SAPE  H18X11079   1.065   3.492   4.115 -0.7376 -2.1436 -0.2925
  107SAPE  H18Y11080   1.210   3.505   4.239  2.2366 -2.7425  1.2071
  107SAPE  H18Z11081   1.110   3.357   4.235 -2.3900  0.4632 -0.8986
  108SAPE     N11082   0.488   3.462   1.951 -0.5980 -0.2015 -0.1277
  108SAPE   HN111083   0.540   3.498   1.869 -1.9535 -0.3068 -1.0356
  108SAPE   HN211084   0.507   3.362   1.972 -0.0847  0.1629  1.2503
  108SAPE   HN311085   0.393   3.483   1.916  0.1819  0.4084 -1.9178
  108SAPE   C1211086   0.513   3.536   2.075  0.1389 -0.3588  0.1694
  108SAPE  H12A11087   0.531   3.644   2.057 -2.3515 -0.2591 -2.0227
  108SAPE  H12B11088   0.603   3.493   2.124  1.0253  1.9489  0.5978
  108SAPE   C1111089   0.397   3.513   2.175  0.2669  0.0071 -0.3265
  108SAPE  H11A11090   0.422   3.570   2.267  3.8434  0.3798 -1.4797
  108SAPE  H11B11091   0.392   3.403   2.187 -1.6822  0.1935  0.9152
  108SAPE     P11092   0.225   3.708   2.123  0.4079  0.2099  0.5896
  108SAPE   O1311093   0.237   3.769   1.986 -0.0733  0.0315 -0.4061
  108SAPE   O1411094   0.084   3.702   2.170  0.1067 -0.9524  0.0263
  108SAPE   O1211095   0.275   3.560   2.112 -0.3372 -0.0673 -0.1386
  108SAPE   O1111096   0.329   3.771   2.226  0.2437 -0.5103  0.4080
  108SAPE    C111097   0.292   3.829   2.349 -0.1395 -0.4391  0.0989
  108SAPE    HA11098   0.186   3.812   2.379 -0.4589 -0.2158 -0.8794
  108SAPE    HB11099   0.353   3.788   2.433  1.2824 -0.9446 -1.1591
  108SAPE    C211100   0.321   3.987   2.351  0.1292  0.1331 -0.3327
  108SAPE    HS11101   0.259   4.049   2.284  2.6192  2.9819 -0.0973
  108SAPE   O2111102   0.460   4.009   2.334  0.0602 -0.4881 -0.3869
  108SAPE   C2111103   0.499   4.035   2.215  0.4613 -0.0321  0.6395
  108SAPE   O2211104   0.433   4.064   2.115  0.4566 -0.0939 -0.2530
  108SAPE   C2211105   0.652   4.032   2.210 -0.6371  0.2954  0.1186
  108SAPE   H2R11106   0.680   4.099   2.126  1.8752 -1.0445 -0.1462
  108SAPE   H2S11107   0.701   4.076   2.300 -0.2062 -1.3899  0.7199
  108SAPE    C311108   0.287   4.037   2.496  0.4914 -0.3582 -0.4927
  108SAPE    HX11109   0.316   4.144   2.503 -0.0529 -0.2321 -0.0445
  108SAPE    HY11110   0.352   3.976   2.562 -0.5886 -2.1312 -1.0165
  108SAPE   O3111111   0.147   4.021   2.533  0.4904 -0.2270  0.1455
  108SAPE   C3111112   0.062   4.117   2.488 -1.1661 -0.3263  0.3190
  108SAPE   O3211113   0.101   4.224   2.447 -0.3477  0.2404  0.0734
  108SAPE   C3211114  -0.082   4.071   2.488 -0.1604 -0.3829  0.4620
  108SAPE   H2X11115  -0.080   3.964   2.520 -2.3962 -0.7588 -0.5644
  108SAPE   H2Y11116  -0.103   4.064   2.379  0.4231 -1.3156  0.3994
  108SAPE   C2311117   0.702   3.887   2.196  0.6049  0.2762 -0.4590
  108SAPE   H3R11118   0.813   3.877   2.193  0.7311  0.4960  2.3275
  108SAPE   H3S11119   0.649   3.852   2.105 -2.6513  1.6189  0.8477
  108SAPE   C2411120   0.669   3.789   2.311 -0.3580 -0.1150  0.1349
  108SAPE   H4R11121   0.708   3.693   2.271  0.0384  0.2659 -0.3961
  108SAPE   H4S11122   0.559   3.775   2.318 -0.4121 -0.3005 -1.1098
  108SAPE   C2511123   0.732   3.827   2.440 -0.5594 -0.0518  0.1470
  108SAPE   H5R11124   0.789   3.921   2.434  1.8053 -1.5369 -1.2140
  108SAPE   C2611125   0.719   3.755   2.556 -0.1367  0.4571  0.7708
  108SAPE   H6R11126   0.762   3.798   2.648 -0.3585  0.3718  0.9133
  108SAPE   C2711127   0.622   3.641   2.584  0.2013 -0.6811 -1.0120
  108SAPE   H7R11128   0.539   3.622   2.513 -0.2522  1.4965 -1.0983
  108SAPE   H7S11129   0.572   3.661   2.681  3.3882  0.1069  0.5441
  108SAPE   C2811130   0.694   3.510   2.616 -0.0200  0.2024 -0.1365
  108SAPE   H8R11131   0.799   3.505   2.584 -0.9009 -0.4658 -3.0043
  108SAPE   C2911132   0.638   3.403   2.667  0.9164  0.2545  0.5498
  108SAPE   H9R11133   0.701   3.317   2.692 -0.8283 -0.9555  0.8776
  108SAPE  C21011134   0.493   3.385   2.704  0.0173 -0.1390 -0.2481
  108SAPE  H10R11135   0.436   3.338   2.621  1.1049  0.8378 -1.5667
  108SAPE  H10S11136   0.435   3.480   2.712  2.3916  1.2519  1.0016
  108SAPE  C21111137   0.485   3.308   2.830  0.1049 -0.5548  0.3380
  108SAPE  H11R11138   0.509   3.201   2.815  0.7116 -0.0576 -2.5546
  108SAPE  C21211139   0.447   3.346   2.952 -0.8401 -0.4189 -0.3773
  108SAPE  H12R11140   0.456   3.272   3.034  0.8024  0.2493  0.0617
  108SAPE  C21311141   0.398   3.477   2.994 -0.0525 -0.5749  0.3115
  108SAPE  H13R11142   0.335   3.517   2.911 -2.2632  0.7561  2.5491
  108SAPE  H13S11143   0.485   3.545   3.007 -0.0725 -0.3521 -0.6484
  108SAPE  C21411144   0.320   3.486   3.122 -0.0748  0.6145 -0.6763
  108SAPE  H14R11145   0.212   3.502   3.110 -0.4957 -1.2815  0.4827
  108SAPE  C21511146   0.360   3.491   3.252 -0.3260  0.3513 -0.1781
  108SAPE  H15R11147   0.278   3.488   3.326 -0.1883 -3.5944 -0.0781
  108SAPE  C21611148   0.505   3.488   3.305  0.7222 -0.1718  0.0073
  108SAPE  H16R11149   0.543   3.591   3.320  0.1306  0.2429 -1.2898
  108SAPE  H16S11150   0.574   3.453   3.226  0.0747  0.7753 -0.9756
  108SAPE  C21711151   0.530   3.389   3.419  0.3074  0.7698 -0.1162
  108SAPE  H17R11152   0.637   3.360   3.413 -0.2328 -0.7691 -3.3449
  108SAPE  H17S11153   0.458   3.305   3.408 -0.4911  1.4440 -0.1116
  108SAPE  C21811154   0.519   3.455   3.560 -0.2934 -0.0209  0.8665
  108SAPE  H18R11155   0.433   3.524   3.547 -0.3878 -0.6990 -2.8200
  108SAPE  H18S11156   0.617   3.497   3.590  0.8160 -3.0038  1.6093
  108SAPE  C21911157   0.489   3.354   3.669  0.1183  0.6586 -0.2749
  108SAPE  H19R11158   0.392   3.303   3.652  0.1978  1.2521 -2.6155
  108SAPE  H19S11159   0.485   3.409   3.766  1.5423 -1.6876  1.1510
  108SAPE  C22011160   0.591   3.236   3.678  0.5009  0.3364 -0.2655
  108SAPE  H20R11161   0.697   3.268   3.680  0.8953 -0.9801  0.1647
  108SAPE  H20S11162   0.560   3.172   3.592  0.6024 -0.4592  0.2896
  108SAPE  H20T11163   0.578   3.186   3.776  3.7752  1.8435  0.9772
  108SAPE   C3311164  -0.182   4.161   2.563 -0.2070  0.5030  0.3020
  108SAPE   H3X11165  -0.196   4.260   2.514 -1.6711 -1.0451 -2.5481
  108SAPE   H3Y11166  -0.161   4.188   2.668  0.7175  0.3425  0.1694
  108SAPE   C3411167  -0.319   4.101   2.562 -0.6566  0.8089  0.4369
  108SAPE   H4X11168  -0.342   4.042   2.471  1.0152 -1.6817  1.5345
  108SAPE   H4Y11169  -0.387   4.186   2.583 -0.6920  1.0306 -0.5300
  108SAPE   C3511170  -0.357   4.014   2.685  0.1085 -0.2568  0.6922
  108SAPE   H5X11171  -0.348   4.084   2.771 -1.1136  0.1015  0.5369
  108SAPE   H5Y11172  -0.467   3.999   2.689  0.2911 -1.6548  0.5210
  108SAPE   C3611173  -0.287   3.882   2.705 -0.0292  0.3982 -0.4909
  108SAPE   H6X11174  -0.179   3.905   2.694  0.1451 -0.1761 -0.0204
  108SAPE   H6Y11175  -0.325   3.815   2.626 -1.0439  0.8510 -0.3966
  108SAPE   C3711176  -0.322   3.813   2.838 -0.8754  0.4463  0.2301
  108SAPE   H7X11177  -0.431   3.798   2.849 -0.4828 -1.0807  2.5307
  108SAPE   H7Y11178  -0.287   3.881   2.919  3.0561 -2.4018  1.0870
  108SAPE   C3811179  -0.258   3.675   2.847 -0.1275 -0.3205  0.7029
  108SAPE   H8X11180  -0.149   3.686   2.865  0.1707 -0.9380 -0.6676
  108SAPE   H8Y11181  -0.275   3.626   2.749  0.2426 -1.1252  1.0353
  108SAPE   C3911182  -0.327   3.580   2.948  0.6346  1.1319  0.2528
  108SAPE   H9X11183  -0.298   3.478   2.914  0.2641  1.3339 -0.6977
  108SAPE   H9Y11184  -0.436   3.584   2.927  0.4783  0.1794  0.8630
  108SAPE  C31011185  -0.295   3.621   3.092 -0.4242  0.6447  0.4775
  108SAPE  H10X11186  -0.376   3.582   3.158 -0.3715  0.6968  0.5725
  108SAPE  H10Y11187  -0.295   3.732   3.086  0.5483  0.6912  1.3023
  108SAPE  C31111188  -0.159   3.568   3.142  0.3279 -0.1255  0.3488
  108SAPE  H11X11189  -0.101   3.656   3.176  0.2832 -0.3106  0.9028
  108SAPE  H11Y11190  -0.106   3.515   3.060  0.9390  1.5912 -0.3797
  108SAPE  C31211191  -0.176   3.461   3.247  0.5463 -0.2606 -1.2541
  108SAPE  H12X11192  -0.251   3.389   3.209 -2.5675  1.1836  1.9248
  108SAPE  H12Y11193  -0.215   3.508   3.340  0.6423 -1.1600 -0.7605
  108SAPE  C31311194  -0.046   3.386   3.281  0.1426  0.5915  0.2602
  108SAPE  H13X11195   0.021   3.457   3.335  0.4550  0.2339  0.3435
  108SAPE  H13Y11196   0.005   3.352   3.189 -0.1409 -1.5651  0.8849
  108SAPE  C31411197  -0.071   3.258   3.362 -1.2455  0.2710 -0.0975
  108SAPE  H14X11198  -0.131   3.190   3.298  0.2538  1.4840 -2.8841
  108SAPE  H14Y11199  -0.130   3.274   3.455 -0.2207  3.1276  0.1115
  108SAPE  C31511200   0.060   3.184   3.400 -0.1870 -1.1213  0.2040
  108SAPE  H15X11201   0.126   3.239   3.470  0.0892 -0.9020 -0.2262
  108SAPE  H15Y11202   0.115   3.174   3.304 -0.0509 -1.8734  0.3564
  108SAPE  C31611203   0.026   3.041   3.449 -0.9504  0.5241 -0.1705
  108SAPE  H16X11204  -0.021   2.986   3.364 -2.8776 -2.1985  2.5824
  108SAPE  H16Y11205  -0.043   3.046   3.535 -2.0843  0.2715 -1.0418
  108SAPE  C31711206   0.153   2.969   3.504  0.7000 -0.2364 -0.1288
  108SAPE  H17X11207   0.240   2.976   3.435  0.5805 -2.2412 -0.5093
  108SAPE  H17Y11208   0.134   2.864   3.535 -3.6196  1.0843  2.0782
  108SAPE  C31811209   0.197   3.029   3.642 -0.8410 -0.1919 -0.1781
  108SAPE  H18X11210   0.129   2.997   3.724 -1.2301 -0.6705 -0.6853
  108SAPE  H18Y11211   0.197   3.140   3.635 -0.8771 -0.2108 -0.4677
  108SAPE  H18Z11212   0.304   3.002   3.655 -0.2495  1.5701 -1.2321
  109SAPE     N11213   5.139   1.326   1.670  0.0498 -0.5174  0.4492
  109SAPE   HN111214   5.136   1.388   1.753 -1.9119 -0.5935  0.4480
  109SAPE   HN211215   5.235   1.287   1.675 -0.4697 -2.0697 -1.1165
  109SAPE   HN311216   5.141   1.385   1.584  0.8844 -1.7490 -0.3913
  109SAPE   C1211217   5.026   1.231   1.680 -0.8855 -0.1731  0.5465
  109SAPE  H12A11218   5.034   1.154   1.599  0.3473  0.6624 -0.1496
  109SAPE  H12B11219   4.932   1.289   1.676  0.6935  2.3600 -1.4554
  109SAPE   C1111220   5.039   1.146   1.809 -0.2882 -0.5863 -0.7051
  109SAPE  H11A11221   5.100   1.058   1.780  0.5651 -0.7242  1.3736
  109SAPE  H11B11222   4.938   1.105   1.832 -0.3758 -0.3673 -0.6965
  109SAPE     P11223   5.016   1.284   2.028 -0.0192 -0.5570  0.4401
  109SAPE   O1311224   5.117   1.347   2.118  0.0932 -0.1925 -0.0554
  109SAPE   O1411225   4.927   1.366   1.949  0.3117  0.1942 -0.2175
  109SAPE   O1211226   5.102   1.219   1.921  0.2062  0.5260  0.0655
  109SAPE   O1111227   4.945   1.159   2.089 -0.1854 -0.7801  0.0273
  109SAPE    C111228   4.802   1.152   2.084  0.0088  0.0377 -0.2237
  109SAPE    HA11229   4.764   1.152   1.980 -2.5659  0.6508  0.6758
  109SAPE    HB11230   4.770   1.057   2.132  2.8741 -0.1736  1.3903
  109SAPE    C211231   4.731   1.241   2.187  0.7284 -0.4762 -0.1686
  109SAPE    HS11232   4.749   1.349   2.164 -1.7494  0.9143  3.8421
  109SAPE   O2111233   4.774   1.197   2.316  0.0621 -0.0133  0.4785
  109SAPE   C2111234   4.864   1.271   2.368 -0.4090  0.5702  0.9744
  109SAPE   O2211235   4.904   1.383   2.325  0.1547  0.4015 -0.2422
  109SAPE   C2211236   4.900   1.217   2.512  0.4340  0.2122 -0.5121
  109SAPE   H2R11237   4.824   1.252   2.586  0.5443  1.0728 -0.7944
  109SAPE   H2S11238   4.899   1.106   2.514  1.3608  0.1766 -1.4178
  109SAPE    C311239   4.583   1.228   2.181  0.2393  0.6700  0.8033
  109SAPE    HX11240   4.573   1.118   2.167  3.0699  0.4490  0.2022
  109SAPE    HY11241   4.552   1.274   2.085  0.1816 -1.5765 -0.3000
  109SAPE   O3111242   4.504   1.278   2.288 -0.5718 -0.2077 -0.2520
  109SAPE   C3111243   4.398   1.208   2.323 -0.0880  0.2257 -0.2195
  109SAPE   O3211244   4.376   1.093   2.286  0.6511  0.8663 -1.0860
  109SAPE   C3211245   4.320   1.283   2.430  0.1331 -0.2747 -0.1785
  109SAPE   H2X11246   4.260   1.361   2.378 -0.9390 -0.1331  1.2563
  109SAPE   H2Y11247   4.388   1.336   2.500 -2.4503 -0.3136  2.4672
  109SAPE   C2311248   5.047   1.246   2.548 -0.5875  0.2327  1.1477
  109SAPE   H3R11249   5.066   1.204   2.649 -1.2069 -1.5190  0.5575
  109SAPE   H3S11250   5.062   1.354   2.569  0.9870 -0.0674  1.6260
  109SAPE   C2411251   5.158   1.186   2.454  0.3081 -0.0203 -0.1257
  109SAPE   H4R11252   5.128   1.226   2.356  0.4684  0.1397 -0.1085
  109SAPE   H4S11253   5.134   1.078   2.440  1.1179 -0.0768 -1.0552
  109SAPE   C2511254   5.307   1.217   2.480 -0.6930  0.1653 -0.3162
  109SAPE   H5R11255   5.333   1.319   2.449 -2.3170  1.0519  1.1310
  109SAPE   C2611256   5.399   1.141   2.535  0.1166  0.0190 -0.4729
  109SAPE   H6R11257   5.501   1.174   2.514  0.0217  0.2416 -0.5916
  109SAPE   C2711258   5.383   1.000   2.590 -0.2399 -0.0411  0.7698
  109SAPE   H7R11259   5.294   0.951   2.546  0.0896 -0.8804  1.0350
  109SAPE   H7S11260   5.370   1.021   2.698  2.0660 -0.4623  1.1535
  109SAPE   C2811261   5.504   0.916   2.568  0.1605 -0.6026 -0.2250
  109SAPE   H8R11262   5.580   0.952   2.497 -2.1178  0.9618 -1.9571
  109SAPE   C2911263   5.529   0.802   2.633 -0.6927 -0.0691 -0.0315
  109SAPE   H9R11264   5.625   0.751   2.614 -1.2373 -0.9736 -0.3809
  109SAPE  C21011265   5.442   0.734   2.733 -0.8290 -0.2435 -0.4547
  109SAPE  H10R11266   5.479   0.629   2.731  0.4292  0.1770  0.1354
  109SAPE  H10S11267   5.335   0.729   2.706 -0.5456  1.1026 -1.9021
  109SAPE  C21111268   5.471   0.787   2.865  0.2576 -0.1439  0.1749
  109SAPE  H11R11269   5.494   0.894   2.877 -0.1302  0.1333 -1.4483
  109SAPE  C21211270   5.458   0.712   2.975 -0.1428 -0.0382 -0.0163
  109SAPE  H12R11271   5.493   0.758   3.069 -1.6776  1.5814 -0.2037
  109SAPE  C21311272   5.416   0.573   2.975  0.1182  0.7952 -0.4202
  109SAPE  H13R11273   5.475   0.515   2.902 -1.5564 -0.8491 -0.5001
  109SAPE  H13S11274   5.307   0.573   2.953 -0.3885  2.6333  1.8406
  109SAPE  C21411275   5.437   0.498   3.103  0.1481 -0.6578  0.5410
  109SAPE  H14R11276   5.531   0.443   3.117  1.0700  0.1655 -2.1633
  109SAPE  C21511277   5.353   0.517   3.213  0.1900 -0.6472 -0.1437
  109SAPE  H15R11278   5.370   0.449   3.298 -1.1194 -1.7144 -0.7039
  109SAPE  C21611279   5.229   0.606   3.219  0.5523 -0.8292 -0.1817
  109SAPE  H16R11280   5.156   0.533   3.260 -0.4811  0.6463  0.6485
  109SAPE  H16S11281   5.190   0.635   3.119  1.3544  0.5633 -0.1077
  109SAPE  C21711282   5.221   0.725   3.320  0.4482 -0.1085 -0.5714
  109SAPE  H17R11283   5.274   0.692   3.413  1.1334  0.7108 -0.6700
  109SAPE  H17S11284   5.114   0.743   3.342  0.3875 -1.5165  0.3798
  109SAPE  C21811285   5.296   0.856   3.278  0.8000  0.1611 -0.3795
  109SAPE  H18R11286   5.256   0.869   3.175  0.8986  0.5895 -0.3646
  109SAPE  H18S11287   5.406   0.854   3.266  1.4588  3.8239  3.9891
  109SAPE  C21911288   5.258   0.975   3.365  0.0404 -0.0419  0.0714
  109SAPE  H19R11289   5.151   1.003   3.360 -0.4484 -2.0473 -1.4408
  109SAPE  H19S11290   5.326   1.059   3.339 -0.2522  0.3107  0.4390
  109SAPE  C22011291   5.277   0.944   3.517 -0.2002  0.1147 -0.3167
  109SAPE  H20R11292   5.272   1.041   3.570 -1.3892 -0.7019  1.1027
  109SAPE  H20S11293   5.365   0.877   3.528 -2.0461 -2.1633  1.0258
  109SAPE  H20T11294   5.190   0.886   3.555 -0.5181 -0.1128 -1.3916
  109SAPE   C3311295   4.220   1.196   2.511 -1.1140 -0.1313  0.2135
  109SAPE   H3X11296   4.279   1.120   2.567 -2.3925 -0.8024  0.6840
  109SAPE   H3Y11297   4.157   1.140   2.438 -0.2060  0.8924 -1.3775
  109SAPE   C3411298   4.149   1.285   2.608  0.3087 -0.2128 -0.2144
  109SAPE   H4X11299   4.109   1.367   2.544  1.2051 -0.1045 -0.6458
  109SAPE   H4Y11300   4.217   1.345   2.672 -2.0144  1.3828  0.8250
  109SAPE   C3511301   4.027   1.219   2.677  0.0473 -0.2744  0.2022
  109SAPE   H5X11302   4.060   1.119   2.712 -0.5443 -0.4774  0.1887
  109SAPE   H5Y11303   3.947   1.209   2.600 -3.4958  2.3120  3.3597
  109SAPE   C3611304   3.970   1.301   2.794  0.1407  0.6586  0.0994
  109SAPE   H6X11305   3.897   1.247   2.857  1.0853  0.4288  1.0133
  109SAPE   H6Y11306   3.919   1.398   2.774 -2.4853 -0.4973  1.0138
  109SAPE   C3711307   4.074   1.336   2.909  0.4202 -0.8206  0.2362
  109SAPE   H7X11308   4.160   1.392   2.866  2.4416 -1.9519  2.6712
  109SAPE   H7Y11309   4.109   1.238   2.950  0.6528 -1.2965 -1.0794
  109SAPE   C3811310   4.011   1.410   3.031  0.6970 -0.2902  0.3090
  109SAPE   H8X11311   4.096   1.441   3.095 -0.0539 -0.5634  1.4660
  109SAPE   H8Y11312   3.955   1.334   3.090 -0.8718  0.8194  0.2764
  109SAPE   C3911313   3.938   1.541   2.996  0.3810  0.4248  0.2155
  109SAPE   H9X11314   3.839   1.525   2.950  1.7567 -0.5098 -2.5408
  109SAPE   H9Y11315   4.001   1.603   2.928 -0.2704  0.9110  0.0576
  109SAPE  C31011316   3.921   1.619   3.125  0.2250 -0.5688 -0.8602
  109SAPE  H10X11317   3.885   1.721   3.101  0.8598 -0.0844  0.2399
  109SAPE  H10Y11318   4.021   1.637   3.170 -0.5656 -0.5284  0.8881
  109SAPE  C31111319   3.817   1.554   3.217 -0.5853 -0.3385 -0.1983
  109SAPE  H11X11320   3.817   1.610   3.313  1.6273  1.5251 -1.2566
  109SAPE  H11Y11321   3.848   1.450   3.241 -0.3144 -0.0818  0.5641
  109SAPE  C31211322   3.673   1.564   3.164 -0.2542 -0.1220  0.0885
  109SAPE  H12X11323   3.661   1.488   3.083  0.3344 -1.3724  1.1447
  109SAPE  H12Y11324   3.649   1.664   3.121 -3.3859 -0.5168  0.8344
  109SAPE  C31311325   3.573   1.527   3.268 -0.1023 -0.1124 -0.7948
  109SAPE  H13X11326   3.594   1.584   3.362 -0.5123 -1.2511  0.0014
  109SAPE  H13Y11327   3.585   1.417   3.280  0.1176 -0.0446 -0.3679
  109SAPE  C31411328   3.424   1.552   3.229  0.6798  0.1286  0.0632
  109SAPE  H14X11329   3.407   1.490   3.139 -0.8479 -0.4966  0.7711
  109SAPE  H14Y11330   3.395   1.658   3.211 -1.2464  0.0351  2.4339
  109SAPE  C31511331   3.325   1.503   3.334  0.4322 -0.0127  0.1558
  109SAPE  H15X11332   3.339   1.556   3.431  0.4760 -1.4992  0.9735
  109SAPE  H15Y11333   3.340   1.396   3.358 -1.6358 -0.7718 -1.7514
  109SAPE  C31611334   3.182   1.531   3.278  0.2351  0.3485  0.2153
  109SAPE  H16X11335   3.178   1.479   3.180  1.7057  1.1293 -0.2670
  109SAPE  H16Y11336   3.164   1.639   3.259  2.6789  0.6969 -0.3201
  109SAPE  C31711337   3.071   1.463   3.364  0.6227 -0.2532 -0.4247
  109SAPE  H17X11338   3.079   1.353   3.368  1.0632 -0.1777  1.9792
  109SAPE  H17Y11339   2.972   1.494   3.325  1.4077  1.2418 -1.2750
  109SAPE  C31811340   3.064   1.507   3.513  0.2619  0.1799  0.1631
  109SAPE  H18X11341   2.966   1.482   3.558  0.2478 -1.1551 -0.5885
  109SAPE  H18Y11342   3.074   1.617   3.508  3.0089  0.0851  2.4116
  109SAPE  H18Z11343   3.151   1.466   3.569  0.0635 -0.2606  0.1510
  110SAPE     N11344   3.282   6.559   1.572  0.2613  0.1441  0.3103
  110SAPE   HN111345   3.330   6.469   1.591 -1.6226 -1.0802 -0.6503
  110SAPE   HN211346   3.185   6.542   1.605  0.0964 -1.8666 -1.1135
  110SAPE   HN311347   3.273   6.574   1.470 -0.9480 -0.5017  0.3211
  110SAPE   C1211348   3.349   6.680   1.627  0.7085 -0.1495 -0.0533
  110SAPE  H12A11349   3.299   6.770   1.586  0.9196  1.0729  2.2818
  110SAPE  H12B11350   3.457   6.677   1.600  0.8140 -0.1507  0.3640
  110SAPE   C1111351   3.365   6.674   1.783  0.4250 -0.6961 -1.0070
  110SAPE  H11A11352   3.263   6.675   1.827  0.4997 -1.3951 -0.8221
  110SAPE  H11B11353   3.419   6.762   1.826 -2.3783  0.2391  0.7066
  110SAPE     P11354   3.388   6.452   1.923 -0.1440 -0.0321  0.4187
  110SAPE   O1311355   3.273   6.392   1.854  0.6046  0.1242 -0.2112
  110SAPE   O1411356   3.498   6.362   1.973 -0.0453 -0.2386 -0.2250
  110SAPE   O1211357   3.443   6.573   1.831 -0.1028  0.5857 -0.1861
  110SAPE   O1111358   3.326   6.539   2.038 -0.0525  0.3237  0.0487
  110SAPE    C111359   3.405   6.623   2.130  0.5416 -0.5173  0.0917
  110SAPE    HA11360   3.455   6.568   2.213  0.3439  0.7107  1.0405
  110SAPE    HB11361   3.484   6.681   2.078 -0.8049 -1.1710 -2.7783
  110SAPE    C211362   3.312   6.735   2.194  0.0432  0.5249  0.1021
  110SAPE    HS11363   3.283   6.797   2.107  1.6158 -0.2921 -1.0489
  110SAPE   O2111364   3.380   6.802   2.296 -0.5885  0.3137 -0.2387
  110SAPE   C2111365   3.330   6.925   2.322  0.0700 -0.2022  0.0100
  110SAPE   O2211366   3.245   6.978   2.256  0.0530 -0.1854 -0.1830
  110SAPE   C2211367   3.405   6.979   2.442  0.2480  0.1356 -0.2711
  110SAPE   H2R11368   3.501   6.924   2.452  0.6460  1.1568  1.7455
  110SAPE   H2S11369   3.420   7.084   2.408 -0.5545  0.1661 -0.5340
  110SAPE    C311370   3.186   6.672   2.259  0.2708  0.0660 -0.2419
  110SAPE    HX11371   3.125   6.756   2.300 -1.0770 -0.6910 -0.6641
  110SAPE    HY11372   3.125   6.640   2.172 -1.8364  0.6937  0.9776
  110SAPE   O3111373   3.211   6.563   2.354  0.4961 -0.0779 -0.3299
  110SAPE   C3111374   3.106   6.488   2.389 -0.3126 -0.2393  0.1613
  110SAPE   O3211375   2.995   6.484   2.336 -0.0496 -0.5358 -0.4782
  110SAPE   C3211376   3.146   6.411   2.517  0.0874  0.3648  0.0894
  110SAPE   H2X11377   3.161   6.483   2.601  1.3949  1.4540 -1.0583
  110SAPE   H2Y11378   3.245   6.366   2.496  0.4461 -1.0269  4.2875
  110SAPE   C2311379   3.317   6.991   2.577 -0.9975 -0.3970  0.2351
  110SAPE   H3R11380   3.228   7.053   2.553 -0.8985 -0.3582 -0.0419
  110SAPE   H3S11381   3.381   7.034   2.657  0.2366  0.0825 -0.9894
  110SAPE   C2411382   3.284   6.844   2.632  0.2325 -0.0262 -0.2252
  110SAPE   H4R11383   3.383   6.794   2.633 -0.4464 -1.3784  0.9326
  110SAPE   H4S11384   3.214   6.791   2.564  1.8879  0.1407 -2.1102
  110SAPE   C2511385   3.215   6.849   2.768 -0.3741 -0.4025 -1.2051
  110SAPE   H5R11386   3.108   6.870   2.782 -0.6716 -1.0010 -2.5401
  110SAPE   C2611387   3.287   6.856   2.879 -0.4675  0.0944 -0.0646
  110SAPE   H6R11388   3.240   6.875   2.977  0.1876  1.3398  0.0161
  110SAPE   C2711389   3.437   6.843   2.896  0.1674 -0.0383  1.2529
  110SAPE   H7R11390   3.484   6.794   2.808 -0.0718  1.0174  0.5307
  110SAPE   H7S11391   3.470   6.777   2.979  3.4586 -1.3717 -1.0109
  110SAPE   C2811392   3.491   6.986   2.915  0.1890 -0.3322 -0.6050
  110SAPE   H8R11393   3.503   7.042   2.821 -0.7641 -1.3234 -1.3347
  110SAPE   C2911394   3.510   7.052   3.032 -0.0459 -0.0916  0.4830
  110SAPE   H9R11395   3.541   7.158   3.038  0.0470 -0.0435 -0.7446
  110SAPE  C21011396   3.474   6.985   3.164  0.5146  0.0288  0.6200
  110SAPE  H10R11397   3.425   6.886   3.156 -1.2048  1.1268 -3.6131
  110SAPE  H10S11398   3.399   7.050   3.214 -0.9741 -1.3060  0.1619
  110SAPE  C21111399   3.594   6.955   3.254  0.3961 -0.5870 -0.2258
  110SAPE  H11R11400   3.685   6.912   3.211  0.3767 -1.4741  0.6080
  110SAPE  C21211401   3.594   6.973   3.388 -0.2802  0.3803  0.4778
  110SAPE  H12R11402   3.678   6.922   3.438  0.1080  0.2376 -0.3094
  110SAPE  C21311403   3.484   7.029   3.479  0.6165  0.3109  0.3056
  110SAPE  H13R11404   3.400   7.051   3.411  0.8720  0.2364 -0.0370
  110SAPE  H13S11405   3.520   7.125   3.521  2.1539  0.6878 -1.7943
  110SAPE  C21411406   3.457   6.928   3.594 -0.1202  0.0233 -0.2391
  110SAPE  H14R11407   3.539   6.859   3.621  0.2446  0.3055 -0.6164
  110SAPE  C21511408   3.338   6.914   3.651  0.4222 -0.0034 -0.1406
  110SAPE  H15R11409   3.325   6.836   3.728  3.1477 -0.2627  0.1213
  110SAPE  C21611410   3.215   6.991   3.625 -0.8009 -0.0192 -0.3052
  110SAPE  H16R11411   3.239   7.058   3.540  1.5999  0.5947  0.8066
  110SAPE  H16S11412   3.191   7.067   3.704 -0.1170 -0.3846  0.2618
  110SAPE  C21711413   3.090   6.915   3.587  0.5736  0.0211  0.9034
  110SAPE  H17R11414   3.109   6.850   3.498  0.8262 -2.8177  2.9528
  110SAPE  H17S11415   3.010   6.989   3.567  0.3039  0.2466  2.7543
  110SAPE  C21811416   3.037   6.840   3.708  0.8547  0.5703  0.0757
  110SAPE  H18R11417   3.014   6.919   3.782 -1.4695 -0.8176  0.9288
  110SAPE  H18S11418   3.108   6.764   3.748 -0.9451 -0.9500  0.4763
  110SAPE  C21911419   2.903   6.764   3.679 -0.4320  0.1051 -0.1493
  110SAPE  H19R11420   2.925   6.680   3.610 -0.0165  1.1274 -1.2819
  110SAPE  H19S11421   2.828   6.828   3.629 -1.0943 -0.4513  0.1218
  110SAPE  C22011422   2.835   6.719   3.815 -0.1662 -0.4177  0.3268
  110SAPE  H20R11423   2.907   6.690   3.894  0.3075  0.2167  0.1272
  110SAPE  H20S11424   2.773   6.631   3.787  1.0250 -0.9736 -0.6441
  110SAPE  H20T11425   2.775   6.798   3.863  0.7775 -0.4731  1.6169
  110SAPE   C3311426   3.040   6.305   2.561  0.2746 -0.1240  0.5299
  110SAPE   H3X11427   3.081   6.212   2.606  1.2446 -0.0418 -0.1938
  110SAPE   H3Y11428   2.993   6.256   2.473 -1.2240  0.5563  0.9237
  110SAPE   C3411429   2.934   6.349   2.655 -0.1608 -0.5751  0.3945
  110SAPE   H4X11430   2.869   6.433   2.623 -1.1766 -0.9185  1.5075
  110SAPE   H4Y11431   2.995   6.387   2.741  1.1849  1.1932 -1.3055
  110SAPE   C3511432   2.836   6.232   2.696 -0.1708 -0.2290 -0.1984
  110SAPE   H5X11433   2.899   6.150   2.737  1.0725  0.6019 -0.4187
  110SAPE   H5Y11434   2.780   6.198   2.606 -3.7285  1.3015  1.3393
  110SAPE   C3611435   2.734   6.266   2.807 -0.0324 -0.0181 -0.1724
  110SAPE   H6X11436   2.659   6.183   2.809  0.0394 -0.0706  0.3931
  110SAPE   H6Y11437   2.692   6.364   2.777  1.2710 -0.0078 -2.0488
  110SAPE   C3711438   2.807   6.269   2.944 -0.1102 -0.2938 -0.2821
  110SAPE   H7X11439   2.897   6.331   2.925  0.3400 -0.6188  0.7614
  110SAPE   H7Y11440   2.839   6.163   2.945 -3.0691 -1.2474 -1.0778
  110SAPE   C3811441   2.717   6.303   3.068 -0.0505 -0.2391  0.4359
  110SAPE   H8X11442   2.618   6.253   3.063 -1.2715  1.8865  2.3238
  110SAPE   H8Y11443   2.692   6.411   3.080 -0.3164 -0.1748 -0.6330
  110SAPE   C3911444   2.794   6.261   3.201  0.0580 -0.4508  0.2179
  110SAPE   H9X11445   2.890   6.316   3.217  0.5638 -1.5754  1.1974
  110SAPE   H9Y11446   2.827   6.154   3.200  0.2880 -0.4031 -4.0222
  110SAPE  C31011447   2.700   6.281   3.319  0.4384  0.3403 -0.4448
  110SAPE  H10X11448   2.597   6.247   3.295  0.8159 -1.0457 -0.1691
  110SAPE  H10Y11449   2.705   6.388   3.347  2.5544  0.4234 -1.0310
  110SAPE  C31111450   2.752   6.209   3.445 -0.4892 -0.3688  0.0413
  110SAPE  H11X11451   2.856   6.246   3.460 -0.8936  0.9472 -0.3631
  110SAPE  H11Y11452   2.748   6.099   3.427 -3.7844 -0.0430 -1.5977
  110SAPE  C31211453   2.664   6.240   3.557  0.0081 -0.7641  0.0617
  110SAPE  H12X11454   2.556   6.225   3.535  0.0059 -1.3945  0.4779
  110SAPE  H12Y11455   2.680   6.349   3.572  0.9759 -0.6687 -1.5706
  110SAPE  C31311456   2.695   6.162   3.681 -0.9105  0.0495  0.3783
  110SAPE  H13X11457   2.801   6.186   3.705 -0.9601  0.1984  0.4507
  110SAPE  H13Y11458   2.691   6.052   3.665  0.6025  0.1353 -0.7376
  110SAPE  C31411459   2.616   6.210   3.801 -0.1652 -0.7902 -0.1487
  110SAPE  H14X11460   2.523   6.153   3.823 -1.3320  2.1232  2.8861
  110SAPE  H14Y11461   2.591   6.318   3.786  2.6182  0.5342  3.8968
  110SAPE  C31511462   2.702   6.213   3.932 -0.0654  0.3672  0.1279
  110SAPE  H15X11463   2.635   6.247   4.014  1.0857  2.3636  0.2703
  110SAPE  H15Y11464   2.782   6.290   3.931  0.1324  0.1566 -0.6949
  110SAPE  C31611465   2.748   6.070   3.972 -0.4224  0.1851  0.1533
  110SAPE  H16X11466   2.828   6.072   4.049 -0.7736 -0.6193  0.5472
  110SAPE  H16Y11467   2.803   6.037   3.881  0.6621  0.8423  0.5728
  110SAPE  C31711468   2.638   5.973   4.018  0.3303  0.1912 -0.1465
  110SAPE  H17X11469   2.545   6.015   3.973  0.7579 -0.7974 -2.0187
  110SAPE  H17Y11470   2.636   5.976   4.129 -1.3646 -0.0746 -0.1493
  110SAPE  C31811471   2.657   5.829   3.970  0.3707  0.2910 -0.5037
  110SAPE  H18X11472   2.569   5.777   4.013  0.7056 -0.5450 -0.8098
  110SAPE  H18Y11473   2.753   5.785   4.006  0.1808  0.8498  0.7360
  110SAPE  H18Z11474   2.662   5.818   3.860 -1.3218 -2.8979 -0.3154
  111SAPE     N11475   1.736   0.008   1.969  1.0440 -0.3477 -0.0914
  111SAPE   HN111476   1.704  -0.085   1.934 -0.3057  0.5885 -1.4175
  111SAPE   HN211477   1.812   0.043   1.908  0.2919  1.4741 -0.0083
  111SAPE   HN311478   1.774  -0.007   2.065  2.9773  1.1951 -0.5804
  111SAPE   C1211479   1.632   0.111   1.964  0.3953 -0.3968 -0.2050
  111SAPE  H12A11480   1.541   0.074   2.016 -0.7639  0.1269 -1.8254
  111SAPE  H12B11481   1.593   0.116   1.860 -0.1227 -1.7647 -0.0924
  111SAPE   C1111482   1.684   0.242   2.031  1.2622  0.4261  0.0702
  111SAPE  H11A11483   1.735   0.227   2.129  0.4083  0.2488  0.4945
  111SAPE  H11B11484   1.594   0.305   2.045  1.4654  1.0702 -1.5001
  111SAPE     P11485   1.929   0.282   1.944  0.1007 -0.2126  0.1078
  111SAPE   O1311486   1.933   0.150   1.882  0.0833  0.2756  0.2990
  111SAPE   O1411487   1.996   0.392   1.882 -0.4226 -0.3235  0.1150
  111SAPE   O1211488   1.774   0.315   1.947  0.3145 -0.2723 -0.0744
  111SAPE   O1111489   1.964   0.270   2.095  0.4504  0.4492 -0.2281
  111SAPE    C111490   2.093   0.248   2.151  0.1208  0.5744 -0.5301
  111SAPE    HA11491   2.066   0.150   2.195 -1.4133  0.3900 -1.8047
  111SAPE    HB11492   2.166   0.229   2.070 -0.4632 -2.0028 -0.4726
  111SAPE    C211493   2.124   0.366   2.244 -0.2924  0.1580  0.4135
  111SAPE    HS11494   2.187   0.442   2.192  0.5847  0.2170  1.5348
  111SAPE   O2111495   2.198   0.328   2.362  0.1528  0.3581  0.1467
  111SAPE   C2111496   2.316   0.272   2.343  0.9050  0.3062 -0.1500
  111SAPE   O2211497   2.362   0.237   2.237  0.6513  0.0952  0.8319
  111SAPE   C2211498   2.387   0.260   2.481 -0.0225  0.1722  0.3093
  111SAPE   H2R11499   2.494   0.269   2.453 -0.1881  1.1892 -0.0247
  111SAPE   H2S11500   2.354   0.347   2.542  1.8091  1.5405 -0.6052
  111SAPE    C311501   1.995   0.437   2.287  0.4990 -0.3849 -0.0540
  111SAPE    HX11502   1.920   0.364   2.326  0.3409 -0.0695  0.2310
  111SAPE    HY11503   1.949   0.489   2.201 -0.0019  1.4505  1.3061
  111SAPE   O3111504   2.014   0.523   2.401  0.0266 -0.3618  0.0985
  111SAPE   C3111505   2.052   0.644   2.383  0.3470  0.3251  0.5992
  111SAPE   O3211506   2.057   0.699   2.276 -0.4244  0.3474  0.4480
  111SAPE   C3211507   2.092   0.717   2.511  0.0743 -0.0511  0.2914
  111SAPE   H2X11508   2.083   0.822   2.474 -0.6070 -0.4807 -0.8034
  111SAPE   H2Y11509   2.199   0.697   2.531 -0.0415 -0.1254  0.8477
  111SAPE   C2311510   2.375   0.117   2.543 -0.0500  0.1816 -0.5262
  111SAPE   H3R11511   2.460   0.108   2.613 -0.1692  0.8997 -0.2835
  111SAPE   H3S11512   2.398   0.038   2.468  1.3663 -1.1594  1.2715
  111SAPE   C2411513   2.248   0.108   2.625  0.2190  0.6225 -0.3880
  111SAPE   H4R11514   2.244   0.002   2.658 -0.7440  0.5120 -0.8567
  111SAPE   H4S11515   2.161   0.128   2.558  0.7868  0.3511 -1.2055
  111SAPE   C2511516   2.230   0.192   2.748  0.0988 -0.4544 -0.5964
  111SAPE   H5R11517   2.170   0.283   2.734  0.1040 -0.0896  1.5572
  111SAPE   C2611518   2.269   0.158   2.875  0.6532 -0.4474 -0.6782
  111SAPE   H6R11519   2.237   0.233   2.948  1.0856 -0.0661 -0.8791
  111SAPE   C2711520   2.335   0.032   2.918  0.4015  0.0217  0.6384
  111SAPE   H7R11521   2.397  -0.015   2.838  0.4864 -0.1553  0.8091
  111SAPE   H7S11522   2.258  -0.049   2.919  0.3861  0.0314  0.4535
  111SAPE   C2811523   2.414   0.044   3.045  0.6364 -0.0920  0.3378
  111SAPE   H8R11524   2.479   0.133   3.054  0.4295 -0.0556  1.5632
  111SAPE   C2911525   2.394  -0.027   3.159 -0.6220  1.0373  0.4688
  111SAPE   H9R11526   2.458  -0.008   3.246  2.2747  1.8017 -1.7626
  111SAPE  C21011527   2.306  -0.146   3.175 -0.3170 -0.1414  0.4765
  111SAPE  H10R11528   2.204  -0.122   3.137 -0.4894 -2.0204 -0.3184
  111SAPE  H10S11529   2.289  -0.151   3.284 -1.1492  1.4422  0.4235
  111SAPE  C21111530   2.354  -0.279   3.110  0.5154 -0.6061 -0.0150
  111SAPE  H11R11531   2.377  -0.271   3.003 -2.7312 -4.0945 -1.0966
  111SAPE  C21211532   2.369  -0.396   3.175  0.0523 -0.6494 -0.2115
  111SAPE  H12R11533   2.399  -0.484   3.116  4.5747  0.1344  0.7218
  111SAPE  C21311534   2.332  -0.424   3.322  0.1860 -0.1717  0.1663
  111SAPE  H13R11535   2.242  -0.489   3.323  0.1186 -0.0752  2.7210
  111SAPE  H13S11536   2.281  -0.341   3.375 -0.5247  0.6851 -1.8215
  111SAPE  C21411537   2.441  -0.481   3.399  0.2749 -0.1017 -0.3584
  111SAPE  H14R11538   2.542  -0.471   3.357 -0.0916 -1.3647 -1.5933
  111SAPE  C21511539   2.419  -0.536   3.517 -0.3406  0.0338 -0.5868
  111SAPE  H15R11540   2.508  -0.572   3.571 -1.0636 -0.5623  0.2096
  111SAPE  C21611541   2.292  -0.545   3.590  0.3056 -0.6363  0.0220
  111SAPE  H16R11542   2.209  -0.574   3.522  0.8381 -1.7013 -0.1967
  111SAPE  H16S11543   2.274  -0.448   3.640 -2.0627 -0.4704 -1.1076
  111SAPE  C21711544   2.289  -0.648   3.707  0.0434  0.0135  0.4306
  111SAPE  H17R11545   2.338  -0.739   3.667 -1.6633 -0.2071 -1.2722
  111SAPE  H17S11546   2.180  -0.668   3.722  0.2223 -0.3196  1.2875
  111SAPE  C21811547   2.351  -0.596   3.835 -0.0041  0.5819  0.3726
  111SAPE  H18R11548   2.318  -0.493   3.860 -2.2970 -0.4311  1.6326
  111SAPE  H18S11549   2.460  -0.584   3.818  0.0181 -2.2039 -1.8947
  111SAPE  C21911550   2.304  -0.676   3.957 -0.7775 -0.4428 -0.2251
  111SAPE  H19R11551   2.347  -0.778   3.948 -0.5793 -0.2104 -2.3365
  111SAPE  H19S11552   2.193  -0.677   3.952 -0.7767  1.3795 -1.2578
  111SAPE  C22011553   2.355  -0.630   4.093 -0.5525 -0.0758  0.1607
  111SAPE  H20R11554   2.447  -0.687   4.117  0.4255  1.3171 -0.1927
  111SAPE  H20S11555   2.280  -0.655   4.171 -0.8835  1.0487  0.2198
  111SAPE  H20T11556   2.374  -0.520   4.099 -0.7516 -0.0165 -0.3419
  111SAPE   C3311557   2.006   0.687   2.636 -0.4315 -0.3111 -0.9842
  111SAPE   H3X11558   2.020   0.577   2.647  2.8392 -0.0669 -2.3015
  111SAPE   H3Y11559   1.897   0.709   2.634 -0.7449 -1.5875  0.5803
  111SAPE   C3411560   2.052   0.752   2.768  0.7315 -0.2526  0.3534
  111SAPE   H4X11561   2.031   0.861   2.759 -0.9176 -0.7411 -2.1344
  111SAPE   H4Y11562   2.163   0.745   2.780  0.8591 -1.3598 -1.2947
  111SAPE   C3511563   1.985   0.685   2.887 -0.5335  0.0678  1.0844
  111SAPE   H5X11564   2.000   0.576   2.876 -3.9991 -0.4183  0.5508
  111SAPE   H5Y11565   1.875   0.695   2.878 -0.3497  0.0680 -1.9768
  111SAPE   C3611566   2.031   0.737   3.028 -0.1407  0.6104  0.0616
  111SAPE   H6X11567   1.969   0.684   3.104  0.0590 -0.8122 -0.7547
  111SAPE   H6Y11568   2.013   0.846   3.034 -0.3249  0.4466  3.0583
  111SAPE   C3711569   2.178   0.709   3.068 -0.4141 -0.0510 -0.8490
  111SAPE   H7X11570   2.208   0.784   3.143  0.0596 -0.0661 -1.0146
  111SAPE   H7Y11571   2.244   0.737   2.983  1.7836 -1.2434  0.3995
  111SAPE   C3811572   2.199   0.561   3.095 -0.3286 -0.0828 -0.1378
  111SAPE   H8X11573   2.231   0.495   3.012  0.0577  1.4940 -1.2563
  111SAPE   H8Y11574   2.095   0.525   3.112  0.3015 -0.6724  2.7879
  111SAPE   C3911575   2.277   0.526   3.222  0.3056 -0.3690 -0.3293
  111SAPE   H9X11576   2.263   0.596   3.307 -0.9288 -1.9127  0.7518
  111SAPE   H9Y11577   2.387   0.531   3.204  0.0348 -0.2781 -2.0619
  111SAPE  C31011578   2.246   0.373   3.250 -0.3431  0.5333 -0.1927
  111SAPE  H10X11579   2.326   0.313   3.201 -0.0433  0.7483  0.0319
  111SAPE  H10Y11580   2.146   0.331   3.225 -0.0482 -0.2467 -0.0828
  111SAPE  C31111581   2.266   0.353   3.403  0.2027  0.0587  0.4066
  111SAPE  H11X11582   2.180   0.402   3.454  0.4745  1.9846 -0.9436
  111SAPE  H11Y11583   2.360   0.400   3.438  0.0419 -0.0111  0.9517
  111SAPE  C31211584   2.281   0.209   3.426  0.0583  0.1274  0.0785
  111SAPE  H12X11585   2.371   0.170   3.373  0.2049  0.7518 -0.1437
  111SAPE  H12Y11586   2.199   0.146   3.385  0.5389  0.2221 -1.0562
  111SAPE  C31311587   2.293   0.186   3.576  0.1234 -0.3230  0.0869
  111SAPE  H13X11588   2.220   0.256   3.622  0.1665  0.0269 -0.3713
  111SAPE  H13Y11589   2.393   0.227   3.604 -0.8720  0.2560  2.9738
  111SAPE  C31411590   2.260   0.044   3.619  0.1000  0.2167  0.4312
  111SAPE  H14X11591   2.169   0.006   3.568  0.8764  3.4537 -3.6833
  111SAPE  H14Y11592   2.251   0.041   3.730 -1.0545 -0.1677  0.3288
  111SAPE  C31511593   2.363  -0.068   3.583  0.1746 -0.3456  0.0115
  111SAPE  H15X11594   2.365  -0.048   3.474 -1.3353  1.2890  0.2442
  111SAPE  H15Y11595   2.307  -0.163   3.596  0.2578 -0.0841  2.5066
  111SAPE  C31611596   2.490  -0.079   3.658  0.2204 -0.0136 -0.7641
  111SAPE  H16X11597   2.475  -0.100   3.766  0.0172  0.9653 -0.6019
  111SAPE  H16Y11598   2.535   0.022   3.651 -1.3094  0.6171 -1.8059
  111SAPE  C31711599   2.589  -0.187   3.610  0.2894 -0.5667  0.0389
  111SAPE  H17X11600   2.557  -0.293   3.624  1.1988 -0.9700 -0.8191
  111SAPE  H17Y11601   2.677  -0.173   3.676  0.4043  1.5633 -0.5326
  111SAPE  C31811602   2.646  -0.173   3.468  0.9296  0.3991 -0.2581
  111SAPE  H18X11603   2.729  -0.243   3.447 -0.1540 -0.8483 -0.4672
  111SAPE  H18Y11604   2.674  -0.067   3.449 -0.3700  0.8119  0.0648
  111SAPE  H18Z11605   2.563  -0.199   3.399  1.4944 -2.7929  0.1674
  112SAPE     N11606   6.787   5.163   2.034  0.2503 -0.3396  0.0120
  112SAPE   HN111607   6.795   5.236   1.961 -0.0536 -1.3713 -1.0692
  112SAPE   HN211608   6.872   5.173   2.093  0.3865  0.8975 -0.3906
  112SAPE   HN311609   6.798   5.068   1.992  0.0336 -0.0820 -0.6390
  112SAPE   C1211610   6.666   5.170   2.117 -0.1253 -0.2405 -0.6269
  112SAPE  H12A11611   6.669   5.273   2.157  1.3929 -0.1907 -0.8528
  112SAPE  H12B11612   6.669   5.101   2.204 -1.5929  1.0638  0.4855
  112SAPE   C1111613   6.531   5.129   2.044 -0.7823  0.4309 -0.4153
  112SAPE  H11A11614   6.447   5.126   2.117  0.3614 -1.5935  0.8694
  112SAPE  H11B11615   6.536   5.024   2.010 -0.4034  0.9036 -1.8831
  112SAPE     P11616   6.448   5.340   1.918  0.1758 -0.2195 -0.3212
  112SAPE   O1311617   6.526   5.433   1.828 -0.0214  0.3306 -0.1022
  112SAPE   O1411618   6.304   5.319   1.895 -0.4356  0.1862 -0.4392
  112SAPE   O1211619   6.510   5.201   1.920 -0.0475  0.1667  0.3991
  112SAPE   O1111620   6.472   5.380   2.075  0.3319  0.7343 -0.0835
  112SAPE    C111621   6.428   5.502   2.128  0.5672 -0.2484 -0.3988
  112SAPE    HA11622   6.496   5.586   2.101 -1.4809  1.2567 -0.9759
  112SAPE    HB11623   6.329   5.527   2.085 -0.7555 -1.1341  2.0247
  112SAPE    C211624   6.412   5.511   2.282 -0.4696  0.6984 -0.4164
  112SAPE    HS11625   6.323   5.572   2.309  0.3861  0.7285  2.4473
  112SAPE   O2111626   6.529   5.555   2.357 -0.4336 -0.6439 -0.5798
  112SAPE   C2111627   6.524   5.681   2.381 -0.1921 -0.3367 -0.1390
  112SAPE   O2211628   6.435   5.758   2.344 -0.2212 -0.2608  0.3550
  112SAPE   C2211629   6.649   5.719   2.461 -0.9005 -0.2455  0.6707
  112SAPE   H2R11630   6.729   5.686   2.392 -1.1587 -1.2662  0.8483
  112SAPE   H2S11631   6.656   5.830   2.469  0.9944 -0.3920  1.2435
  112SAPE    C311632   6.381   5.365   2.330  0.2689  0.0152  0.6380
  112SAPE    HX11633   6.475   5.312   2.307  0.5473  0.4835  0.6976
  112SAPE    HY11634   6.291   5.343   2.268  0.6523  0.4543 -0.0737
  112SAPE   O3111635   6.348   5.367   2.471  0.1645 -0.5352  0.0181
  112SAPE   C3111636   6.427   5.307   2.554 -0.4929  0.4383 -0.5557
  112SAPE   O3211637   6.525   5.237   2.527 -0.4508  0.0764 -0.2108
  112SAPE   C3211638   6.365   5.336   2.694  0.2581 -0.6344  0.1073
  112SAPE   H2X11639   6.277   5.268   2.701 -0.7056  0.7731  2.2175
  112SAPE   H2Y11640   6.335   5.443   2.700 -0.3261 -0.7757 -0.2813
  112SAPE   C2311641   6.663   5.657   2.604  0.0510  0.3152 -0.0303
  112SAPE   H3R11642   6.663   5.546   2.594 -1.2715  0.4406 -1.7670
  112SAPE   H3S11643   6.568   5.691   2.650 -0.0242  4.6254 -3.0614
  112SAPE   C2411644   6.785   5.710   2.675 -0.2305  0.2688  0.0995
  112SAPE   H4R11645   6.786   5.670   2.779 -1.7469 -2.9396 -1.0357
  112SAPE   H4S11646   6.775   5.820   2.681  1.2048  0.5274 -2.0376
  112SAPE   C2511647   6.911   5.674   2.608 -0.2861 -0.1413 -1.1896
  112SAPE   H5R11648   6.910   5.693   2.500  0.2720  3.5761 -0.5938
  112SAPE   C2611649   7.022   5.626   2.671  0.2471 -0.4181 -0.4709
  112SAPE   H6R11650   7.108   5.608   2.605 -0.2917 -1.3752 -0.9245
  112SAPE   C2711651   7.052   5.609   2.823  0.2375 -0.6684  0.0818
  112SAPE   H7R11652   7.011   5.698   2.875  2.5653  0.4346  0.0638
  112SAPE   H7S11653   7.162   5.599   2.823  0.6232  2.6309 -2.5576
  112SAPE   C2811654   6.997   5.477   2.874  0.5529  0.7806  0.0277
  112SAPE   H8R11655   6.949   5.400   2.812 -1.7756  1.7280  0.6068
  112SAPE   C2911656   7.004   5.452   3.007  0.3174  0.6600 -0.7674
  112SAPE   H9R11657   6.964   5.359   3.050  3.6980 -0.5943 -0.2047
  112SAPE  C21011658   7.067   5.552   3.099  1.4397  0.4216  0.6818
  112SAPE  H10R11659   7.134   5.627   3.051  3.7173 -2.1561 -0.2386
  112SAPE  H10S11660   7.147   5.496   3.150  2.8741  1.1471 -0.7420
  112SAPE  C21111661   6.976   5.616   3.196  0.5904  0.3063 -0.0856
  112SAPE  H11R11662   6.899   5.683   3.154  0.9293  0.3635 -0.6224
  112SAPE  C21211663   6.961   5.591   3.333  0.6934 -0.0257  0.0564
  112SAPE  H12R11664   6.891   5.652   3.391 -0.2666 -0.9224 -0.1467
  112SAPE  C21311665   7.044   5.493   3.415 -0.4870 -0.1769  0.2771
  112SAPE  H13R11666   7.093   5.423   3.344  0.6608  1.3436 -0.4870
  112SAPE  H13S11667   6.976   5.434   3.479 -0.5899  0.6176  0.9168
  112SAPE  C21411668   7.147   5.554   3.509 -0.2187 -0.1297  0.4164
  112SAPE  H14R11669   7.200   5.643   3.471  0.1813 -0.2301  0.7264
  112SAPE  C21511670   7.183   5.507   3.631 -0.6801 -1.0202 -0.2467
  112SAPE  H15R11671   7.270   5.543   3.688 -1.6164 -0.0903  0.6225
  112SAPE  C21611672   7.120   5.387   3.696  0.0813  0.3084  0.8275
  112SAPE  H16R11673   7.153   5.292   3.649  0.8253  0.4625  1.0372
  112SAPE  H16S11674   7.009   5.391   3.686  0.3057  0.0057 -2.1215
  112SAPE  C21711675   7.166   5.360   3.839 -0.0612  0.2863 -0.2925
  112SAPE  H17R11676   7.276   5.352   3.846 -0.2992 -2.3181  0.7361
  112SAPE  H17S11677   7.119   5.272   3.887 -0.2065  0.7205  0.3665
  112SAPE  C21811678   7.129   5.492   3.917  0.0267  0.5422  0.3845
  112SAPE  H18R11679   7.027   5.518   3.883  0.6155  0.5864 -1.3704
  112SAPE  H18S11680   7.191   5.581   3.897 -1.2967  1.3283 -0.3128
  112SAPE  C21911681   7.148   5.476   4.069 -0.4630 -0.5131 -0.3574
  112SAPE  H19R11682   7.094   5.387   4.108 -1.8700  0.6547  0.4060
  112SAPE  H19S11683   7.111   5.561   4.130 -0.9198 -2.4213  2.1099
  112SAPE  C22011684   7.294   5.449   4.104 -0.2369  0.0901  0.1464
  112SAPE  H20R11685   7.325   5.347   4.075  1.4007  0.8198 -0.7499
  112SAPE  H20S11686   7.313   5.460   4.213  0.2808  2.9232 -0.1844
  112SAPE  H20T11687   7.354   5.523   4.046  2.5297 -2.5002 -0.4148
  112SAPE   C3311688   6.463   5.298   2.804  0.0943  0.8998 -0.0567
  112SAPE   H3X11689   6.559   5.352   2.792  0.0000  0.7729 -1.4307
  112SAPE   H3Y11690   6.495   5.193   2.789 -0.2975  0.5507  1.4729
  112SAPE   C3411691   6.392   5.314   2.940  0.7869 -0.4171 -0.4486
  112SAPE   H4X11692   6.309   5.241   2.931  1.3364 -1.3532  1.7462
  112SAPE   H4Y11693   6.354   5.416   2.962  1.5046 -0.0934 -0.6710
  112SAPE   C3511694   6.483   5.279   3.059  0.2487 -0.1338 -0.4159
  112SAPE   H5X11695   6.583   5.327   3.061  0.8533 -1.4058  2.5894
  112SAPE   H5Y11696   6.500   5.169   3.058  1.5528  0.0556 -1.3217
  112SAPE   C3611697   6.412   5.317   3.198 -0.8493  0.7016  1.2416
  112SAPE   H6X11698   6.309   5.277   3.191  0.2837 -2.0768 -0.3978
  112SAPE   H6Y11699   6.398   5.427   3.192 -3.3062  0.3806  0.3309
  112SAPE   C3711700   6.492   5.264   3.318  0.2629  0.3181 -0.0093
  112SAPE   H7X11701   6.598   5.286   3.295  0.5063  0.0227  0.8403
  112SAPE   H7Y11702   6.480   5.154   3.311 -1.7352  0.2740  3.0248
  112SAPE   C3811703   6.451   5.319   3.452  0.1207 -0.4027  0.0642
  112SAPE   H8X11704   6.343   5.295   3.470  0.4959 -1.9916  0.2940
  112SAPE   H8Y11705   6.465   5.429   3.448 -0.3604 -0.3702 -0.8075
  112SAPE   C3911706   6.542   5.264   3.563  0.4458  0.3174 -0.3632
  112SAPE   H9X11707   6.647   5.279   3.531 -0.3243  1.9825 -2.2235
  112SAPE   H9Y11708   6.530   5.154   3.576 -0.5370  0.5565  0.8892
  112SAPE  C31011709   6.519   5.337   3.693 -0.0329 -0.0964  0.0088
  112SAPE  H10X11710   6.489   5.440   3.664 -1.5591 -0.8089 -1.0245
  112SAPE  H10Y11711   6.613   5.342   3.751  0.4083  0.9981 -0.7868
  112SAPE  C31111712   6.412   5.283   3.788 -0.7184  0.2684 -0.5039
  112SAPE  H11X11713   6.454   5.200   3.849 -0.9899  0.5052  0.0030
  112SAPE  H11Y11714   6.333   5.240   3.722  0.1939  1.9363 -2.7391
  112SAPE  C31211715   6.347   5.392   3.880  0.2977  0.0403  0.3964
  112SAPE  H12X11716   6.250   5.362   3.924  1.0628 -3.9287 -0.3868
  112SAPE  H12Y11717   6.316   5.471   3.808 -0.9187 -2.4727 -1.9061
  112SAPE  C31311718   6.437   5.433   4.001  0.6862 -0.1975 -0.0019
  112SAPE  H13X11719   6.534   5.474   3.966  1.0282 -0.7957  0.2514
  112SAPE  H13Y11720   6.446   5.351   4.075  2.1006 -0.7689 -0.7924
  112SAPE  C31411721   6.371   5.556   4.076  0.2062  0.2866  0.3235
  112SAPE  H14X11722   6.273   5.533   4.123 -0.2424  1.1330 -0.1829
  112SAPE  H14Y11723   6.340   5.635   4.004 -1.4219 -1.2082 -0.6463
  112SAPE  C31511724   6.467   5.609   4.183  0.1353 -0.4359 -0.1495
  112SAPE  H15X11725   6.519   5.521   4.227  0.1799  0.1547  0.9829
  112SAPE  H15Y11726   6.412   5.665   4.262  1.0205  0.5009 -0.1936
  112SAPE  C31611727   6.571   5.711   4.139  0.1081 -0.0408  0.7250
  112SAPE  H16X11728   6.648   5.664   4.073 -2.2549 -1.5408 -1.0267
  112SAPE  H16Y11729   6.634   5.744   4.225  0.9417  4.0441 -1.3451
  112SAPE  C31711730   6.507   5.839   4.086  0.1385  1.1925  0.1924
  112SAPE  H17X11731   6.435   5.877   4.162  1.9427 -0.5966  2.9277
  112SAPE  H17Y11732   6.446   5.798   4.003  0.8223  0.5282  0.0108
  112SAPE  C31811733   6.610   5.930   4.021 -0.2508  0.5754  0.6460
  112SAPE  H18X11734   6.671   5.879   3.944  1.0081  1.4342  1.0489
  112SAPE  H18Y11735   6.688   5.972   4.089 -1.3195  1.5462  1.2832
  112SAPE  H18Z11736   6.556   6.018   3.980 -1.6189 -0.3888  0.3598
  113SAPE     N11737   0.338   4.095   1.826  0.1080 -0.1012 -0.0085
  113SAPE   HN111738   0.258   4.090   1.893 -0.1000 -2.5016 -0.4173
  113SAPE   HN211739   0.380   4.000   1.829  1.3583  0.4613  0.4170
  113SAPE   HN311740   0.409   4.157   1.870 -0.7185  0.2378  0.8760
  113SAPE   C1211741   0.296   4.128   1.684  0.7180  0.0626 -0.4699
  113SAPE  H12A11742   0.233   4.045   1.647 -0.8765  0.3426  1.5035
  113SAPE  H12B11743   0.385   4.144   1.621 -0.5525 -1.3035 -2.6588
  113SAPE   C1111744   0.208   4.264   1.674 -0.4564 -0.6079 -0.4844
  113SAPE  H11A11745   0.171   4.264   1.569 -1.8817 -1.2062 -0.0003
  113SAPE  H11B11746   0.283   4.345   1.681  0.8058 -1.4861 -3.1857
  113SAPE     P11747   0.067   4.416   1.838 -0.0297  0.3539  0.0801
  113SAPE   O1311748   0.010   4.501   1.729  0.0078 -0.1050 -0.2497
  113SAPE   O1411749  -0.014   4.395   1.962 -0.1801 -0.5944 -0.2265
  113SAPE   O1211750   0.097   4.275   1.767 -0.2760 -0.0126  0.2068
  113SAPE   O1111751   0.212   4.467   1.880 -0.7983  0.0597  0.7450
  113SAPE    C111752   0.292   4.418   1.980  0.1733  0.1815 -0.7612
  113SAPE    HA11753   0.264   4.318   2.019  0.8354  0.0371 -0.6461
  113SAPE    HB11754   0.394   4.397   1.939  0.8127  0.8013  0.4975
  113SAPE    C211755   0.307   4.521   2.100  0.4780 -0.2801  0.3500
  113SAPE    HS11756   0.210   4.572   2.115 -0.1579 -0.2389 -3.5575
  113SAPE   O2111757   0.412   4.615   2.070 -0.7508 -0.3143 -0.2943
  113SAPE   C2111758   0.382   4.737   2.049 -0.1232  0.2453  0.3223
  113SAPE   O2211759   0.273   4.788   2.073 -0.1527  0.0029 -0.0678
  113SAPE   C2211760   0.514   4.819   2.022 -0.3152 -0.4137  0.2716
  113SAPE   H2R11761   0.577   4.752   1.958  0.7450  1.0730 -0.2557
  113SAPE   H2S11762   0.475   4.899   1.956 -0.5173 -1.7290 -1.2467
  113SAPE    C311763   0.350   4.443   2.231  0.1464  0.3249  0.1052
  113SAPE    HX11764   0.447   4.390   2.218  0.1186 -0.1966  1.8001
  113SAPE    HY11765   0.278   4.359   2.243  1.5187 -0.7187  1.3353
  113SAPE   O3111766   0.334   4.537   2.343  0.3639 -0.3468 -0.7414
  113SAPE   C3111767   0.454   4.601   2.375 -0.1533  0.7305 -0.0851
  113SAPE   O3211768   0.556   4.593   2.307 -0.1999  0.2489  0.0268
  113SAPE   C3211769   0.439   4.668   2.510 -0.2412 -0.3376  0.4844
  113SAPE   H2X11770   0.349   4.732   2.507  1.0493  1.4139 -1.8494
  113SAPE   H2Y11771   0.520   4.744   2.514 -0.1777 -0.2572 -1.8486
  113SAPE   C2311772   0.593   4.889   2.136 -0.2016 -0.5711 -0.0773
  113SAPE   H3R11773   0.670   4.956   2.092  1.7124 -1.1364  2.2844
  113SAPE   H3S11774   0.639   4.808   2.197  1.3923 -1.2080 -2.0788
  113SAPE   C2411775   0.506   4.975   2.235 -0.2788 -0.5885 -0.0233
  113SAPE   H4R11776   0.445   4.909   2.301 -0.1737 -0.8071 -0.1452
  113SAPE   H4S11777   0.432   5.035   2.178  1.1748 -0.5230 -1.8531
  113SAPE   C2511778   0.594   5.058   2.322 -0.7443 -0.1351  0.2339
  113SAPE   H5R11779   0.676   5.098   2.261 -1.4620  0.8087 -0.1188
  113SAPE   C2611780   0.580   5.085   2.453 -0.1755  0.5344  0.7684
  113SAPE   H6R11781   0.662   5.141   2.500  1.0925 -0.0403 -0.7061
  113SAPE   C2711782   0.476   5.031   2.553  0.4757  0.2032 -0.0895
  113SAPE   H7R11783   0.491   4.928   2.591 -2.1887  0.0117  0.5067
  113SAPE   H7S11784   0.377   5.033   2.502 -0.4775  2.4314  1.7348
  113SAPE   C2811785   0.466   5.127   2.664 -0.2701  0.2327  0.0577
  113SAPE   H8R11786   0.400   5.214   2.654  2.0486  1.9097 -1.3203
  113SAPE   C2911787   0.521   5.104   2.785  0.5265  0.3567 -0.2125
  113SAPE   H9R11788   0.522   5.190   2.854  2.7537 -0.0958  0.3490
  113SAPE  C21011789   0.598   4.975   2.822 -0.4719 -0.1678  0.5017
  113SAPE  H10R11790   0.684   4.948   2.756 -0.0103  2.5943 -0.1085
  113SAPE  H10S11791   0.523   4.898   2.795  0.3473 -2.2084  3.8162
  113SAPE  C21111792   0.613   4.955   2.968  0.1004 -1.4156  0.7286
  113SAPE  H11R11793   0.634   5.051   3.016  0.0545  0.6352 -3.1028
  113SAPE  C21211794   0.616   4.835   3.033  0.4700 -0.6691  0.1317
  113SAPE  H12R11795   0.627   4.815   3.141 -0.4358  2.5984  0.8784
  113SAPE  C21311796   0.593   4.699   2.967 -0.4293  0.1523 -0.1820
  113SAPE  H13R11797   0.658   4.695   2.877  0.7972 -0.9949  0.7408
  113SAPE  H13S11798   0.490   4.674   2.932  0.5478 -0.0049 -3.1320
  113SAPE  C21411799   0.652   4.590   3.051  0.2667 -0.6485 -0.8574
  113SAPE  H14R11800   0.761   4.578   3.045  0.2226 -1.4301 -0.1911
  113SAPE  C21511801   0.576   4.486   3.096  0.0211 -0.5951 -0.0018
  113SAPE  H15R11802   0.622   4.403   3.150 -1.1322 -0.5752  1.0273
  113SAPE  C21611803   0.426   4.471   3.081  0.3967 -0.5781  0.5567
  113SAPE  H16R11804   0.402   4.399   3.000 -0.5365  0.4047 -0.0644
  113SAPE  H16S11805   0.375   4.566   3.053  1.8772 -0.6608 -2.6662
  113SAPE  C21711806   0.366   4.419   3.214 -1.0302  0.5801 -0.5596
  113SAPE  H17R11807   0.364   4.505   3.284  2.0206  1.8502 -1.9685
  113SAPE  H17S11808   0.429   4.344   3.267  0.8769  1.7187 -1.1830
  113SAPE  C21811809   0.223   4.357   3.200  0.0207 -0.1733  0.1959
  113SAPE  H18R11810   0.224   4.272   3.129 -1.9228 -1.4616  1.6847
  113SAPE  H18S11811   0.158   4.438   3.160  0.8151  0.1026 -0.5451
  113SAPE  C21911812   0.168   4.304   3.332 -0.1032 -0.5004  0.1982
  113SAPE  H19R11813   0.176   4.389   3.403 -4.2784 -0.1283  0.3899
  113SAPE  H19S11814   0.238   4.226   3.369  1.2445 -0.8860 -2.9662
  113SAPE  C22011815   0.031   4.248   3.327 -0.3272 -0.5351  0.3340
  113SAPE  H20R11816  -0.020   4.277   3.234  2.3262  1.6483 -0.4862
  113SAPE  H20S11817  -0.032   4.270   3.416 -1.3897  1.0596 -0.7947
  113SAPE  H20T11818   0.040   4.137   3.320 -1.1022 -0.6108  0.4862
  113SAPE   C3311819   0.445   4.559   2.622  0.1689  0.5657 -0.1348
  113SAPE   H3X11820   0.358   4.494   2.599 -0.0369  0.6128  0.4906
  113SAPE   H3Y11821   0.434   4.602   2.724 -0.5733  1.6459 -0.6659
  113SAPE   C3411822   0.572   4.476   2.619 -0.5158 -0.2598 -0.2298
  113SAPE   H4X11823   0.656   4.531   2.666 -1.2674  0.1921  0.5980
  113SAPE   H4Y11824   0.605   4.457   2.515  0.7099 -2.1620  0.4871
  113SAPE   C3511825   0.547   4.341   2.691 -0.1202  0.5007 -0.5321
  113SAPE   H5X11826   0.463   4.280   2.654 -0.0671 -0.2509  0.5493
  113SAPE   H5Y11827   0.520   4.372   2.794 -1.1620 -2.1871  0.0296
  113SAPE   C3611828   0.677   4.253   2.673  0.5743  0.4156  0.3323
  113SAPE   H6X11829   0.764   4.303   2.721  2.9687 -1.3654 -1.9591
  113SAPE   H6Y11830   0.700   4.243   2.565 -1.3874  1.7843 -0.2350
  113SAPE   C3711831   0.662   4.110   2.735  0.1949 -0.3596 -0.0590
  113SAPE   H7X11832   0.753   4.048   2.715 -0.1302 -1.6120  2.2022
  113SAPE   H7Y11833   0.577   4.057   2.687  0.2957 -0.4012 -0.1926
  113SAPE   C3811834   0.636   4.109   2.882 -0.0491 -0.1964  0.0935
  113SAPE   H8X11835   0.722   4.157   2.934 -0.8361  2.1546 -0.7352
  113SAPE   H8Y11836   0.548   4.174   2.901  1.4301  2.0270 -0.4951
  113SAPE   C3911837   0.614   3.969   2.926  0.4905 -0.4130  0.1924
  113SAPE   H9X11838   0.701   3.906   2.896  0.0186 -2.3777  2.7435
  113SAPE   H9Y11839   0.522   3.917   2.890  1.3612 -1.2880 -0.8429
  113SAPE  C31011840   0.605   3.957   3.079 -0.2608 -0.4487 -0.9510
  113SAPE  H10X11841   0.694   4.007   3.123 -1.6116 -0.0184  1.3997
  113SAPE  H10Y11842   0.605   3.849   3.105  3.2873  0.1198  1.9142
  113SAPE  C31111843   0.476   4.016   3.139  0.2206  0.5366 -1.0640
  113SAPE  H11X11844   0.392   3.966   3.086 -0.4319  1.0253 -0.5068
  113SAPE  H11Y11845   0.476   4.116   3.089 -0.9724  0.9726 -0.2202
  113SAPE  C31211846   0.466   4.020   3.289  0.3404 -0.0518  0.1392
  113SAPE  H12X11847   0.426   4.121   3.314 -0.5852 -0.0933 -1.0850
  113SAPE  H12Y11848   0.566   4.007   3.336  0.0788 -2.3380  0.1118
  113SAPE  C31311849   0.369   3.924   3.342 -0.3923  0.6614 -0.8604
  113SAPE  H13X11850   0.409   3.822   3.323 -0.6119  0.3187  0.4360
  113SAPE  H13Y11851   0.274   3.928   3.285 -0.2257 -2.5574 -1.4267
  113SAPE  C31411852   0.335   3.947   3.489 -0.1027  0.2313  0.0643
  113SAPE  H14X11853   0.290   4.047   3.503  1.2970  0.8504  0.1753
  113SAPE  H14Y11854   0.432   3.958   3.542  0.1695  2.8709 -0.9286
  113SAPE  C31511855   0.238   3.847   3.561 -0.1469 -0.2137  0.1340
  113SAPE  H15X11856   0.259   3.844   3.670 -1.9217  0.8990  0.5372
  113SAPE  H15Y11857   0.264   3.745   3.527  1.9340 -0.0923  1.3214
  113SAPE  C31611858   0.092   3.894   3.542  0.5459  1.0478 -0.4902
  113SAPE  H16X11859   0.057   3.887   3.437  1.4220 -4.9693 -0.5556
  113SAPE  H16Y11860   0.093   4.004   3.561  1.8575  0.7195  1.6690
  113SAPE  C31711861  -0.003   3.811   3.635 -0.0400 -0.1209 -0.1826
  113SAPE  H17X11862  -0.107   3.846   3.651  0.4092  1.4645 -0.6497
  113SAPE  H17Y11863   0.032   3.797   3.739 -1.6429 -2.1001  0.1220
  113SAPE  C31811864  -0.008   3.660   3.576  0.5001 -0.1022 -0.9188
  113SAPE  H18X11865  -0.115   3.631   3.581  0.6683 -0.6900 -0.6301
  113SAPE  H18Y11866   0.046   3.581   3.633 -2.1033 -1.4143 -0.1772
  113SAPE  H18Z11867   0.033   3.666   3.473  2.2074  0.7666 -0.2133
  114SAPE     N11868   3.037   6.393   1.977  0.0910 -0.0412 -0.3126
  114SAPE   HN111869   3.080   6.345   2.058 -1.4531 -0.1785  0.4366
  114SAPE   HN211870   3.119   6.407   1.914 -0.3500  1.0532 -0.6555
  114SAPE   HN311871   2.986   6.479   2.004 -0.2654 -0.7185  1.1705
  114SAPE   C1211872   2.944   6.302   1.898  0.3501  0.2818  0.4973
  114SAPE  H12A11873   2.977   6.197   1.914 -2.6035 -0.5312  1.6349
  114SAPE  H12B11874   2.959   6.325   1.790 -0.4694 -0.3256  0.2515
  114SAPE   C1111875   2.799   6.323   1.939  0.3278  0.4547 -0.4118
  114SAPE  H11A11876   2.780   6.308   2.048 -1.3717 -1.4688 -0.9503
  114SAPE  H11B11877   2.748   6.237   1.891  0.6745 -0.4485  0.7781
  114SAPE     P11878   2.712   6.565   1.991  0.3549  0.1244  0.1297
  114SAPE   O1311879   2.842   6.611   2.039  0.1765 -0.3201 -0.4212
  114SAPE   O1411880   2.611   6.667   1.936  0.6101 -0.0256  0.2108
  114SAPE   O1211881   2.746   6.449   1.887 -0.7169  0.2908 -0.0611
  114SAPE   O1111882   2.633   6.491   2.110 -0.4231 -0.5113  0.5693
  114SAPE    C111883   2.526   6.396   2.090  0.7005 -0.2968 -0.1005
  114SAPE    HA11884   2.496   6.385   1.983 -3.6521  0.9170  0.8811
  114SAPE    HB11885   2.543   6.298   2.139 -0.1067 -0.2203  0.3419
  114SAPE    C211886   2.392   6.468   2.138 -0.0272 -0.6125 -0.1097
  114SAPE    HS11887   2.385   6.563   2.080  2.1251  0.6549  1.6150
  114SAPE   O2111888   2.395   6.487   2.281  0.0816 -0.0089  0.5653
  114SAPE   C2111889   2.328   6.587   2.322 -0.2271 -0.0315  0.1998
  114SAPE   O2211890   2.241   6.646   2.258  0.2595 -0.0745  0.0031
  114SAPE   C2211891   2.359   6.600   2.476 -0.0488 -0.1038  0.2382
  114SAPE   H2R11892   2.319   6.504   2.515  0.9154 -0.8833 -0.6576
  114SAPE   H2S11893   2.468   6.595   2.499  0.1665 -1.0335 -0.8970
  114SAPE    C311894   2.275   6.376   2.101 -0.2781  0.6945 -0.4321
  114SAPE    HX11895   2.267   6.356   1.992  0.9998 -1.4393 -0.1697
  114SAPE    HY11896   2.175   6.418   2.123  0.0168  0.5597  1.2622
  114SAPE   O3111897   2.294   6.244   2.165  0.8737  0.0300 -0.2321
  114SAPE   C3111898   2.190   6.196   2.230 -0.1686 -0.4674 -0.1364
  114SAPE   O3211899   2.073   6.242   2.224 -0.3794  0.7454 -0.2700
  114SAPE   C3211900   2.233   6.067   2.300 -0.2956 -0.0732 -1.0721
  114SAPE   H2X11901   2.341   6.055   2.279 -0.6301 -1.9015 -1.7846
  114SAPE   H2Y11902   2.184   5.989   2.239  0.2995 -1.0414 -0.3320
  114SAPE   C2311903   2.298   6.724   2.543  0.7530 -0.7812  0.1017
  114SAPE   H3R11904   2.192   6.731   2.510  0.6387 -1.5393  0.3008
  114SAPE   H3S11905   2.354   6.813   2.507 -0.6787 -0.3242 -1.0190
  114SAPE   C2411906   2.305   6.721   2.704  0.2711  0.4245 -1.0184
  114SAPE   H4R11907   2.410   6.707   2.738  0.4194  1.1421 -1.1851
  114SAPE   H4S11908   2.254   6.630   2.743  0.0994  0.8353 -0.2747
  114SAPE   C2511909   2.247   6.850   2.767 -0.0552  0.1226  0.4894
  114SAPE   H5R11910   2.304   6.937   2.733 -0.9271  0.6116  0.2631
  114SAPE   C2611911   2.142   6.857   2.850  0.0495 -0.4535  0.4324
  114SAPE   H6R11912   2.122   6.954   2.897 -0.0206 -0.6777  0.8666
  114SAPE   C2711913   2.055   6.746   2.906 -0.5922  0.2820 -0.0516
  114SAPE   H7R11914   2.111   6.692   2.985 -0.2370  0.4814 -0.1678
  114SAPE   H7S11915   2.051   6.668   2.827 -0.9751  1.7183 -1.4852
  114SAPE   C2811916   1.911   6.774   2.949 -0.7734 -0.3664  0.2507
  114SAPE   H8R11917   1.832   6.764   2.874 -1.5650 -2.2938  1.3098
  114SAPE   C2911918   1.867   6.786   3.075 -0.6452 -0.5354  0.0506
  114SAPE   H9R11919   1.758   6.779   3.091 -0.7529  1.3169  0.2531
  114SAPE  C21011920   1.946   6.753   3.196  0.3686 -0.1306  0.2241
  114SAPE  H10R11921   2.049   6.716   3.177  0.1099  0.5416 -2.7161
  114SAPE  H10S11922   1.884   6.670   3.238  0.2764  0.0655  0.4768
  114SAPE  C21111923   1.961   6.865   3.295 -0.7867 -0.6454  0.0796
  114SAPE  H11R11924   2.016   6.950   3.251 -1.0032 -0.6049 -0.1121
  114SAPE  C21211925   1.889   6.883   3.409 -0.5457  0.7688 -0.0411
  114SAPE  H12R11926   1.918   6.963   3.479 -0.8587  1.3147 -0.5242
  114SAPE  C21311927   1.785   6.789   3.465 -0.8489 -0.5902  0.0958
  114SAPE  H13R11928   1.743   6.723   3.385  0.9733  0.1688 -1.5216
  114SAPE  H13S11929   1.690   6.837   3.496 -0.5769 -1.6061  2.6129
  114SAPE  C21411930   1.837   6.703   3.574 -0.4770  0.0305 -0.6743
  114SAPE  H14R11931   1.863   6.601   3.543  1.6780 -0.6270  3.1086
  114SAPE  C21511932   1.869   6.730   3.700 -0.0566 -0.6032 -0.1666
  114SAPE  H15R11933   1.938   6.665   3.755  0.8220 -0.1682 -0.7318
  114SAPE  C21611934   1.851   6.861   3.769  0.0867 -1.3751  0.2595
  114SAPE  H16R11935   1.770   6.866   3.844 -0.0541 -1.3175  0.1051
  114SAPE  H16S11936   1.824   6.938   3.693  1.3822 -2.9173 -1.8216
  114SAPE  C21711937   1.986   6.910   3.836  0.0325  0.6824 -0.0024
  114SAPE  H17R11938   1.977   7.010   3.884  2.3620  0.6080  0.6147
  114SAPE  H17S11939   2.059   6.929   3.755 -0.5541  0.2051 -0.6470
  114SAPE  C21811940   2.049   6.813   3.941  0.2104  0.1239 -0.8593
  114SAPE  H18R11941   2.101   6.726   3.895  3.6275  2.0529 -0.7727
  114SAPE  H18S11942   1.970   6.781   4.013 -0.5583 -0.1435 -1.8103
  114SAPE  C21911943   2.140   6.891   4.037  0.3374 -0.0205  0.1308
  114SAPE  H19R11944   2.173   6.816   4.112 -1.4483 -1.2884 -0.3480
  114SAPE  H19S11945   2.077   6.956   4.101 -0.0802 -2.4234  2.2124
  114SAPE  C22011946   2.257   6.972   3.980  0.8805  0.4123  0.7657
  114SAPE  H20R11947   2.294   7.044   4.056  0.2398 -1.0238  2.4707
  114SAPE  H20S11948   2.222   7.032   3.893  1.1488 -0.4599  0.0455
  114SAPE  H20T11949   2.342   6.908   3.948  1.6122  0.8921  1.7427
  114SAPE   C3311950   2.209   6.063   2.453 -0.4613 -0.6849  0.6894
  114SAPE   H3X11951   2.237   5.965   2.497  0.9075  0.0340  1.4176
  114SAPE   H3Y11952   2.101   6.074   2.476 -0.5984  0.3776 -0.4023
  114SAPE   C3411953   2.295   6.161   2.545  0.3403  0.1629 -0.2842
  114SAPE   H4X11954   2.257   6.259   2.510 -2.0290 -0.7809 -0.4306
  114SAPE   H4Y11955   2.401   6.167   2.510  0.5242  1.6992  0.4996
  114SAPE   C3511956   2.277   6.160   2.697  0.2206  0.1142  0.1477
  114SAPE   H5X11957   2.311   6.058   2.725 -0.6864  0.0304  0.9591
  114SAPE   H5Y11958   2.169   6.169   2.723 -0.0275 -1.9164 -0.0737
  114SAPE   C3611959   2.353   6.275   2.758 -0.1630  0.2115  0.3483
  114SAPE   H6X11960   2.302   6.368   2.724 -0.1269  0.0020 -0.2927
  114SAPE   H6Y11961   2.461   6.276   2.732 -0.0103  0.8005  0.9834
  114SAPE   C3711962   2.343   6.288   2.912  0.2468 -0.3038  0.2523
  114SAPE   H7X11963   2.418   6.366   2.939  1.2982  0.1610 -3.7362
  114SAPE   H7Y11964   2.392   6.192   2.941  1.2887 -0.2050 -1.1204
  114SAPE   C3811965   2.210   6.305   2.973  0.1630  0.3242 -0.4192
  114SAPE   H8X11966   2.167   6.205   2.952 -1.1290  0.7269  0.2470
  114SAPE   H8Y11967   2.144   6.378   2.921 -1.6010  0.2408  1.6269
  114SAPE   C3911968   2.216   6.322   3.124 -0.0413  0.0038  0.3096
  114SAPE   H9X11969   2.299   6.388   3.159  1.8004 -1.9015 -0.3474
  114SAPE   H9Y11970   2.233   6.221   3.167  1.3333 -0.0300 -0.2834
  114SAPE  C31011971   2.083   6.375   3.183  0.2526  0.1427  0.6710
  114SAPE  H10X11972   2.008   6.332   3.114 -0.6736 -0.6035  2.1156
  114SAPE  H10Y11973   2.089   6.486   3.181 -2.2316  0.3827  3.2713
  114SAPE  C31111974   2.069   6.335   3.337  0.1919  0.2256  0.6582
  114SAPE  H11X11975   2.132   6.397   3.404 -0.9312  0.3250  1.6523
  114SAPE  H11Y11976   2.109   6.232   3.352  0.3068  0.2790  0.7135
  114SAPE  C31211977   1.926   6.337   3.390 -0.0297  0.1597  0.4041
  114SAPE  H12X11978   1.872   6.270   3.319 -1.5133 -0.8579  2.4247
  114SAPE  H12Y11979   1.888   6.441   3.378 -0.4767 -0.1223 -0.7423
  114SAPE  C31311980   1.922   6.297   3.536 -0.6264  0.2010  0.0517
  114SAPE  H13X11981   1.988   6.369   3.589 -1.5878  0.0828  1.4354
  114SAPE  H13Y11982   1.973   6.198   3.546 -2.3886 -0.6456  0.9142
  114SAPE  C31411983   1.782   6.285   3.594 -0.4259 -0.2737 -0.4096
  114SAPE  H14X11984   1.732   6.203   3.537 -2.1060  0.9381 -0.7205
  114SAPE  H14Y11985   1.724   6.379   3.587  0.0568  0.2123  1.9630
  114SAPE  C31511986   1.785   6.259   3.744 -0.4328 -0.0322  0.0092
  114SAPE  H15X11987   1.849   6.168   3.751 -1.0084 -0.4179  0.3197
  114SAPE  H15Y11988   1.684   6.245   3.789  0.0721 -0.1186  1.1353
  114SAPE  C31611989   1.854   6.373   3.830  0.3188 -0.2026  0.1709
  114SAPE  H16X11990   1.791   6.463   3.812 -0.6823 -0.8376  0.4379
  114SAPE  H16Y11991   1.954   6.394   3.786 -0.1762  2.6380  0.2764
  114SAPE  C31711992   1.853   6.335   3.976  0.0142  0.2021 -0.5615
  114SAPE  H17X11993   1.918   6.246   3.991  0.3483  0.3595 -1.0411
  114SAPE  H17Y11994   1.748   6.305   3.996 -0.1553  0.7415 -0.6310
  114SAPE  C31811995   1.913   6.433   4.071  0.0449  0.0147 -0.1847
  114SAPE  H18X11996   1.850   6.525   4.074  0.8733  0.5712  0.3739
  114SAPE  H18Y11997   2.013   6.464   4.036 -0.3775  1.2095 -0.3495
  114SAPE  H18Z11998   1.928   6.403   4.177 -0.1463 -0.9558 -0.4257
  115SAPE     N11999   0.248   5.662   1.722  0.5537 -0.6538  0.0635
  115SAPE   HN112000   0.207   5.571   1.694  1.2451 -0.6224 -1.0462
  115SAPE   HN212001   0.185   5.735   1.684  1.7530  1.0189  1.2258
  115SAPE   HN312002   0.339   5.673   1.674  0.0895 -1.4962 -1.0178
  115SAPE   C1212003   0.245   5.676   1.872 -0.3818  0.0093  0.4760
  115SAPE  H12A12004   0.284   5.778   1.895  1.1567 -0.3297 -0.5124
  115SAPE  H12B12005   0.321   5.607   1.915 -2.0198 -1.0105  1.7615
  115SAPE   C1112006   0.110   5.633   1.926 -0.3009 -0.3621  0.0778
  115SAPE  H11A12007   0.110   5.652   2.036  3.0523  3.9206 -0.4912
  115SAPE  H11B12008   0.106   5.524   1.908 -1.3150  0.1201 -2.9477
  115SAPE     P12009  -0.062   5.811   1.878  0.1271 -0.0204  0.2233
  115SAPE   O1312010   0.040   5.912   1.924  0.3209  0.1738 -0.0964
  115SAPE   O1412011  -0.135   5.842   1.755  0.2936 -0.2197 -0.2568
  115SAPE   O1212012   0.007   5.674   1.841 -0.4797  0.0934  0.2859
  115SAPE   O1112013  -0.160   5.770   1.994  0.3061  0.2386  0.4269
  115SAPE    C112014  -0.228   5.645   1.976 -0.2423 -0.2517  0.2309
  115SAPE    HA12015  -0.286   5.646   1.881 -0.6399  1.2735  0.4747
  115SAPE    HB12016  -0.160   5.558   1.963  0.3595  0.3885 -1.0123
  115SAPE    C212017  -0.340   5.616   2.084  0.4654  0.2074  0.2479
  115SAPE    HS12018  -0.423   5.554   2.043  0.1124 -0.0892  1.3981
  115SAPE   O2112019  -0.400   5.733   2.141  0.0741 -0.6524 -0.0657
  115SAPE   C2112020  -0.463   5.812   2.051 -0.0991 -0.1953 -0.4446
  115SAPE   O2212021  -0.489   5.782   1.938 -0.0695 -0.9183  0.1222
  115SAPE   C2212022  -0.499   5.941   2.121  0.2235 -0.6321  0.8049
  115SAPE   H2R12023  -0.586   5.986   2.068  2.2975  2.8026  0.1406
  115SAPE   H2S12024  -0.536   5.903   2.219 -0.1465  0.7088  1.1976
  115SAPE    C312025  -0.276   5.533   2.197  0.0777  0.1938 -0.3608
  115SAPE    HX12026  -0.229   5.449   2.142  2.8798  2.2526 -1.2145
  115SAPE    HY12027  -0.351   5.494   2.269  0.7441 -1.5445 -0.5738
  115SAPE   O3112028  -0.171   5.612   2.261  0.8010  0.5486  0.0898
  115SAPE   C3112029  -0.047   5.565   2.271  0.0837 -0.1897 -0.0548
  115SAPE   O3212030   0.003   5.467   2.229  0.1520  0.1021  0.0036
  115SAPE   C3212031   0.038   5.679   2.335 -0.1240 -0.1590 -0.3853
  115SAPE   H2X12032  -0.021   5.710   2.424 -1.7018 -0.6984 -1.2101
  115SAPE   H2Y12033   0.046   5.764   2.265 -0.0426 -0.2445 -0.4805
  115SAPE   C2312034  -0.390   6.043   2.141 -0.4409  0.0414 -0.5590
  115SAPE   H3R12035  -0.428   6.139   2.183  2.2195  0.5598  0.8079
  115SAPE   H3S12036  -0.345   6.073   2.044 -1.1553  3.1568 -0.0093
  115SAPE   C2412037  -0.289   5.988   2.244 -0.9067 -0.8415  0.1753
  115SAPE   H4R12038  -0.235   5.904   2.197 -2.4904 -2.0132  0.4113
  115SAPE   H4S12039  -0.340   5.940   2.331 -1.3810 -0.2584  0.2209
  115SAPE   C2512040  -0.187   6.091   2.285 -0.2016 -0.0877  0.2198
  115SAPE   H5R12041  -0.130   6.151   2.213  1.3699  0.8343  2.1713
  115SAPE   C2612042  -0.167   6.130   2.417  0.5139 -0.3986  0.1502
  115SAPE   H6R12043  -0.108   6.219   2.443  0.0179  0.7931 -2.5859
  115SAPE   C2712044  -0.227   6.094   2.548 -0.4474  0.2178  0.1254
  115SAPE   H7R12045  -0.324   6.039   2.544 -1.2954  1.6742  0.5446
  115SAPE   H7S12046  -0.245   6.184   2.610 -2.3508 -0.1167  0.0884
  115SAPE   C2812047  -0.131   6.004   2.618 -0.1885  0.4177  0.5869
  115SAPE   H8R12048  -0.070   5.938   2.555 -0.6693 -2.0569  2.6563
  115SAPE   C2912049  -0.095   6.011   2.747  0.4027  0.5186 -0.3243
  115SAPE   H9R12050  -0.027   5.930   2.776 -1.2234 -0.7615 -0.0047
  115SAPE  C21012051  -0.158   6.115   2.841 -1.0244  0.0180 -0.8497
  115SAPE  H10R12052  -0.165   6.214   2.791  2.1416  1.1701  0.8430
  115SAPE  H10S12053  -0.082   6.135   2.920 -0.2959 -1.4117 -1.1755
  115SAPE  C21112054  -0.296   6.093   2.889  0.2007  0.4138  0.0364
  115SAPE  H11R12055  -0.367   6.085   2.805  1.1646  0.3224 -0.7761
  115SAPE  C21212056  -0.339   6.083   3.016 -0.4649 -0.4159 -0.7452
  115SAPE  H12R12057  -0.446   6.068   3.037 -0.9346  1.4613 -1.7774
  115SAPE  C21312058  -0.254   6.082   3.144  1.0784  0.5819 -0.3049
  115SAPE  H13R12059  -0.322   6.075   3.233  1.3161  1.3029 -0.0654
  115SAPE  H13S12060  -0.219   6.187   3.152  0.0429  0.9396 -0.3856
  115SAPE  C21412061  -0.156   5.971   3.150 -0.5618  0.3375 -0.6390
  115SAPE  H14R12062  -0.155   5.913   3.057 -0.4605  0.8747 -0.9765
  115SAPE  C21512063  -0.064   5.955   3.252  0.1040  0.4827 -0.8116
  115SAPE  H15R12064   0.012   5.879   3.231 -0.7595 -0.5493 -0.2645
  115SAPE  C21612065  -0.047   6.040   3.380  0.5269  0.0443 -0.0488
  115SAPE  H16R12066  -0.126   6.118   3.380 -2.1246 -2.5451 -0.2935
  115SAPE  H16S12067   0.051   6.091   3.374 -0.8407  2.8410  0.4830
  115SAPE  C21712068  -0.053   5.959   3.508  0.1186  0.9402 -0.3069
  115SAPE  H17R12069   0.030   5.886   3.517 -0.1571  0.4830 -1.3017
  115SAPE  H17S12070  -0.153   5.910   3.513  0.1335  1.0549  1.3436
  115SAPE  C21812071  -0.045   6.048   3.634  0.3155  0.2997  0.5849
  115SAPE  H18R12072  -0.087   5.985   3.715  0.1037 -0.4340 -0.0896
  115SAPE  H18S12073  -0.101   6.143   3.620 -1.3217 -0.9408 -1.6813
  115SAPE  C21912074   0.092   6.096   3.672  0.0718 -0.9731 -0.4282
  115SAPE  H19R12075   0.125   6.183   3.612 -0.4592 -1.1031 -0.9134
  115SAPE  H19S12076   0.164   6.012   3.674  1.4087  0.1729  0.8388
  115SAPE  C22012077   0.089   6.161   3.817  0.0386 -0.1071  1.1308
  115SAPE  H20R12078   0.011   6.239   3.808 -0.4126 -0.5915  0.7735
  115SAPE  H20S12079   0.190   6.202   3.836 -0.8560  1.5444  2.3660
  115SAPE  H20T12080   0.062   6.092   3.900  0.8775 -2.0680 -0.1612
  115SAPE   C3312081   0.171   5.638   2.390  0.3148 -0.0322 -0.4419
  115SAPE   H3X12082   0.239   5.571   2.332 -1.0537 -2.4572  0.6552
  115SAPE   H3Y12083   0.148   5.569   2.475  2.6820 -3.0828 -2.1515
  115SAPE   C3412084   0.265   5.742   2.459 -0.5736  0.0859  0.6698
  115SAPE   H4X12085   0.367   5.699   2.462  0.1261  1.7643  1.7321
  115SAPE   H4Y12086   0.241   5.759   2.566 -1.1097  0.9671  0.4125
  115SAPE   C3512087   0.267   5.884   2.395 -0.0503 -0.2934  0.5709
  115SAPE   H5X12088   0.164   5.924   2.388  0.1189  0.4456  2.1655
  115SAPE   H5Y12089   0.309   5.859   2.295 -1.6674  0.9657 -0.4347
  115SAPE   C3612090   0.357   5.979   2.472  0.3381  0.1266  0.0645
  115SAPE   H6X12091   0.461   5.970   2.436  0.8425  0.7159  1.3478
  115SAPE   H6Y12092   0.357   5.947   2.578 -2.2802 -0.3192 -0.0298
  115SAPE   C3712093   0.310   6.125   2.450 -0.7541  0.6606 -0.4475
  115SAPE   H7X12094   0.248   6.151   2.361  0.7296  1.3774 -1.2971
  115SAPE   H7Y12095   0.406   6.180   2.435  0.1413 -0.6607  0.3495
  115SAPE   C3812096   0.244   6.185   2.573  0.0712  0.0814 -0.3136
  115SAPE   H8X12097   0.317   6.162   2.653 -1.6962  0.1221  1.3464
  115SAPE   H8Y12098   0.157   6.123   2.604  1.3313 -1.8433 -0.5262
  115SAPE   C3912099   0.227   6.338   2.581  0.1176  0.0991  0.2238
  115SAPE   H9X12100   0.139   6.355   2.515  0.1224  1.5458  0.5750
  115SAPE   H9Y12101   0.306   6.397   2.530  0.7324 -1.2050 -0.3494
  115SAPE  C31012102   0.212   6.389   2.725  0.1837  0.4115  0.1110
  115SAPE  H10X12103   0.308   6.400   2.781 -0.3532  0.8384  0.9581
  115SAPE  H10Y12104   0.169   6.307   2.787  0.8738  0.5893  0.8487
  115SAPE  C31112105   0.131   6.519   2.738  0.0885 -0.5652  0.2064
  115SAPE  H11X12106   0.028   6.489   2.709  1.0791 -0.6874 -3.4572
  115SAPE  H11Y12107   0.165   6.589   2.659  1.4575 -2.6815 -1.1564
  115SAPE  C31212108   0.141   6.581   2.877  0.3304  0.1076 -0.3657
  115SAPE  H12X12109   0.072   6.669   2.881  1.4877  1.0270 -0.3763
  115SAPE  H12Y12110   0.242   6.623   2.890 -0.2529  1.4748 -0.1399
  115SAPE  C31312111   0.120   6.489   2.999  0.9292 -0.0733 -0.2659
  115SAPE  H13X12112   0.188   6.401   2.993  0.0758 -0.8470  1.1296
  115SAPE  H13Y12113   0.014   6.459   2.987  1.0197 -0.3767 -0.3099
  115SAPE  C31412114   0.124   6.556   3.141  0.0908 -0.2691  0.3729
  115SAPE  H14X12115   0.064   6.649   3.130  0.8496  0.7671  4.0794
  115SAPE  H14Y12116   0.230   6.584   3.161  0.3123 -0.6283 -0.2899
  115SAPE  C31512117   0.058   6.467   3.251 -0.7490 -0.4088 -0.6914
  115SAPE  H15X12118   0.109   6.369   3.249 -0.3504 -0.2280  0.3596
  115SAPE  H15Y12119  -0.048   6.453   3.219 -0.5018 -0.1321 -1.6427
  115SAPE  C31612120   0.077   6.514   3.401 -0.9006 -0.2577 -0.6295
  115SAPE  H16X12121  -0.007   6.466   3.456 -0.2490 -0.4349  0.2217
  115SAPE  H16Y12122   0.067   6.624   3.407  0.7695  0.0145 -2.3562
  115SAPE  C31712123   0.210   6.460   3.463  0.4707  0.1890  1.1121
  115SAPE  H17X12124   0.233   6.355   3.433  1.6438  1.0204 -1.0682
  115SAPE  H17Y12125   0.204   6.459   3.574 -0.1593  0.2368  1.0775
  115SAPE  C31812126   0.335   6.545   3.440 -1.1253 -0.2722 -0.1096
  115SAPE  H18X12127   0.417   6.524   3.511 -0.8048  1.4646  0.0614
  115SAPE  H18Y12128   0.314   6.652   3.460 -0.3137  0.0756 -1.0421
  115SAPE  H18Z12129   0.386   6.531   3.342  1.7830 -0.5739  1.3864
  116SAPE     N12130   6.951   1.190   1.794 -0.2247 -0.4240  0.3424
  116SAPE   HN112131   6.979   1.264   1.861  0.5751  0.7521 -1.2501
  116SAPE   HN212132   6.970   1.101   1.844  0.1470  0.2328  1.3720
  116SAPE   HN312133   7.026   1.194   1.722 -0.4024 -0.1842  0.1704
  116SAPE   C1212134   6.812   1.204   1.732 -0.7642 -0.7061  0.0852
  116SAPE  H12A12135   6.803   1.118   1.663  2.2610 -1.9445  1.1127
  116SAPE  H12B12136   6.813   1.296   1.670  0.1780 -0.9541 -0.2773
  116SAPE   C1112137   6.708   1.213   1.840 -0.0770 -0.1474  0.7181
  116SAPE  H11A12138   6.701   1.124   1.907  0.8892 -0.7209  0.0644
  116SAPE  H11B12139   6.607   1.215   1.794  0.8279  1.3471 -1.2191
  116SAPE     P12140   6.607   1.403   1.986  0.0488  0.2440 -0.4268
  116SAPE   O1312141   6.593   1.534   1.929 -0.4324  0.0266  0.5784
  116SAPE   O1412142   6.491   1.314   1.991 -0.3388  0.1502  0.6931
  116SAPE   O1212143   6.728   1.328   1.920  0.0389 -0.0332 -0.8025
  116SAPE   O1112144   6.653   1.419   2.131  0.3532  0.3282  0.1462
  116SAPE    C112145   6.691   1.306   2.214 -0.5766  0.4683  0.4289
  116SAPE    HA12146   6.662   1.326   2.319  1.6109  0.8975  0.9624
  116SAPE    HB12147   6.621   1.227   2.178  1.5994 -0.4174 -2.0472
  116SAPE    C212148   6.843   1.276   2.216  0.3828 -0.7343 -0.6019
  116SAPE    HS12149   6.865   1.248   2.111 -2.5817 -0.1188 -1.4502
  116SAPE   O2112150   6.872   1.170   2.316  1.2570 -0.2936 -0.2701
  116SAPE   C2112151   6.849   1.047   2.282  0.0458  0.4536 -0.3093
  116SAPE   O2212152   6.802   1.001   2.179 -0.2511  0.7529  0.1012
  116SAPE   C2212153   6.891   0.954   2.401 -0.4599  0.1155  0.2173
  116SAPE   H2R12154   6.859   0.849   2.379 -0.9591  0.2460  0.2982
  116SAPE   H2S12155   7.001   0.952   2.408 -0.3376  1.3357 -1.1759
  116SAPE    C312156   6.937   1.398   2.253 -0.3351 -0.5482 -0.6002
  116SAPE    HX12157   6.920   1.481   2.181  3.6098  1.0397  0.1839
  116SAPE    HY12158   7.040   1.358   2.254 -0.1287 -0.0821  2.6235
  116SAPE   O3112159   6.912   1.449   2.388  0.5234  0.4703 -0.5939
  116SAPE   C3112160   6.860   1.561   2.409  0.0289  0.3381  0.2529
  116SAPE   O3212161   6.823   1.651   2.338 -0.1417 -0.1799  0.2049
  116SAPE   C3212162   6.834   1.583   2.560  0.2469 -0.1676  0.0018
  116SAPE   H2X12163   6.730   1.620   2.574  0.5289  0.2069  1.1282
  116SAPE   H2Y12164   6.900   1.664   2.598  1.0899 -1.1270  0.5867
  116SAPE   C2312165   6.838   1.009   2.539  0.1449 -0.0454  0.2140
  116SAPE   H3R12166   6.732   0.979   2.549  0.3109 -0.1228  1.8233
  116SAPE   H3S12167   6.845   1.119   2.542 -1.2087  0.0704 -0.5556
  116SAPE   C2412168   6.905   0.946   2.656  0.1773  0.1243  0.3646
  116SAPE   H4R12169   7.015   0.939   2.639  0.1763  0.0362  0.3843
  116SAPE   H4S12170   6.889   0.836   2.648  0.7388 -0.0003  0.8485
  116SAPE   C2512171   6.858   0.963   2.793 -0.4229  0.4085 -0.4834
  116SAPE   H5R12172   6.750   0.958   2.809 -0.8819  3.9682 -2.0998
  116SAPE   C2612173   6.941   0.987   2.894 -0.1579 -0.5599  0.3341
  116SAPE   H6R12174   6.905   1.020   2.993  1.7752  2.1976  0.1631
  116SAPE   C2712175   7.094   0.989   2.888  0.1379  0.2919 -0.4139
  116SAPE   H7R12176   7.141   1.086   2.863  2.3620 -0.9717 -1.3012
  116SAPE   H7S12177   7.137   0.924   2.809 -0.7342  0.4683 -1.0389
  116SAPE   C2812178   7.155   0.946   3.020 -0.3242  0.8244 -0.3729
  116SAPE   H8R12179   7.079   0.946   3.100 -1.3894 -1.4353 -1.3336
  116SAPE   C2912180   7.281   0.905   3.043  0.0070  0.2918 -0.4792
  116SAPE   H9R12181   7.315   0.896   3.147  1.4438 -1.7669 -1.0749
  116SAPE  C21012182   7.387   0.895   2.928 -0.5539  0.7588 -0.3117
  116SAPE  H10R12183   7.396   0.995   2.880 -1.9479  0.2772 -1.6212
  116SAPE  H10S12184   7.361   0.816   2.854  0.7351  0.3616 -0.3555
  116SAPE  C21112185   7.520   0.851   2.996  0.4097 -0.2435 -0.4349
  116SAPE  H11R12186   7.536   0.744   3.011 -0.3670 -0.1446  1.1436
  116SAPE  C21212187   7.616   0.935   3.046 -0.1969 -0.7102  0.7010
  116SAPE  H12R12188   7.706   0.892   3.093  0.5198  0.8104  0.7623
  116SAPE  C21312189   7.608   1.087   3.032 -0.0391 -0.5403 -0.1473
  116SAPE  H13R12190   7.580   1.120   2.930 -2.7925  3.3376  1.7257
  116SAPE  H13S12191   7.711   1.125   3.051 -0.0983  0.9775 -2.5952
  116SAPE  C21412192   7.511   1.157   3.127 -0.1664 -0.3357 -0.0498
  116SAPE  H14R12193   7.405   1.133   3.109  0.8834 -3.9234 -1.9384
  116SAPE  C21512194   7.537   1.239   3.228  0.2941 -0.1528  0.4271
  116SAPE  H15R12195   7.451   1.275   3.286 -0.4995 -1.8898  0.3532
  116SAPE  C21612196   7.675   1.274   3.283 -0.2561  0.8512 -1.1246
  116SAPE  H16R12197   7.675   1.385   3.290  3.7166  0.7639  1.7520
  116SAPE  H16S12198   7.755   1.242   3.213  0.3721  1.6387 -0.7758
  116SAPE  C21712199   7.682   1.211   3.426  0.7559  0.4330 -0.3499
  116SAPE  H17R12200   7.788   1.220   3.456  0.5015 -0.0375  0.7185
  116SAPE  H17S12201   7.662   1.102   3.428  1.7394  0.2287 -1.3730
  116SAPE  C21812202   7.588   1.299   3.522 -0.1018  0.0059  0.1318
  116SAPE  H18R12203   7.479   1.284   3.510 -0.1596 -0.2978  0.9862
  116SAPE  H18S12204   7.606   1.401   3.480 -2.1511  0.8348  1.1611
  116SAPE  C21912205   7.628   1.289   3.668  1.0906  0.5499 -0.7926
  116SAPE  H19R12206   7.732   1.315   3.700  0.0280  1.3959  2.1201
  116SAPE  H19S12207   7.619   1.183   3.700 -0.0848  0.5169 -1.2105
  116SAPE  C22012208   7.551   1.374   3.771  0.1080 -0.0570 -0.4884
  116SAPE  H20R12209   7.578   1.482   3.765  0.0484 -0.0226 -0.1709
  116SAPE  H20S12210   7.557   1.334   3.875 -0.2691  1.8423  0.2800
  116SAPE  H20T12211   7.446   1.359   3.740 -0.5328  0.9270  1.1435
  116SAPE   C3312212   6.853   1.457   2.643 -0.0220  0.1472  0.2290
  116SAPE   H3X12213   6.962   1.440   2.658 -0.1598 -0.9295  0.0592
  116SAPE   H3Y12214   6.798   1.372   2.597 -0.8405  1.1076 -0.5985
  116SAPE   C3412215   6.804   1.461   2.789 -0.7538 -0.4810  0.1321
  116SAPE   H4X12216   6.697   1.484   2.809 -0.7337 -0.2881  0.0277
  116SAPE   H4Y12217   6.850   1.543   2.849  1.4738 -1.9834  0.5554
  116SAPE   C3512218   6.836   1.331   2.854  0.5016  0.0799  0.8726
  116SAPE   H5X12219   6.942   1.310   2.827  0.0041 -0.6931 -0.5716
  116SAPE   H5Y12220   6.777   1.256   2.796  2.0861 -0.0120 -0.6538
  116SAPE   C3612221   6.809   1.313   3.003  0.3843  0.3392 -0.3045
  116SAPE   H6X12222   6.783   1.209   3.032 -1.0574  1.3346  2.1004
  116SAPE   H6Y12223   6.728   1.384   3.031 -1.7335 -0.2995 -4.3756
  116SAPE   C3712224   6.926   1.327   3.098  0.3250 -0.0601  0.3633
  116SAPE   H7X12225   6.952   1.434   3.098 -1.1543  0.3196  1.3756
  116SAPE   H7Y12226   7.016   1.277   3.056 -0.3576 -1.6836  0.7573
  116SAPE   C3812227   6.898   1.273   3.238 -0.2092  0.6160 -0.3865
  116SAPE   H8X12228   6.866   1.167   3.228 -0.1945  0.4842  0.9795
  116SAPE   H8Y12229   6.818   1.334   3.285  0.5984  1.0416  0.4560
  116SAPE   C3912230   7.022   1.267   3.333  0.3655  0.7204  0.4901
  116SAPE   H9X12231   7.119   1.235   3.290 -1.2555 -1.8364 -1.3838
  116SAPE   H9Y12232   7.007   1.182   3.403  2.8163 -0.8162 -0.7888
  116SAPE  C31012233   7.036   1.403   3.412  0.2041 -0.0947 -0.8215
  116SAPE  H10X12234   6.941   1.433   3.461 -0.3048 -0.0555 -1.8167
  116SAPE  H10Y12235   7.072   1.481   3.341  0.5877  2.0194  1.6220
  116SAPE  C31112236   7.143   1.395   3.517  0.1108 -0.4186  0.6367
  116SAPE  H11X12237   7.233   1.369   3.458  1.1057  0.1793  1.8680
  116SAPE  H11Y12238   7.131   1.311   3.589 -1.1467  0.2816  1.2645
  116SAPE  C31212239   7.161   1.536   3.573  0.2264 -0.4882 -0.1840
  116SAPE  H12X12240   7.156   1.611   3.491  1.2516  0.8279  0.9319
  116SAPE  H12Y12241   7.262   1.549   3.618  0.5223 -2.5952 -0.1822
  116SAPE  C31312242   7.058   1.573   3.685  0.6721  0.0794  0.5051
  116SAPE  H13X12243   7.104   1.538   3.779 -0.7780 -1.4523  0.6783
  116SAPE  H13Y12244   6.962   1.519   3.665  1.6176 -1.4453 -0.0381
  116SAPE  C31412245   7.024   1.723   3.680 -0.2924  0.7070  0.4698
  116SAPE  H14X12246   7.004   1.743   3.572  0.0868 -1.7389 -0.0915
  116SAPE  H14Y12247   7.118   1.775   3.709 -0.2705  1.4549 -0.8906
  116SAPE  C31512248   6.903   1.776   3.767  0.3685 -0.2364 -0.1055
  116SAPE  H15X12249   6.815   1.720   3.729 -1.1320  2.1436 -0.2317
  116SAPE  H15Y12250   6.889   1.884   3.750  0.0115 -0.0757  1.1547
  116SAPE  C31612251   6.912   1.757   3.915  0.4467  0.4390 -0.3034
  116SAPE  H16X12252   6.922   1.651   3.947  2.2488  0.8920  0.7047
  116SAPE  H16Y12253   6.816   1.801   3.950  1.0289  1.9637 -0.5919
  116SAPE  C31712254   7.023   1.839   3.981  0.3425  0.2119 -0.0503
  116SAPE  H17X12255   7.022   1.944   3.943 -1.7908 -0.2610 -1.3810
  116SAPE  H17Y12256   7.120   1.797   3.946  0.9734  1.4281  0.1852
  116SAPE  C31812257   7.018   1.825   4.133  0.0976  0.1322  0.0128
  116SAPE  H18X12258   6.915   1.858   4.157 -0.6465 -2.1970  0.1143
  116SAPE  H18Y12259   7.095   1.893   4.176 -1.0521  1.7714 -0.4857
  116SAPE  H18Z12260   7.032   1.721   4.170 -1.8569 -0.6233 -1.2933
  117SOPE     N12261   2.146   3.643   5.984  0.4949 -0.2183  0.2483
  117SOPE   HN112262   2.164   3.711   6.061  2.2777 -0.1475 -0.2340
  117SOPE   HN212263   2.204   3.662   5.900  0.6475 -1.9194 -0.0397
  117SOPE   HN312264   2.046   3.658   5.958  0.8353  0.2151 -0.8169
  117SOPE   C1212265   2.172   3.500   6.033 -0.3261 -0.4378 -1.0681
  117SOPE  H12A12266   2.148   3.421   5.958  0.0957 -2.3955  0.8120
  117SOPE  H12B12267   2.112   3.490   6.126  1.3464  2.8727  0.4441
  117SOPE   C1112268   2.318   3.478   6.069  0.1996 -0.3981 -0.0356
  117SOPE  H11A12269   2.372   3.496   5.974 -1.9681  0.6962 -1.1118
  117SOPE  H11B12270   2.340   3.371   6.091  0.2736 -0.3428  0.1610
  117SOPE     P12271   2.485   3.569   6.254  0.2732  0.1956  0.1973
  117SOPE   O1312272   2.430   3.524   6.388  0.4828  0.1581 -0.4199
  117SOPE   O1412273   2.568   3.690   6.265  0.1807 -0.5023  0.5237
  117SOPE   O1212274   2.357   3.588   6.157  0.3954  0.0882 -0.0353
  117SOPE   O1112275   2.567   3.449   6.180  1.3367  0.8186  0.1502
  117SOPE    C112276   2.693   3.414   6.234 -0.8820 -0.0330  0.6608
  117SOPE    HA12277   2.718   3.308   6.210  0.1796 -0.0096  1.6024
  117SOPE    HB12278   2.692   3.420   6.345 -1.6118  2.3554  0.5508
  117SOPE    C212279   2.808   3.482   6.157  0.2398 -0.3981  0.6288
  117SOPE    HS12280   2.811   3.591   6.176  1.3291 -0.4403  0.7287
  117SOPE   O2112281   2.791   3.448   6.018 -0.5808 -0.2501 -0.3053
  117SOPE   C2112282   2.816   3.551   5.937  1.1532  0.2747  0.9306
  117SOPE   O2212283   2.869   3.655   5.966  0.2900 -0.1530 -0.6086
  117SOPE   C2212284   2.764   3.519   5.790  0.8142 -0.2769 -0.4373
  117SOPE   H2R12285   2.654   3.538   5.797  0.8975 -0.5195  2.1705
  117SOPE   H2S12286   2.789   3.413   5.771 -1.4591 -1.1339  1.0572
  117SOPE    C312287   2.949   3.422   6.200 -0.7302  0.1959  0.1725
  117SOPE    HX12288   2.943   3.316   6.166 -3.7090 -0.1218  1.4698
  117SOPE    HY12289   2.959   3.416   6.311 -0.5534 -0.7633  0.1098
  117SOPE   O3112290   3.067   3.489   6.140  0.3578  0.4797 -0.5024
  117SOPE   C3112291   3.170   3.411   6.112 -0.2775  0.3991 -0.0112
  117SOPE   O3212292   3.179   3.292   6.146 -0.1206  0.0853  0.1083
  117SOPE   C3212293   3.275   3.490   6.036 -0.0783 -0.2962  0.4545
  117SOPE   H2X12294   3.364   3.495   6.102  0.8078  0.3611 -0.7652
  117SOPE   H2Y12295   3.241   3.594   6.017  2.3485  0.2048 -1.4053
  117SOPE   C2312296   2.812   3.615   5.678 -0.1496 -0.5357  0.0807
  117SOPE   H3R12297   2.921   3.606   5.699 -0.4849 -0.7943  1.8282
  117SOPE   H3S12298   2.768   3.713   5.706  0.6510 -0.2649  0.4225
  117SOPE   C2412299   2.771   3.583   5.537 -0.1330  0.5002  0.1280
  117SOPE   H4R12300   2.794   3.482   5.496  1.5131 -0.2520  2.7294
  117SOPE   H4S12301   2.662   3.597   5.521 -0.2690 -0.9235 -0.2541
  117SOPE   C2512302   2.824   3.679   5.439 -0.3909 -0.7776 -0.1269
  117SOPE   H5R12303   2.803   3.786   5.461 -2.7265 -1.2943  0.2374
  117SOPE   H5S12304   2.936   3.676   5.438 -0.2523  2.1780 -1.9880
  117SOPE   C2612305   2.771   3.646   5.296  0.6397  0.1430 -0.3005
  117SOPE   H6R12306   2.770   3.535   5.288  0.1307  0.1644 -0.5330
  117SOPE   H6S12307   2.665   3.677   5.302  0.8596  1.2991 -2.1549
  117SOPE   C2712308   2.839   3.719   5.190  0.2385 -0.6055  0.0421
  117SOPE   H7R12309   2.819   3.825   5.217 -0.4123 -0.7338  0.0781
  117SOPE   H7S12310   2.949   3.704   5.201  0.0614 -2.6829 -0.7223
  117SOPE   C2812311   2.801   3.681   5.048 -0.0644 -0.9905  0.3424
  117SOPE   H8R12312   2.891   3.682   4.982  0.9244 -4.1341  1.5267
  117SOPE   H8S12313   2.784   3.572   5.059  0.0385 -1.1605 -1.0403
  117SOPE   C2912314   2.687   3.755   4.984  0.4459 -0.5019 -0.9950
  117SOPE   H9112315   2.639   3.836   5.040  1.3524 -0.5132 -0.1778
  117SOPE  C21012316   2.660   3.739   4.849 -0.2332 -0.1213 -0.1322
  117SOPE  H10112317   2.569   3.791   4.814 -1.3924  0.5798  3.7120
  117SOPE  C21112318   2.728   3.647   4.757  0.1887  0.3035  0.1860
  117SOPE  H11R12319   2.654   3.584   4.702  2.6763 -1.1162 -1.6204
  117SOPE  H11S12320   2.778   3.565   4.812 -0.0294  0.5117  0.7012
  117SOPE  C21212321   2.826   3.694   4.645  0.2160  0.0904 -0.2153
  117SOPE  H12R12322   2.774   3.768   4.580  1.4205  0.0846 -1.2052
  117SOPE  H12S12323   2.843   3.605   4.580  0.4612  0.2505 -0.3713
  117SOPE  C21312324   2.960   3.750   4.703 -0.3495  0.0851 -1.0972
  117SOPE  H13R12325   2.998   3.672   4.772 -0.5337 -0.7382 -1.9125
  117SOPE  H13S12326   2.930   3.840   4.761 -0.2650 -0.5189 -0.1018
  117SOPE  C21412327   3.059   3.796   4.603 -0.2978  0.3453  0.2183
  117SOPE  H14R12328   3.085   3.708   4.542  0.1360  0.7633 -0.2055
  117SOPE  H14S12329   3.150   3.826   4.661  0.0453  0.4031 -0.3466
  117SOPE  C21512330   3.001   3.903   4.503  0.4503  0.1067  0.1031
  117SOPE  H15R12331   2.972   3.988   4.569 -0.1259  1.7180 -2.1428
  117SOPE  H15S12332   2.909   3.863   4.456 -0.5655 -1.1556  3.0846
  117SOPE  C21612333   3.108   3.934   4.405  0.0617  0.5773 -0.5622
  117SOPE  H16R12334   3.142   3.853   4.337 -0.8255  3.3694 -4.4384
  117SOPE  H16S12335   3.189   3.978   4.466  2.2413 -0.4163 -2.6754
  117SOPE  C21712336   3.057   4.049   4.311 -0.7338 -0.0799  0.3567
  117SOPE  H17R12337   3.021   4.127   4.381 -2.2131 -1.0052  0.6561
  117SOPE  H17S12338   2.980   3.999   4.250 -0.4694  1.2098 -1.0508
  117SOPE  C21812339   3.169   4.084   4.215  0.4276 -0.0253 -0.0150
  117SOPE  H18R12340   3.235   4.163   4.257 -1.0912  3.0769 -3.1121
  117SOPE  H18S12341   3.137   4.136   4.122 -0.6830 -0.8201 -0.0844
  117SOPE  H18T12342   3.219   3.993   4.176 -1.4962 -1.5955  1.1075
  117SOPE   C3312343   3.318   3.423   5.894 -0.1380  0.3241 -0.6780
  117SOPE   H3X12344   3.361   3.323   5.916  2.0202  1.5040  0.5855
  117SOPE   H3Y12345   3.406   3.480   5.856  1.7558 -0.4046  2.4722
  117SOPE   C3412346   3.192   3.411   5.804  0.2149  0.4589 -0.6430
  117SOPE   H4X12347   3.140   3.508   5.786  0.4747  0.9667  1.3084
  117SOPE   H4Y12348   3.118   3.347   5.856  1.7975 -1.2239 -0.4384
  117SOPE   C3512349   3.221   3.353   5.674  0.9943 -1.0036 -0.2592
  117SOPE   H5X12350   3.228   3.242   5.680  0.0426 -0.9304  3.2458
  117SOPE   H5Y12351   3.327   3.376   5.650  1.4186 -0.1625  2.2404
  117SOPE   C3612352   3.130   3.381   5.555 -0.3823  0.5458 -0.7189
  117SOPE   H6X12353   3.117   3.491   5.561  2.7148  0.9079 -0.0128
  117SOPE   H6Y12354   3.030   3.338   5.575  0.7981 -0.5442  3.2384
  117SOPE   C3712355   3.182   3.343   5.415 -0.4320 -0.1815  0.6659
  117SOPE   H7X12356   3.208   3.235   5.416  0.4356  0.0200 -0.2910
  117SOPE   H7Y12357   3.272   3.401   5.388 -1.5529  0.2223 -2.4663
  117SOPE   C3812358   3.071   3.365   5.312  0.2112  0.2633 -0.4369
  117SOPE   H8X12359   3.072   3.472   5.282 -0.7311  0.7877  1.3769
  117SOPE   H8Y12360   2.974   3.345   5.362  0.6741 -0.0162  0.3562
  117SOPE   C3912361   3.103   3.292   5.182 -0.2232  0.3172 -0.7439
  117SOPE   H9X12362   3.100   3.187   5.219 -0.8095  0.5999  0.0207
  117SOPE   H9Y12363   3.207   3.309   5.147  0.0083 -2.5440 -1.6140
  117SOPE  C31012364   3.012   3.334   5.068  0.0019 -0.4090  0.2621
  117SOPE  H10X12365   3.043   3.437   5.039 -1.1395 -0.4323 -1.0424
  117SOPE  H10Y12366   2.912   3.334   5.115 -0.1137 -1.1253  0.0209
  117SOPE  C31112367   3.008   3.239   4.947  0.5718 -0.1995 -0.2482
  117SOPE  H11X12368   2.965   3.146   4.989  0.4981 -0.4377 -0.8543
  117SOPE  H11Y12369   3.113   3.217   4.918  0.0277 -0.2754 -2.2048
  117SOPE  C31212370   2.940   3.309   4.824  0.3527  0.2647 -0.0588
  117SOPE  H12X12371   3.012   3.390   4.797 -2.0448  2.7499  0.8150
  117SOPE  H12Y12372   2.843   3.351   4.858 -0.8836 -0.7833 -2.2349
  117SOPE  C31312373   2.909   3.208   4.712 -0.5980 -0.4583 -0.4915
  117SOPE  H13X12374   2.827   3.141   4.744 -1.0264  0.1599 -0.2825
  117SOPE  H13Y12375   2.997   3.142   4.696 -0.1322 -0.4209  1.6370
  117SOPE  C31412376   2.864   3.286   4.595 -0.3255  0.4637 -0.1614
  117SOPE  H14X12377   2.948   3.358   4.580  0.5706 -0.2832  1.2759
  117SOPE  H14Y12378   2.777   3.346   4.629  0.4192  2.5009 -1.7449
  117SOPE  C31512379   2.832   3.210   4.464 -0.5918  0.1586  0.0140
  117SOPE  H15X12380   2.911   3.133   4.456 -1.6450 -0.7017 -2.6990
  117SOPE  H15Y12381   2.839   3.272   4.372 -0.6709 -0.0430 -0.1273
  117SOPE  C31612382   2.694   3.131   4.468 -1.0960 -0.4415  0.7908
  117SOPE  H16X12383   2.620   3.213   4.480  2.3472  2.6852  1.5933
  117SOPE  H16Y12384   2.694   3.066   4.558  2.1842 -0.9597  0.4911
  117SOPE  C31712385   2.674   3.047   4.338 -1.0238  0.6093 -0.1464
  117SOPE  H17X12386   2.680   3.132   4.266 -0.3396 -1.1204 -2.1632
  117SOPE  H17Y12387   2.576   2.995   4.344 -2.1833  2.5731 -1.3562
  117SOPE  C31812388   2.783   2.946   4.321  0.6573  0.0363  0.3837
  117SOPE  H18X12389   2.765   2.888   4.228  1.3069 -0.8249  0.7892
  117SOPE  H18Y12390   2.795   2.880   4.409 -0.0495  1.7015  1.7751
  117SOPE  H18Z12391   2.882   2.996   4.313  0.7173 -0.0824  0.3828
  118SOPE     N12392   4.745   5.662   6.402 -0.0671 -0.2393  0.2173
  118SOPE   HN112393   4.772   5.626   6.496 -0.3853 -0.6516  0.1535
  118SOPE   HN212394   4.742   5.765   6.413  1.7219 -0.0229 -1.1088
  118SOPE   HN312395   4.647   5.643   6.373 -0.0374  0.4686 -0.3641
  118SOPE   C1212396   4.834   5.629   6.291  0.4452  0.8672 -0.6062
  118SOPE  H12A12397   4.853   5.521   6.304 -0.3484  0.5309 -2.1384
  118SOPE  H12B12398   4.932   5.679   6.308  0.3606  0.8121  0.0807
  118SOPE   C1112399   4.766   5.674   6.160 -0.3126  0.3262 -0.1195
  118SOPE  H11A12400   4.683   5.602   6.143  0.8107 -0.5955 -1.8548
  118SOPE  H11B12401   4.841   5.663   6.079 -1.6391  1.2782 -1.5017
  118SOPE     P12402   4.813   5.937   6.126  0.1841 -0.3926 -0.3534
  118SOPE   O1312403   4.905   5.957   6.236  0.1628  0.0094 -0.2588
  118SOPE   O1412404   4.725   6.052   6.086  0.0054  0.8319  0.2127
  118SOPE   O1212405   4.721   5.814   6.155  0.2897  0.2725  0.2590
  118SOPE   O1112406   4.899   5.900   5.995 -0.1250  0.5491 -0.0438
  118SOPE    C112407   4.856   5.910   5.858  0.0248 -0.1054 -0.3278
  118SOPE    HA12408   4.932   5.898   5.778  0.8312 -2.3733  0.7405
  118SOPE    HB12409   4.818   6.014   5.846  2.9359  0.5978 -4.0384
  118SOPE    C212410   4.740   5.817   5.827  1.0312 -0.5409  0.2763
  118SOPE    HS12411   4.676   5.816   5.918 -0.4624  0.8900 -0.7501
  118SOPE   O2112412   4.795   5.691   5.786 -0.2223 -0.5335  0.0823
  118SOPE   C2112413   4.724   5.587   5.805  0.3087 -0.2287 -0.1186
  118SOPE   O2212414   4.616   5.592   5.870  0.0185  0.3471 -0.0380
  118SOPE   C2212415   4.789   5.474   5.737 -0.5279  0.1551 -0.1451
  118SOPE   H2R12416   4.718   5.391   5.719 -2.7607  1.5155  2.0369
  118SOPE   H2S12417   4.858   5.439   5.817  0.5513  2.5445  0.0333
  118SOPE    C312418   4.634   5.871   5.720 -0.6245  0.0338 -0.0261
  118SOPE    HX12419   4.612   5.975   5.752  0.1253  0.0896  0.3291
  118SOPE    HY12420   4.539   5.814   5.720 -0.4503 -0.2585  0.0065
  118SOPE   O3112421   4.695   5.875   5.589 -0.0856  0.3728 -0.1031
  118SOPE   C3112422   4.613   5.929   5.503  0.6866 -0.3916 -0.4788
  118SOPE   O3212423   4.495   5.961   5.519  0.1658  0.3407  0.3193
  118SOPE   C3212424   4.675   5.942   5.369 -0.6727 -0.0313 -0.0527
  118SOPE   H2X12425   4.651   5.847   5.315 -4.0239 -0.1416  1.4688
  118SOPE   H2Y12426   4.784   5.950   5.386 -0.9290  1.6670  0.9116
  118SOPE   C2312427   4.868   5.507   5.605  0.1576 -0.7817 -0.0385
  118SOPE   H3R12428   4.931   5.417   5.587 -0.7618 -1.7710  1.5757
  118SOPE   H3S12429   4.925   5.603   5.607 -2.4070  0.7803 -0.4010
  118SOPE   C2412430   4.768   5.518   5.492 -0.1396  0.0274  0.5965
  118SOPE   H4R12431   4.710   5.423   5.485  1.9152 -1.2679  0.4239
  118SOPE   H4S12432   4.703   5.608   5.497 -0.2486  0.0992 -1.5857
  118SOPE   C2512433   4.829   5.544   5.355  0.0932  0.1479  0.1149
  118SOPE   H5R12434   4.747   5.577   5.287 -0.0404  0.3038  0.3498
  118SOPE   H5S12435   4.890   5.636   5.357  0.4071 -0.0698  2.9598
  118SOPE   C2612436   4.902   5.418   5.300 -0.0941 -0.0695  0.3989
  118SOPE   H6R12437   4.972   5.381   5.379  0.5775 -0.0220 -0.1650
  118SOPE   H6S12438   4.830   5.336   5.280  0.1170 -0.7869  2.3870
  118SOPE   C2712439   4.982   5.447   5.175  0.1674  0.4681  0.4288
  118SOPE   H7R12440   4.903   5.495   5.112 -0.4982  1.0021  1.6532
  118SOPE   H7S12441   5.056   5.524   5.205 -0.4787  0.9145  0.8992
  118SOPE   C2812442   5.045   5.333   5.096  0.1157  0.4310  0.4051
  118SOPE   H8R12443   5.119   5.280   5.161  3.2647  3.5991 -0.4381
  118SOPE   H8S12444   4.960   5.268   5.068 -0.1664  2.8356 -4.8652
  118SOPE   C2912445   5.133   5.399   4.993 -0.5531 -0.4720  0.1963
  118SOPE   H9112446   5.180   5.493   5.026 -0.2885 -0.1148 -1.1518
  118SOPE  C21012447   5.129   5.387   4.863 -0.1701  0.2016 -0.2435
  118SOPE  H10112448   5.195   5.454   4.805  0.5246  0.6420  1.0461
  118SOPE  C21112449   5.049   5.299   4.768  0.3479 -0.6936 -0.3404
  118SOPE  H11R12450   4.970   5.352   4.710 -0.0302  0.3126  1.0779
  118SOPE  H11S12451   4.993   5.228   4.833  0.2476 -0.0194  0.3137
  118SOPE  C21212452   5.146   5.228   4.669 -0.6784  0.0320 -0.0268
  118SOPE  H12R12453   5.217   5.156   4.715  2.4004  1.8797 -1.7019
  118SOPE  H12S12454   5.215   5.293   4.612  0.2392 -0.9787 -0.0897
  118SOPE  C21312455   5.061   5.150   4.572 -0.2641  0.0188  0.2210
  118SOPE  H13R12456   4.969   5.204   4.542  0.4611  1.2743  0.2105
  118SOPE  H13S12457   5.031   5.054   4.617  1.8611  0.0668  1.8200
  118SOPE  C21412458   5.154   5.124   4.460  0.1311 -0.3316 -0.4499
  118SOPE  H14R12459   5.253   5.085   4.493  1.6960  1.2748 -3.0160
  118SOPE  H14S12460   5.174   5.217   4.403  0.1585 -0.2217 -0.2613
  118SOPE  C21512461   5.091   5.036   4.355 -0.2689  0.5084 -0.2047
  118SOPE  H15R12462   5.000   5.075   4.305 -2.4239 -0.3327  2.9638
  118SOPE  H15S12463   5.060   4.941   4.403  0.3475  0.6991  0.5907
  118SOPE  C21612464   5.184   5.008   4.237 -0.0774  0.0272 -0.5333
  118SOPE  H16R12465   5.280   4.976   4.285  0.2454  0.3587 -0.9577
  118SOPE  H16S12466   5.201   5.105   4.186  3.0688  0.0919  0.5173
  118SOPE  C21712467   5.137   4.899   4.137 -0.0014 -0.0260  0.1829
  118SOPE  H17R12468   5.146   4.799   4.184 -0.4169 -0.7049 -1.1446
  118SOPE  H17S12469   5.212   4.902   4.055 -1.6835 -2.2408 -1.4883
  118SOPE  C21812470   4.998   4.917   4.085 -0.4614  0.4929  0.0655
  118SOPE  H18R12471   4.981   4.822   4.029  1.0757  0.3134 -0.1171
  118SOPE  H18S12472   4.992   4.994   4.005  0.1248  2.4505  1.8630
  118SOPE  H18T12473   4.920   4.944   4.160  0.8547  0.2558  1.5295
  118SOPE   C3312474   4.615   6.044   5.269  0.7129  0.2147 -0.0342
  118SOPE   H3X12475   4.508   6.024   5.246  0.5276  0.6723  0.4402
  118SOPE   H3Y12476   4.666   6.038   5.170  2.7680  0.4281  0.9944
  118SOPE   C3412477   4.628   6.189   5.326  0.1687  0.0515  0.2142
  118SOPE   H4X12478   4.594   6.195   5.431 -0.1607 -0.8529  0.1657
  118SOPE   H4Y12479   4.554   6.255   5.275 -0.2648 -0.5205  0.0929
  118SOPE   C3512480   4.768   6.248   5.315 -0.5420  0.4042  0.4240
  118SOPE   H5X12481   4.845   6.177   5.354  1.0791  0.9487 -1.7051
  118SOPE   H5Y12482   4.773   6.340   5.377  0.6493  0.4132  0.3255
  118SOPE   C3612483   4.810   6.287   5.171  0.8265 -0.6043  0.5968
  118SOPE   H6X12484   4.726   6.354   5.141  1.1285 -0.5736 -0.1740
  118SOPE   H6Y12485   4.800   6.209   5.093 -0.0403  0.8467 -0.7734
  118SOPE   C3712486   4.946   6.353   5.156  0.1794 -0.2332  0.0575
  118SOPE   H7X12487   5.021   6.291   5.210  0.6102 -0.0814 -0.3666
  118SOPE   H7Y12488   4.935   6.455   5.199 -0.7296  0.9219 -2.8355
  118SOPE   C3812489   4.990   6.366   5.008 -0.0424 -0.5373  0.1695
  118SOPE   H8X12490   5.080   6.431   5.003  0.4025 -1.2687 -1.5525
  118SOPE   H8Y12491   4.913   6.408   4.940 -0.6645  0.8080  1.6715
  118SOPE   C3912492   5.035   6.228   4.937  0.2952 -0.2005  0.1015
  118SOPE   H9X12493   4.946   6.162   4.949 -1.3737  2.1793  1.2164
  118SOPE   H9Y12494   5.117   6.186   4.998 -0.1761 -2.3817 -0.7141
  118SOPE  C31012495   5.072   6.242   4.789  0.2579  0.1901 -0.0592
  118SOPE  H10X12496   5.163   6.304   4.780  1.0629 -1.1991 -1.8354
  118SOPE  H10Y12497   4.991   6.302   4.742  0.6413  2.0099  1.5518
  118SOPE  C31112498   5.092   6.104   4.721  0.6040  0.9042  0.4459
  118SOPE  H11X12499   5.106   6.127   4.613 -2.2639 -0.5840 -0.3056
  118SOPE  H11Y12500   4.997   6.047   4.734  0.7767  0.5915  0.3193
  118SOPE  C31212501   5.203   6.019   4.771  0.4822 -0.4678  0.6760
  118SOPE  H12X12502   5.164   5.969   4.862  0.5134 -6.0784 -2.2137
  118SOPE  H12Y12503   5.295   6.063   4.816 -0.3907  1.2693  0.8206
  118SOPE  C31312504   5.240   5.906   4.677  0.1292  0.2529  0.8527
  118SOPE  H13X12505   5.302   5.944   4.592 -1.9070  0.1907 -0.7034
  118SOPE  H13Y12506   5.145   5.870   4.631  1.1706 -1.3954 -0.1107
  118SOPE  C31412507   5.312   5.793   4.749  0.2122 -1.0381  0.0912
  118SOPE  H14X12508   5.252   5.758   4.835 -0.6818  1.9159  0.7229
  118SOPE  H14Y12509   5.404   5.843   4.787 -0.7100 -1.8935  3.6292
  118SOPE  C31512510   5.358   5.676   4.659 -0.6077 -0.0406 -1.0412
  118SOPE  H15X12511   5.382   5.591   4.726  0.1454  0.6393 -0.4301
  118SOPE  H15Y12512   5.451   5.713   4.611 -0.6022 -0.6448 -1.4996
  118SOPE  C31612513   5.256   5.633   4.551  0.3586  0.2023 -0.3540
  118SOPE  H16X12514   5.219   5.718   4.490 -2.6078 -1.8207 -1.4929
  118SOPE  H16Y12515   5.166   5.584   4.593  0.1987  0.0002 -0.9262
  118SOPE  C31712516   5.316   5.530   4.453 -0.3243 -0.4641 -0.0461
  118SOPE  H17X12517   5.357   5.449   4.518 -2.5011 -0.4908  1.3535
  118SOPE  H17Y12518   5.403   5.573   4.399  0.5548  0.1001  1.7628
  118SOPE  C31812519   5.209   5.485   4.352 -0.0600  0.0234 -0.0419
  118SOPE  H18X12520   5.253   5.447   4.257  1.9257 -0.3935  1.0034
  118SOPE  H18Y12521   5.156   5.577   4.321  1.9511  1.2038 -0.0595
  118SOPE  H18Z12522   5.130   5.417   4.390 -1.3946  1.2177 -0.6267
  119SOPE     N12523   5.088   5.707   5.980 -0.5343 -0.4784  0.1454
  119SOPE   HN112524   5.009   5.774   5.972 -0.7243 -0.6560  0.5790
  119SOPE   HN212525   5.054   5.616   6.016 -1.3597  0.0258  0.6422
  119SOPE   HN312526   5.161   5.750   6.041 -1.4524  0.2308  0.7423
  119SOPE   C1212527   5.140   5.668   5.846 -0.2766 -0.2401  0.1847
  119SOPE  H12A12528   5.149   5.762   5.789  0.4615 -0.8035 -0.6430
  119SOPE  H12B12529   5.078   5.599   5.784 -1.2765  1.4079 -0.6719
  119SOPE   C1112530   5.287   5.619   5.861  0.1415 -0.0814 -0.0945
  119SOPE  H11A12531   5.325   5.580   5.764 -1.3945 -0.7972 -0.4257
  119SOPE  H11B12532   5.287   5.535   5.934 -0.2849 -2.9442 -3.2710
  119SOPE     P12533   5.522   5.687   5.927  0.3126  0.2901  0.4490
  119SOPE   O1312534   5.530   5.539   5.934  0.0933  0.7567  0.4166
  119SOPE   O1412535   5.567   5.764   6.043 -0.3103  0.3530  0.3928
  119SOPE   O1212536   5.376   5.723   5.900 -0.4065 -0.3405  0.4505
  119SOPE   O1112537   5.597   5.739   5.790  0.3061  0.6086  0.1432
  119SOPE    C112538   5.552   5.697   5.660 -0.0890 -0.3850 -0.0595
  119SOPE    HA12539   5.483   5.772   5.615  1.0834 -0.4540 -2.0745
  119SOPE    HB12540   5.501   5.599   5.655  0.0046 -0.4508  0.2624
  119SOPE    C212541   5.684   5.677   5.573 -0.3004  0.2916 -0.6321
  119SOPE    HS12542   5.747   5.618   5.643 -1.0628  1.7325  1.3042
  119SOPE   O2112543   5.751   5.804   5.545  0.2859 -0.2871 -0.4483
  119SOPE   C2112544   5.879   5.792   5.500 -0.9253  0.1001 -0.1146
  119SOPE   O2212545   5.945   5.691   5.499 -0.2554 -0.4825 -0.4568
  119SOPE   C2212546   5.937   5.934   5.494  0.7102 -0.8353  0.5179
  119SOPE   H2R12547   5.991   5.941   5.591  3.1594  1.4248 -0.9453
  119SOPE   H2S12548   5.852   6.006   5.494  2.2266  1.0182  1.3170
  119SOPE    C312549   5.663   5.592   5.444  0.2136 -0.2807  0.3857
  119SOPE    HX12550   5.646   5.486   5.473  0.3486 -0.7671 -1.2751
  119SOPE    HY12551   5.760   5.578   5.393 -0.7653 -1.7194 -1.1248
  119SOPE   O3112552   5.559   5.644   5.355  0.3038  0.2599  0.3401
  119SOPE   C3112553   5.608   5.721   5.257 -0.0844 -0.2255  0.3189
  119SOPE   O3212554   5.722   5.755   5.247 -0.4319  0.0129  0.6861
  119SOPE   C3212555   5.492   5.768   5.180 -0.1035  0.2699 -0.1207
  119SOPE   H2X12556   5.396   5.775   5.235 -0.3874  0.3642 -0.6233
  119SOPE   H2Y12557   5.490   5.681   5.110 -0.5970 -2.7023  3.4168
  119SOPE   C2312558   6.046   5.966   5.387  0.8477 -0.5514 -0.3631
  119SOPE   H3R12559   6.104   5.878   5.354  0.1358 -0.9780 -0.4806
  119SOPE   H3S12560   6.112   6.050   5.421  1.3911  0.2145 -3.2299
  119SOPE   C2412561   5.987   6.022   5.254 -0.1865  0.1939  0.1621
  119SOPE   H4R12562   5.879   6.002   5.236 -0.0741 -0.4905  0.2600
  119SOPE   H4S12563   5.998   6.132   5.242  0.9867 -0.0008 -0.6191
  119SOPE   C2512564   6.070   5.970   5.136  0.1423  0.2162  0.2763
  119SOPE   H5R12565   6.178   5.988   5.149  0.6572 -1.8558 -0.9294
  119SOPE   H5S12566   6.057   5.860   5.139 -0.4756  0.3213  3.5834
  119SOPE   C2612567   6.043   6.023   4.996 -1.2620 -0.0622  0.0444
  119SOPE   H6R12568   6.060   6.131   4.975  0.8642 -0.4180 -0.2276
  119SOPE   H6S12569   6.127   5.979   4.937 -0.0283  1.6692  0.4691
  119SOPE   C2712570   5.911   5.963   4.943  0.1234 -0.3276 -0.4267
  119SOPE   H7R12571   5.933   5.855   4.927  0.7892 -0.0607 -1.3789
  119SOPE   H7S12572   5.838   5.983   5.025  0.8799  0.6364  0.0263
  119SOPE   C2812573   5.858   6.021   4.814 -0.3563 -0.3317 -0.6563
  119SOPE   H8R12574   5.833   6.125   4.841  2.6224 -0.1501  1.7033
  119SOPE   H8S12575   5.933   6.030   4.732  1.8717  1.8728  1.5258
  119SOPE   C2912576   5.730   5.951   4.777 -0.1578 -0.0893  0.0158
  119SOPE   H9112577   5.651   5.948   4.853 -1.7571 -1.1078 -1.6310
  119SOPE  C21012578   5.689   5.918   4.656  0.0651 -0.0548  0.5959
  119SOPE  H10112579   5.589   5.877   4.638 -1.0478  1.7937  2.2864
  119SOPE  C21112580   5.755   5.929   4.517 -0.6563  0.6433 -0.2968
  119SOPE  H11R12581   5.751   5.830   4.467 -0.9143  0.4219  0.1569
  119SOPE  H11S12582   5.863   5.950   4.534 -0.3450 -0.1303 -1.2936
  119SOPE  C21212583   5.694   6.039   4.427  0.4337  0.5804 -0.0518
  119SOPE  H12R12584   5.753   6.047   4.333  1.6112 -1.1637  0.5245
  119SOPE  H12S12585   5.706   6.137   4.478 -0.5628  1.0562 -0.7086
  119SOPE  C21312586   5.547   6.022   4.387  0.2180  0.8354  0.9723
  119SOPE  H13R12587   5.532   6.111   4.322 -1.1571  1.2808  1.8681
  119SOPE  H13S12588   5.484   6.034   4.478 -0.2414  0.5178  0.6957
  119SOPE  C21412589   5.522   5.896   4.307  0.5454  0.1452  0.1551
  119SOPE  H14R12590   5.413   5.876   4.308  0.6262 -0.3060  2.1971
  119SOPE  H14S12591   5.561   5.809   4.363 -0.2750  1.4659  2.8619
  119SOPE  C21512592   5.573   5.903   4.161 -0.5862 -0.5711 -0.3968
  119SOPE  H15R12593   5.683   5.920   4.162 -0.4461 -1.1497 -2.4966
  119SOPE  H15S12594   5.527   5.990   4.110 -1.4081 -1.6056 -1.4517
  119SOPE  C21612595   5.526   5.779   4.083  0.5746  0.4351 -0.3119
  119SOPE  H16R12596   5.415   5.770   4.076  0.4587  1.9218 -0.7149
  119SOPE  H16S12597   5.564   5.690   4.136 -0.7753  0.5614  0.8933
  119SOPE  C21712598   5.582   5.761   3.937  0.0445 -0.3400  0.2012
  119SOPE  H17R12599   5.690   5.785   3.927 -0.5205  1.2288 -2.5608
  119SOPE  H17S12600   5.520   5.824   3.871  1.9941 -0.7909 -2.1365
  119SOPE  C21812601   5.571   5.619   3.889 -0.1787  0.2557  0.0291
  119SOPE  H18R12602   5.467   5.582   3.899  0.1466 -1.0693 -1.2513
  119SOPE  H18S12603   5.621   5.542   3.951 -0.2292 -0.9311 -1.3657
  119SOPE  H18T12604   5.592   5.603   3.781 -0.6100  0.4088 -0.0808
  119SOPE   C3312605   5.509   5.898   5.107  0.2658  0.5811 -0.4406
  119SOPE   H3X12606   5.425   5.921   5.038 -0.9244 -0.1001  0.7577
  119SOPE   H3Y12607   5.604   5.879   5.052  0.5582  0.4013  0.1176
  119SOPE   C3412608   5.528   6.028   5.189 -0.4739 -0.2577  0.1304
  119SOPE   H4X12609   5.597   6.004   5.273  0.9530 -0.1501 -0.9947
  119SOPE   H4Y12610   5.426   6.061   5.219 -1.4328 -0.7001 -2.4975
  119SOPE   C3512611   5.588   6.140   5.103 -1.2066  0.2820 -0.5147
  119SOPE   H5X12612   5.676   6.093   5.054 -3.1764 -0.1959 -3.7447
  119SOPE   H5Y12613   5.626   6.225   5.164 -1.5682 -0.2342  0.4363
  119SOPE   C3612614   5.489   6.187   4.999 -0.4469  0.3207  0.5471
  119SOPE   H6X12615   5.405   6.237   5.051  1.5168  2.7750  1.4613
  119SOPE   H6Y12616   5.454   6.095   4.948 -0.6498 -0.0514  1.3489
  119SOPE   C3712617   5.552   6.282   4.890  0.7222 -0.2749 -0.2570
  119SOPE   H7X12618   5.649   6.241   4.853  1.1514  0.2994  0.2438
  119SOPE   H7Y12619   5.573   6.382   4.932 -1.4861  0.0392  0.1632
  119SOPE   C3812620   5.457   6.297   4.775  0.0546 -0.5322  0.2542
  119SOPE   H8X12621   5.363   6.343   4.813 -0.2334 -0.7602 -0.1772
  119SOPE   H8Y12622   5.443   6.196   4.731  0.5439  0.4401 -2.1893
  119SOPE   C3912623   5.524   6.387   4.665  0.2554  0.2378  0.2800
  119SOPE   H9X12624   5.608   6.329   4.621  0.8111 -0.1491  1.8111
  119SOPE   H9Y12625   5.581   6.469   4.715 -0.8311  0.9946  0.2910
  119SOPE  C31012626   5.420   6.432   4.561  0.0380  0.6888 -0.0077
  119SOPE  H10X12627   5.353   6.495   4.625 -0.8998 -2.4126  2.2075
  119SOPE  H10Y12628   5.359   6.343   4.535 -0.2138  1.2393 -1.3135
  119SOPE  C31112629   5.464   6.504   4.431 -0.2493 -0.2309 -0.0320
  119SOPE  H11X12630   5.514   6.597   4.464 -1.6645  0.0485  1.3971
  119SOPE  H11Y12631   5.370   6.537   4.381 -0.0237  0.3060 -0.1038
  119SOPE  C31212632   5.554   6.418   4.343  0.0047 -0.7614 -0.0444
  119SOPE  H12X12633   5.496   6.328   4.312 -1.3275 -0.3022  1.0794
  119SOPE  H12Y12634   5.630   6.371   4.409 -0.7117 -1.5781  0.2022
  119SOPE  C31312635   5.617   6.496   4.230 -0.2833  0.4799  0.0002
  119SOPE  H13X12636   5.668   6.586   4.271 -1.2235  1.3146 -0.6380
  119SOPE  H13Y12637   5.540   6.528   4.157  1.0355  1.1492 -1.1140
  119SOPE  C31412638   5.714   6.408   4.143 -0.1009 -0.3397 -0.2378
  119SOPE  H14X12639   5.650   6.322   4.114 -0.6235 -1.0090  2.6976
  119SOPE  H14Y12640   5.797   6.374   4.208 -1.6688 -3.1492  0.4140
  119SOPE  C31512641   5.772   6.488   4.026  0.8598  0.3736  0.5308
  119SOPE  H15X12642   5.840   6.566   4.066  0.4972  1.4695 -0.9165
  119SOPE  H15Y12643   5.696   6.538   3.962  0.1989  1.2205  1.9514
  119SOPE  C31612644   5.870   6.401   3.939  0.7671  0.0268  0.7292
  119SOPE  H16X12645   5.821   6.303   3.920  2.4700 -1.5736  3.9809
  119SOPE  H16Y12646   5.962   6.371   3.995  1.3509 -0.0843 -0.2819
  119SOPE  C31712647   5.899   6.463   3.806  0.3878 -0.3808 -0.2599
  119SOPE  H17X12648   5.802   6.484   3.757 -0.2954  1.4242  1.7919
  119SOPE  H17Y12649   5.961   6.397   3.741  1.6264  0.5897 -0.0926
  119SOPE  C31812650   5.983   6.595   3.804  0.2581  1.0224  0.1125
  119SOPE  H18X12651   6.032   6.605   3.705  0.1583 -0.0533 -0.0527
  119SOPE  H18Y12652   6.058   6.582   3.884  0.5743 -1.5239 -0.5457
  119SOPE  H18Z12653   5.924   6.688   3.817 -0.4396  1.1095 -3.2576
  120SOPE     N12654   5.340   0.260   5.999 -0.7671  0.1446  0.1428
  120SOPE   HN112655   5.241   0.230   5.985 -0.4822 -0.3047 -0.9208
  120SOPE   HN212656   5.371   0.345   5.948 -1.6170 -0.6484 -1.7341
  120SOPE   HN312657   5.397   0.177   5.975 -0.6447  0.4071 -0.4725
  120SOPE   C1212658   5.372   0.275   6.140 -0.1687  0.0904  0.6032
  120SOPE  H12A12659   5.372   0.172   6.181  0.0190 -0.7819 -1.5332
  120SOPE  H12B12660   5.292   0.334   6.191  0.6388  1.6996  0.0552
  120SOPE   C1112661   5.514   0.328   6.164 -0.0634  0.0611  0.6656
  120SOPE  H11A12662   5.592   0.284   6.099 -0.4946  3.9775 -2.6993
  120SOPE  H11B12663   5.539   0.294   6.267 -0.1520 -2.3620 -0.0707
  120SOPE     P12664   5.467   0.560   6.286  0.3704  0.2361  0.0823
  120SOPE   O1312665   5.505   0.505   6.418 -0.1003  0.2793  0.5881
  120SOPE   O1412666   5.323   0.592   6.275 -0.2764  0.0054  0.2613
  120SOPE   O1212667   5.513   0.472   6.163  0.0102 -0.5154 -0.0694
  120SOPE   O1112668   5.554   0.692   6.267  1.3891 -0.8073 -0.5473
  120SOPE    C112669   5.513   0.781   6.160  0.0687  0.7228 -0.2279
  120SOPE    HA12670   5.549   0.884   6.183  2.8072 -0.0415 -0.9038
  120SOPE    HB12671   5.404   0.789   6.142  0.0055 -0.5539 -0.4813
  120SOPE    C212672   5.594   0.756   6.025 -0.7456 -0.6314 -0.4449
  120SOPE    HS12673   5.532   0.690   5.961  0.6491 -0.9610 -1.4841
  120SOPE   O2112674   5.721   0.694   6.054 -0.0817 -0.2998  0.3269
  120SOPE   C2112675   5.749   0.583   5.992  0.0127  0.8162  0.1224
  120SOPE   O2212676   5.688   0.529   5.903 -0.2985 -0.1203  0.1471
  120SOPE   C2212677   5.871   0.506   6.063 -0.5324 -0.4714  0.2811
  120SOPE   H2R12678   5.852   0.398   6.040 -2.3722 -0.0862 -0.1263
  120SOPE   H2S12679   5.867   0.528   6.172  0.5438  2.4742 -0.2389
  120SOPE    C312680   5.606   0.888   5.944  0.2164  0.7134 -0.2046
  120SOPE    HX12681   5.666   0.968   5.992  0.7390  0.2911 -0.1563
  120SOPE    HY12682   5.506   0.933   5.928  0.3246  1.5041  1.2280
  120SOPE   O3112683   5.657   0.865   5.807 -0.9152 -0.0428  0.2866
  120SOPE   C3112684   5.784   0.867   5.792  0.4662 -0.2903 -0.3509
  120SOPE   O3212685   5.864   0.904   5.878 -0.5688  0.4722  0.2597
  120SOPE   C3212686   5.818   0.812   5.659  0.1681  0.1775  0.0522
  120SOPE   H2X12687   5.741   0.835   5.582 -0.3140  0.5175  0.6308
  120SOPE   H2Y12688   5.838   0.703   5.671 -0.6764  0.2708  2.7778
  120SOPE   C2312689   6.005   0.552   6.008 -0.4408 -0.4120 -0.0794
  120SOPE   H3R12690   6.091   0.524   6.072  0.4892  3.7266  0.5819
  120SOPE   H3S12691   6.013   0.662   6.019  1.4046 -0.6349  1.0908
  120SOPE   C2412692   6.037   0.495   5.868 -0.1552 -0.3375 -0.1154
  120SOPE   H4R12693   6.060   0.387   5.883  0.8685 -0.2006 -0.6542
  120SOPE   H4S12694   5.952   0.507   5.798  0.2788 -0.0520 -0.5976
  120SOPE   C2512695   6.151   0.563   5.807 -0.5260 -0.3093  0.3176
  120SOPE   H5R12696   6.114   0.653   5.753 -0.9521 -0.0705  0.9869
  120SOPE   H5S12697   6.229   0.595   5.880 -0.0873  0.7298 -0.5941
  120SOPE   C2612698   6.206   0.476   5.694  0.5703 -0.2621  0.1233
  120SOPE   H6R12699   6.240   0.374   5.722  0.7088 -0.5852 -1.1900
  120SOPE   H6S12700   6.113   0.462   5.635 -1.6000  1.1149  3.0804
  120SOPE   C2712701   6.313   0.542   5.603  0.1538 -0.1982  0.2017
  120SOPE   H7R12702   6.280   0.633   5.548  0.2088 -0.6594 -0.6022
  120SOPE   H7S12703   6.389   0.586   5.672 -1.1520 -0.1693  1.6361
  120SOPE   C2812704   6.387   0.448   5.505  0.2003 -0.5194 -0.8130
  120SOPE   H8R12705   6.415   0.350   5.550  1.6404  0.3218  0.1590
  120SOPE   H8S12706   6.312   0.433   5.424  1.2097 -0.4934 -1.7491
  120SOPE   C2912707   6.509   0.495   5.424 -0.5527 -0.2016  0.9560
  120SOPE   H9112708   6.596   0.526   5.483  1.7374 -3.7573 -0.3782
  120SOPE  C21012709   6.528   0.482   5.290 -0.2661 -0.2080 -0.9439
  120SOPE  H10112710   6.623   0.503   5.240  0.3421 -0.3016  0.1605
  120SOPE  C21112711   6.429   0.427   5.194  0.3541  0.8876 -0.1766
  120SOPE  H11R12712   6.357   0.504   5.158  0.8066  1.0657 -0.7001
  120SOPE  H11S12713   6.366   0.341   5.226 -0.7336  0.6280 -2.9638
  120SOPE  C21212714   6.508   0.371   5.077  0.2835 -0.0270 -0.1747
  120SOPE  H12R12715   6.571   0.284   5.106  0.4276  0.3827  0.7860
  120SOPE  H12S12716   6.567   0.452   5.028 -0.4433  2.9281  3.5303
  120SOPE  C21312717   6.423   0.312   4.964 -0.5152 -0.7754  0.1528
  120SOPE  H13R12718   6.366   0.222   4.996 -1.0724 -0.3142  0.4513
  120SOPE  H13S12719   6.497   0.270   4.892  0.0435  0.3953  0.0330
  120SOPE  C21412720   6.309   0.399   4.901 -0.0182  0.2028 -0.0930
  120SOPE  H14R12721   6.348   0.495   4.859  1.6870 -1.4342 -2.3666
  120SOPE  H14S12722   6.248   0.422   4.991 -1.1231 -0.5179 -0.6544
  120SOPE  C21512723   6.215   0.336   4.802  0.0173 -0.0061 -0.2014
  120SOPE  H15R12724   6.142   0.404   4.753  1.6833  2.4612  0.6351
  120SOPE  H15S12725   6.142   0.269   4.853  0.2017  0.6293  0.9294
  120SOPE  C21612726   6.269   0.237   4.693  0.4277  0.8369  0.4244
  120SOPE  H16R12727   6.345   0.169   4.736 -0.8698 -0.2371  1.0734
  120SOPE  H16S12728   6.311   0.290   4.605  1.4589 -1.1098 -0.2714
  120SOPE  C21712729   6.155   0.136   4.649 -0.0196  0.0721 -0.0112
  120SOPE  H17R12730   6.061   0.185   4.614  1.0537  0.7142 -2.1291
  120SOPE  H17S12731   6.151   0.059   4.728  1.7022 -1.5703 -1.4929
  120SOPE  C21812732   6.177   0.046   4.529 -0.8040  0.0539  0.0782
  120SOPE  H18R12733   6.082  -0.008   4.509 -0.4980 -0.9168  1.2429
  120SOPE  H18S12734   6.264  -0.022   4.541 -0.9461 -0.3976 -1.2875
  120SOPE  H18T12735   6.190   0.110   4.438  1.3202  0.1009  0.3945
  120SOPE   C3312736   5.956   0.872   5.606  0.4581 -0.1360 -0.3670
  120SOPE   H3X12737   6.052   0.858   5.659  0.8284  1.6995 -0.4993
  120SOPE   H3Y12738   5.928   0.980   5.603 -1.1630 -0.4892  1.2629
  120SOPE   C3412739   5.975   0.861   5.452 -0.0298  0.6314 -0.7984
  120SOPE   H4X12740   6.047   0.937   5.414 -3.8096  3.2143 -3.1563
  120SOPE   H4Y12741   5.876   0.875   5.404 -0.3398 -1.9111 -0.9930
  120SOPE   C3512742   6.036   0.721   5.416 -0.1601 -0.0461 -0.1144
  120SOPE   H5X12743   5.986   0.644   5.479 -0.3239 -0.1381 -0.3571
  120SOPE   H5Y12744   6.145   0.724   5.433 -0.3078  4.1382  0.6582
  120SOPE   C3612745   6.010   0.682   5.267  0.1843  0.0585 -0.0513
  120SOPE   H6X12746   5.901   0.702   5.256  0.1611  0.4498  0.8369
  120SOPE   H6Y12747   6.012   0.571   5.258  1.6196  0.0216  0.6211
  120SOPE   C3712748   6.102   0.754   5.169  0.7122 -0.1998 -0.1016
  120SOPE   H7X12749   6.207   0.754   5.207  0.5017 -3.0849  0.6181
  120SOPE   H7Y12750   6.057   0.856   5.171 -0.0002 -0.5260  1.0573
  120SOPE   C3812751   6.098   0.685   5.029  0.8659 -0.2310  0.4111
  120SOPE   H8X12752   6.139   0.583   5.044  1.8168  0.0050 -0.5200
  120SOPE   H8Y12753   6.167   0.736   4.958 -1.8757 -0.4972 -2.5441
  120SOPE   C3912754   5.960   0.682   4.958  0.3360 -0.1588 -0.4280
  120SOPE   H9X12755   5.917   0.784   4.962 -1.6900 -1.0314  0.2063
  120SOPE   H9Y12756   5.892   0.618   5.018  0.5537 -0.3086 -0.3414
  120SOPE  C31012757   5.964   0.629   4.810 -0.0924 -0.4750 -0.1311
  120SOPE  H10X12758   5.987   0.521   4.821 -0.3175 -0.7331 -2.1060
  120SOPE  H10Y12759   6.038   0.671   4.738  0.6977 -3.1576 -0.9183
  120SOPE  C31112760   5.829   0.639   4.739 -0.0148 -0.0006 -0.0381
  120SOPE  H11X12761   5.737   0.591   4.780 -0.1616 -0.3863 -0.8210
  120SOPE  H11Y12762   5.847   0.595   4.639  2.5544  3.8320 -1.3705
  120SOPE  C31212763   5.787   0.778   4.721  0.4195 -0.3101  0.2299
  120SOPE  H12X12764   5.874   0.837   4.685  0.2599 -0.2025  0.0242
  120SOPE  H12Y12765   5.761   0.832   4.815  0.6201  0.4014 -0.1284
  120SOPE  C31312766   5.670   0.792   4.630  0.4860  0.7363 -0.2300
  120SOPE  H13X12767   5.579   0.750   4.679 -0.3816 -0.0087 -2.3801
  120SOPE  H13Y12768   5.687   0.737   4.535  1.8054 -0.2394  0.5550
  120SOPE  C31412769   5.628   0.935   4.586 -0.2026  0.6296  0.0727
  120SOPE  H14X12770   5.573   0.974   4.675 -2.2149 -2.0870  0.1019
  120SOPE  H14Y12771   5.561   0.925   4.498 -1.1141  3.4454  0.3767
  120SOPE  C31512772   5.736   1.026   4.534 -0.4338 -0.1375 -0.8404
  120SOPE  H15X12773   5.797   1.071   4.615 -1.0906  0.4778 -0.6836
  120SOPE  H15Y12774   5.679   1.118   4.508  0.8416  1.5866  2.2400
  120SOPE  C31612775   5.822   0.969   4.418  0.9558  0.1149  0.4429
  120SOPE  H16X12776   5.740   0.932   4.354  1.7846 -0.4781 -0.2770
  120SOPE  H16Y12777   5.893   0.888   4.447 -0.3195 -0.5961  1.6558
  120SOPE  C31712778   5.911   1.079   4.364 -0.6444 -0.7944 -0.5885
  120SOPE  H17X12779   5.981   1.123   4.438 -2.0529 -0.4383  0.5425
  120SOPE  H17Y12780   5.850   1.171   4.348  0.9604  0.6237  1.2309
  120SOPE  C31812781   5.983   1.049   4.226  0.5324  0.4699  0.0474
  120SOPE  H18X12782   5.908   1.016   4.150  4.1991 -0.6895 -3.2234
  120SOPE  H18Y12783   6.062   0.974   4.243  0.5816 -0.7072 -4.5944
  120SOPE  H18Z12784   6.025   1.140   4.177 -0.0136  0.6607 -0.0707
  121SOPE     N12785   5.846   6.190   6.067 -0.1032 -0.2886 -0.3013
  121SOPE   HN112786   5.896   6.216   5.979  0.1319  0.1811 -0.0292
  121SOPE   HN212787   5.856   6.087   6.073  0.2308 -0.3094 -1.1087
  121SOPE   HN312788   5.749   6.224   6.046  1.3071  2.8782 -2.1047
  121SOPE   C1212789   5.895   6.272   6.183 -0.2135 -0.9362  0.2979
  121SOPE  H12A12790   6.006   6.269   6.189 -0.2592 -2.2952  0.5099
  121SOPE  H12B12791   5.844   6.230   6.272 -2.8995 -0.8847 -1.1832
  121SOPE   C1112792   5.849   6.418   6.161  0.4269  1.3277  0.2881
  121SOPE  H11A12793   5.912   6.458   6.078 -0.3115  2.3498  0.2202
  121SOPE  H11B12794   5.877   6.489   6.241  0.9470  2.3864 -0.8213
  121SOPE     P12795   5.651   6.558   6.055 -0.8488  0.0259  0.3291
  121SOPE   O1312796   5.737   6.680   6.072 -0.0117  0.5446  0.4990
  121SOPE   O1412797   5.505   6.568   6.083  0.5873 -0.5428 -0.3061
  121SOPE   O1212798   5.717   6.428   6.129  0.2555  0.1427 -0.0499
  121SOPE   O1112799   5.667   6.512   5.903 -0.2741  0.4342  0.0404
  121SOPE    C112800   5.621   6.385   5.865 -0.1972  0.3129  0.0328
  121SOPE    HA12801   5.535   6.350   5.926  1.4605 -1.3502  1.4788
  121SOPE    HB12802   5.708   6.319   5.881 -0.7435 -0.3786  0.1661
  121SOPE    C212803   5.567   6.383   5.723  0.2708 -1.0406  0.6957
  121SOPE    HS12804   5.517   6.287   5.699 -1.7558 -0.1936  1.4994
  121SOPE   O2112805   5.673   6.404   5.623 -0.7507  0.0549 -0.2811
  121SOPE   C2112806   5.749   6.302   5.606  0.3159  0.0667 -1.3004
  121SOPE   O2212807   5.752   6.197   5.668 -0.0433 -0.1290  0.1222
  121SOPE   C2212808   5.848   6.330   5.494  0.0613  0.3493 -0.3446
  121SOPE   H2R12809   5.918   6.244   5.489  1.4687  1.4410  0.2450
  121SOPE   H2S12810   5.915   6.409   5.535  1.3426 -0.4350 -0.9003
  121SOPE    C312811   5.450   6.492   5.713  0.3784 -0.6378 -0.1191
  121SOPE    HX12812   5.501   6.584   5.750 -0.4499 -0.9197  1.7727
  121SOPE    HY12813   5.366   6.467   5.781 -0.3472  2.3617  0.1899
  121SOPE   O3112814   5.380   6.499   5.586  0.1476  0.2945  0.0811
  121SOPE   C3112815   5.429   6.599   5.512 -0.0966 -0.7358  0.4105
  121SOPE   O3212816   5.508   6.685   5.550  0.6118 -0.4090 -0.1436
  121SOPE   C3212817   5.379   6.596   5.371 -0.2561 -0.0584  0.6464
  121SOPE   H2X12818   5.292   6.527   5.375 -0.4051 -0.0218 -1.5093
  121SOPE   H2Y12819   5.470   6.557   5.320 -1.2874 -1.8772  0.1841
  121SOPE   C2312820   5.783   6.345   5.363 -0.0768 -0.2274  0.1993
  121SOPE   H3R12821   5.700   6.273   5.344 -1.4845  0.9837  1.6005
  121SOPE   H3S12822   5.863   6.329   5.288 -0.9547  0.1442 -0.8306
  121SOPE   C2412823   5.735   6.486   5.327  0.3842  0.3425 -0.4788
  121SOPE   H4R12824   5.698   6.467   5.224  3.7618 -3.6205 -1.0781
  121SOPE   H4S12825   5.671   6.545   5.397  3.4890  2.7381  0.4653
  121SOPE   C2512826   5.861   6.575   5.313 -0.7844  0.3523 -0.3263
  121SOPE   H5R12827   5.921   6.577   5.407 -0.3657 -5.3225 -0.3355
  121SOPE   H5S12828   5.931   6.534   5.237 -0.5175  1.5198 -0.7226
  121SOPE   C2612829   5.827   6.719   5.274 -0.2865  0.5311  0.0962
  121SOPE   H6R12830   5.760   6.715   5.185 -0.4587  1.7355  0.1572
  121SOPE   H6S12831   5.774   6.763   5.363 -0.6919 -0.7582  0.4975
  121SOPE   C2712832   5.955   6.803   5.259  0.5248  0.8726 -0.9452
  121SOPE   H7R12833   6.014   6.795   5.352 -2.5081 -2.3278  0.8520
  121SOPE   H7S12834   6.022   6.765   5.179  1.0475  1.8697 -0.9883
  121SOPE   C2812835   5.932   6.955   5.235  1.2872  0.9924  0.1739
  121SOPE   H8R12836   5.843   6.977   5.298  0.0779 -1.4132 -0.6255
  121SOPE   H8S12837   6.007   7.025   5.276  0.2081  2.0820  0.3313
  121SOPE   C2912838   5.883   6.981   5.099  0.3396 -0.1482  0.5932
  121SOPE   H9112839   5.777   6.958   5.083 -0.0007 -0.0238  2.5188
  121SOPE  C21012840   5.956   7.003   4.989 -0.1976 -0.0252  0.4875
  121SOPE  H10112841   5.905   7.024   4.894  0.7707 -1.4217 -0.3574
  121SOPE  C21112842   6.102   7.028   4.998  0.1203 -0.4221 -0.2378
  121SOPE  H11R12843   6.140   7.022   5.102 -0.7094 -2.1672 -0.0149
  121SOPE  H11S12844   6.136   7.119   4.945 -1.2969  0.5582  0.5191
  121SOPE  C21212845   6.179   6.914   4.939  0.3424 -0.0119 -0.1410
  121SOPE  H12R12846   6.135   6.891   4.840  1.2759 -1.3929 -0.2474
  121SOPE  H12S12847   6.152   6.824   4.999  0.2948  0.7801  1.0426
  121SOPE  C21312848   6.332   6.935   4.939 -0.0205  0.0176 -0.7350
  121SOPE  H13R12849   6.379   6.838   4.910  2.4083  1.0990 -0.5545
  121SOPE  H13S12850   6.363   6.964   5.042 -0.1369  0.8702 -0.9382
  121SOPE  C21412851   6.373   7.047   4.838  0.4282 -0.4450  0.4956
  121SOPE  H14R12852   6.335   7.143   4.878  0.4412 -0.7214  1.1919
  121SOPE  H14S12853   6.343   7.024   4.734  1.6079  0.7744 -0.1284
  121SOPE  C21512854   6.528   7.053   4.837  0.9958 -0.0249  0.2980
  121SOPE  H15R12855   6.561   6.950   4.809  3.6889  0.0480  2.9259
  121SOPE  H15S12856   6.551   7.069   4.945 -0.2787 -2.2450  0.9188
  121SOPE  C21612857   6.584   7.173   4.750  0.6305  0.4362  0.3947
  121SOPE  H16R12858   6.543   7.268   4.791  2.7951  1.0614  1.1261
  121SOPE  H16S12859   6.530   7.164   4.653  1.8346  1.9804 -0.4351
  121SOPE  C21712860   6.736   7.181   4.743 -0.4524  0.2215 -0.2710
  121SOPE  H17R12861   6.768   7.235   4.652 -1.9801 -1.5854 -1.9319
  121SOPE  H17S12862   6.779   7.078   4.745 -1.6028 -0.3213 -2.3331
  121SOPE  C21812863   6.792   7.252   4.865 -0.1578 -0.1621  0.2335
  121SOPE  H18R12864   6.785   7.362   4.852 -1.0146 -0.1371  0.8905
  121SOPE  H18S12865   6.899   7.221   4.869 -0.6669 -2.1060 -0.3605
  121SOPE  H18T12866   6.742   7.209   4.955  2.7218 -0.9976  1.5013
  121SOPE   C3312867   5.341   6.731   5.311  0.4787 -0.4114  0.0751
  121SOPE   H3X12868   5.438   6.775   5.278  0.5719 -1.7813 -1.5550
  121SOPE   H3Y12869   5.282   6.786   5.387  1.5638  0.0599  0.5905
  121SOPE   C3412870   5.241   6.727   5.190  0.0222  0.5424 -0.3782
  121SOPE   H4X12871   5.241   6.830   5.147  0.5025  0.9785  0.6384
  121SOPE   H4Y12872   5.136   6.702   5.213  0.1728 -1.7748 -2.0531
  121SOPE   C3512873   5.289   6.628   5.084 -0.1572 -0.0886 -0.0557
  121SOPE   H5X12874   5.259   6.527   5.120  1.3094 -1.4676 -2.5734
  121SOPE   H5Y12875   5.399   6.627   5.070  0.0933  1.3728  1.5376
  121SOPE   C3612876   5.224   6.654   4.941 -0.0915  0.1937 -0.3387
  121SOPE   H6X12877   5.115   6.657   4.966  0.2572  3.3686  1.0860
  121SOPE   H6Y12878   5.237   6.567   4.874  0.0986  2.2275 -3.0138
  121SOPE   C3712879   5.272   6.778   4.872  0.4541 -0.7816 -0.1708
  121SOPE   H7X12880   5.252   6.876   4.921 -0.8824 -0.3533 -1.5091
  121SOPE   H7Y12881   5.208   6.773   4.782 -1.5794 -0.2527  1.2080
  121SOPE   C3812882   5.415   6.772   4.837  0.0649 -0.0213 -0.1297
  121SOPE   H8X12883   5.436   6.664   4.827 -0.1036 -0.2757  2.1257
  121SOPE   H8Y12884   5.469   6.808   4.928  0.4685  0.6874 -0.6424
  121SOPE   C3912885   5.465   6.850   4.712 -0.5609 -0.9988 -0.2657
  121SOPE   H9X12886   5.438   6.957   4.708  1.2495 -0.5100  0.2703
  121SOPE   H9Y12887   5.428   6.818   4.612  1.8730 -0.2035 -1.4391
  121SOPE  C31012888   5.616   6.853   4.692 -0.5544  0.5998 -0.3323
  121SOPE  H10X12889   5.663   6.921   4.765 -1.5305  0.0659  0.8112
  121SOPE  H10Y12890   5.647   6.879   4.589  2.7834  0.4778  0.5903
  121SOPE  C31112891   5.680   6.718   4.711  0.0205  0.1058  0.5465
  121SOPE  H11X12892   5.649   6.638   4.641  0.2008  0.4676  0.0574
  121SOPE  H11Y12893   5.652   6.686   4.814  0.7184 -1.5590  0.2364
  121SOPE  C31212894   5.838   6.729   4.712  0.6247 -0.6529 -0.2072
  121SOPE  H12X12895   5.860   6.781   4.807 -0.7973 -0.7811  0.2155
  121SOPE  H12Y12896   5.877   6.776   4.620  2.0239 -0.6827  0.3653
  121SOPE  C31312897   5.911   6.594   4.732  0.2163 -0.3865  0.2385
  121SOPE  H13X12898   5.846   6.538   4.803 -0.5032 -0.9487 -0.8493
  121SOPE  H13Y12899   6.009   6.620   4.779  0.2679 -1.4549  0.7402
  121SOPE  C31412900   5.927   6.509   4.596  0.7110 -0.0443  0.1888
  121SOPE  H14X12901   5.965   6.561   4.505 -0.3567  0.6632  0.1255
  121SOPE  H14Y12902   5.827   6.478   4.558  0.4495  0.9053  0.0867
  121SOPE  C31512903   6.024   6.390   4.617 -0.3940  0.0495 -0.0014
  121SOPE  H15X12904   5.968   6.305   4.661 -2.2808  0.7082 -1.0443
  121SOPE  H15Y12905   6.094   6.411   4.700 -1.9407  0.9742  1.1190
  121SOPE  C31612906   6.088   6.348   4.485 -0.1691 -0.5650  0.5230
  121SOPE  H16X12907   6.150   6.435   4.455  0.8167 -0.8491  1.6716
  121SOPE  H16Y12908   6.009   6.343   4.408  1.5949  0.3135 -1.3849
  121SOPE  C31712909   6.165   6.219   4.490  0.5612 -0.0294 -0.1277
  121SOPE  H17X12910   6.100   6.128   4.487 -0.2382  0.5610 -1.1611
  121SOPE  H17Y12911   6.221   6.202   4.585  0.1907 -0.1482  0.0697
  121SOPE  C31812912   6.265   6.194   4.379 -0.2115 -0.6430 -1.2417
  121SOPE  H18X12913   6.343   6.272   4.388 -0.4150 -0.5183 -0.5316
  121SOPE  H18Y12914   6.222   6.215   4.278 -2.1445 -0.7855 -0.4646
  121SOPE  H18Z12915   6.317   6.098   4.396 -0.0208 -0.0600  1.7418
  122SOPE     N12916   6.880   6.971   5.859  0.0226  0.1078 -0.1106
  122SOPE   HN112917   6.836   6.878   5.873  0.5729 -0.0721  0.4382
  122SOPE   HN212918   6.945   6.962   5.779 -0.7969 -3.4583 -0.4645
  122SOPE   HN312919   6.936   6.998   5.942 -0.2476 -0.8536  0.3920
  122SOPE   C1212920   6.769   7.074   5.836 -0.5196  0.0640 -0.3748
  122SOPE  H12A12921   6.736   7.056   5.731 -0.8014 -1.3871 -0.0460
  122SOPE  H12B12922   6.822   7.171   5.837 -0.1225 -0.1572  0.4131
  122SOPE   C1112923   6.634   7.060   5.927  0.2505  0.0545 -0.5409
  122SOPE  H11A12924   6.622   6.950   5.933 -0.7217  0.1065 -1.4006
  122SOPE  H11B12925   6.556   7.112   5.868  0.0213  1.7984  1.2465
  122SOPE     P12926   6.533   7.138   6.159  0.3460  0.0360  0.4432
  122SOPE   O1312927   6.473   7.267   6.118 -0.5383 -0.3224 -0.6605
  122SOPE   O1412928   6.590   7.114   6.293 -0.2736 -0.0179  0.0954
  122SOPE   O1212929   6.649   7.115   6.055 -0.1047  0.0726  0.9337
  122SOPE   O1112930   6.433   7.022   6.118  0.2898  1.0780  0.0614
  122SOPE    C112931   6.291   7.045   6.106  0.6922 -0.4103  0.8866
  122SOPE    HA12932   6.252   7.140   6.147 -1.9312 -0.7950 -0.5977
  122SOPE    HB12933   6.237   6.970   6.167 -0.3987  0.0561  0.5030
  122SOPE    C212934   6.238   7.045   5.958 -0.0748 -1.1280 -0.4116
  122SOPE    HS12935   6.132   7.012   5.967  0.3002 -1.3238  4.8402
  122SOPE   O2112936   6.322   6.942   5.896 -0.6125 -0.5781  0.3644
  122SOPE   C2112937   6.268   6.865   5.806  0.3195  0.1154 -0.6024
  122SOPE   O2212938   6.155   6.872   5.757  0.7531 -0.1288  0.7037
  122SOPE   C2212939   6.383   6.770   5.762  0.5930 -0.7996 -0.8443
  122SOPE   H2R12940   6.330   6.674   5.740  0.9474 -1.8817  2.8067
  122SOPE   H2S12941   6.454   6.754   5.845 -0.8565 -1.0771  0.3576
  122SOPE    C312942   6.256   7.176   5.881  0.3825 -0.0767  0.7571
  122SOPE    HX12943   6.363   7.170   5.852  0.2862 -0.0646  0.3956
  122SOPE    HY12944   6.249   7.271   5.938 -0.1563  2.0318 -2.6204
  122SOPE   O3112945   6.157   7.181   5.772 -0.2319  0.4383  0.1816
  122SOPE   C3112946   6.197   7.242   5.666 -0.2812 -0.0121  0.1805
  122SOPE   O3212947   6.305   7.299   5.659 -0.4358  0.0077  0.5509
  122SOPE   C3212948   6.107   7.224   5.543 -0.8180  0.8123  0.4243
  122SOPE   H2X12949   5.999   7.226   5.568 -0.5280 -3.0596  2.3637
  122SOPE   H2Y12950   6.128   7.123   5.503 -1.4018  0.7212  0.3479
  122SOPE   C2312951   6.465   6.816   5.638 -0.6988  0.1321  0.6481
  122SOPE   H3R12952   6.546   6.740   5.634 -1.1179 -0.4059  2.1931
  122SOPE   H3S12953   6.516   6.914   5.649  0.9364 -0.8048  1.7225
  122SOPE   C2412954   6.386   6.796   5.509 -0.1718  0.2689  0.4353
  122SOPE   H4R12955   6.468   6.779   5.436  1.1164  0.0329  1.9386
  122SOPE   H4S12956   6.320   6.707   5.515  1.6587 -0.9717  2.8235
  122SOPE   C2512957   6.300   6.915   5.459 -0.1173  0.3435  0.0044
  122SOPE   H5R12958   6.248   6.889   5.364 -0.6798  0.5581  0.2508
  122SOPE   H5S12959   6.218   6.934   5.531  0.3091  0.4193  0.4671
  122SOPE   C2612960   6.381   7.047   5.435 -0.2433  0.4425  0.5335
  122SOPE   H6R12961   6.306   7.124   5.408 -1.3555  0.0100  2.2493
  122SOPE   H6S12962   6.429   7.077   5.531  0.6971 -0.6134  0.4039
  122SOPE   C2712963   6.485   7.019   5.319  0.2841 -0.2710 -0.1135
  122SOPE   H7R12964   6.574   6.976   5.369  0.9493  0.0070 -1.0323
  122SOPE   H7S12965   6.456   6.936   5.250  0.0754 -0.5277  0.2816
  122SOPE   C2812966   6.521   7.137   5.238 -0.1180  0.0210  0.3873
  122SOPE   H8R12967   6.602   7.113   5.167 -0.8677 -2.1520  0.2392
  122SOPE   H8S12968   6.430   7.155   5.177  1.5634 -0.3054 -2.2881
  122SOPE   C2912969   6.545   7.250   5.331 -0.4664  0.1329 -0.0960
  122SOPE   H9112970   6.446   7.290   5.359 -0.6085  0.4980 -1.0944
  122SOPE  C21012971   6.662   7.287   5.384 -0.0039  0.0743  0.2597
  122SOPE  H10112972   6.661   7.379   5.444 -1.6684 -0.3339  0.8822
  122SOPE  C21112973   6.802   7.228   5.356  0.6721 -0.9347 -0.5033
  122SOPE  H11R12974   6.810   7.191   5.251  0.9225 -2.9669  0.2108
  122SOPE  H11S12975   6.816   7.149   5.433 -1.1142 -0.2938  0.4846
  122SOPE  C21212976   6.922   7.326   5.380  0.2685  0.0626 -0.7766
  122SOPE  H12R12977   6.881   7.422   5.343  0.8765 -0.1574 -2.0284
  122SOPE  H12S12978   7.006   7.303   5.312  1.4315  3.2557 -0.4958
  122SOPE  C21312979   6.975   7.341   5.523  0.2399  1.1947 -0.2040
  122SOPE  H13R12980   7.039   7.257   5.556 -1.3416 -0.1762 -0.5656
  122SOPE  H13S12981   6.884   7.347   5.587  1.9172  4.0555  2.0324
  122SOPE  C21412982   7.034   7.478   5.537  0.0651  0.4652 -0.5895
  122SOPE  H14R12983   6.969   7.556   5.493  0.7762  2.0299  1.0698
  122SOPE  H14S12984   7.133   7.467   5.487  0.3533 -2.8566  0.5760
  122SOPE  C21512985   7.053   7.532   5.679  1.1240 -0.2303 -0.3481
  122SOPE  H15R12986   7.088   7.441   5.732  2.5901 -0.6803 -2.0352
  122SOPE  H15S12987   6.949   7.560   5.709  1.7020  1.7720 -0.1389
  122SOPE  C21612988   7.141   7.652   5.689 -0.3646 -0.3188 -0.5545
  122SOPE  H16R12989   7.085   7.733   5.638  0.1682 -0.5591 -1.5376
  122SOPE  H16S12990   7.239   7.643   5.636  0.5779  0.9954  0.8936
  122SOPE  C21712991   7.169   7.700   5.828 -0.1822 -0.1635 -0.7523
  122SOPE  H17R12992   7.205   7.610   5.882 -1.9073 -1.1912 -1.2766
  122SOPE  H17S12993   7.081   7.747   5.877  0.3228  0.8965 -0.8390
  122SOPE  C21812994   7.279   7.807   5.840 -0.5085  0.3938  0.4360
  122SOPE  H18R12995   7.354   7.768   5.768  0.6634 -1.2711  2.5510
  122SOPE  H18S12996   7.323   7.806   5.941 -0.2871 -0.6943  0.3296
  122SOPE  H18T12997   7.237   7.906   5.812  0.8135  1.1874  1.2265
  122SOPE   C3312998   6.130   7.340   5.449 -0.2441  0.8489 -0.5571
  122SOPE   H3X12999   6.228   7.321   5.401 -0.4310  0.4450 -0.7923
  122SOPE   H3Y13000   6.131   7.440   5.496  0.3324  0.1492  0.9664
  122SOPE   C3413001   6.035   7.346   5.331  1.3335 -0.0290  0.1104
  122SOPE   H4X13002   5.943   7.405   5.349  1.2774  0.8208 -2.6318
  122SOPE   H4Y13003   5.999   7.244   5.304  3.2474 -0.9030  0.8002
  122SOPE   C3513004   6.093   7.423   5.207 -0.6930  0.1526  0.4036
  122SOPE   H5X13005   6.173   7.369   5.151 -0.6285  1.7180 -1.0544
  122SOPE   H5Y13006   6.134   7.515   5.255 -5.0749  1.3454  2.0981
  122SOPE   C3613007   5.992   7.470   5.110  0.1170  0.2435  0.0813
  122SOPE   H6X13008   6.043   7.533   5.034  0.5110  2.1739  1.9022
  122SOPE   H6Y13009   5.925   7.537   5.168  1.2729 -0.0985  1.8758
  122SOPE   C3713010   5.917   7.364   5.037 -0.0824  0.2616 -0.0408
  122SOPE   H7X13011   5.848   7.313   5.108 -1.3328 -0.5736 -1.8220
  122SOPE   H7Y13012   5.983   7.297   4.978  0.6324 -0.9672  2.1059
  122SOPE   C3813013   5.826   7.432   4.927  0.4812 -0.0065  0.1963
  122SOPE   H8X13014   5.896   7.451   4.843  1.9730  1.0632  1.6478
  122SOPE   H8Y13015   5.781   7.526   4.964  2.6796  0.1909  2.4766
  122SOPE   C3913016   5.709   7.343   4.885  0.4844 -0.0896  0.2019
  122SOPE   H9X13017   5.616   7.402   4.870 -0.9965 -2.5274 -0.4892
  122SOPE   H9Y13018   5.678   7.280   4.970  0.1716  1.0075  0.9114
  122SOPE  C31013019   5.737   7.265   4.759 -0.2672 -0.4248 -0.2239
  122SOPE  H10X13020   5.664   7.185   4.735 -1.1886  0.7986 -1.5457
  122SOPE  H10Y13021   5.836   7.220   4.781 -0.0999 -1.1134 -2.3174
  122SOPE  C31113022   5.748   7.334   4.622 -0.4607 -0.0210 -0.1566
  122SOPE  H11X13023   5.758   7.258   4.542  0.9782  0.1896 -0.1977
  122SOPE  H11Y13024   5.842   7.393   4.623  0.0253 -0.7759 -0.2978
  122SOPE  C31213025   5.636   7.437   4.588 -0.7875 -0.6673 -0.0486
  122SOPE  H12X13026   5.660   7.526   4.649  1.8496 -1.5758  0.2858
  122SOPE  H12Y13027   5.532   7.401   4.605 -0.8138 -1.1757 -1.2627
  122SOPE  C31313028   5.657   7.497   4.444  0.1465  0.1518 -1.2444
  122SOPE  H13X13029   5.667   7.425   4.361  1.5455 -0.6396 -0.4090
  122SOPE  H13Y13030   5.753   7.551   4.454 -0.7082  1.7499 -1.4847
  122SOPE  C31413031   5.533   7.591   4.408 -0.1515  0.5066 -0.4251
  122SOPE  H14X13032   5.552   7.680   4.473  1.3025 -0.7139  0.8594
  122SOPE  H14Y13033   5.437   7.548   4.443 -0.1109  1.3864  0.8069
  122SOPE  C31513034   5.540   7.647   4.262 -0.2021 -0.5039  0.4305
  122SOPE  H15X13035   5.534   7.565   4.187  0.4484  0.0104 -0.1878
  122SOPE  H15Y13036   5.640   7.695   4.258 -0.9495  1.0631  0.1619
  122SOPE  C31613037   5.439   7.766   4.241 -0.1153  0.8238 -0.2416
  122SOPE  H16X13038   5.463   7.847   4.313  1.3960 -0.2846  0.5314
  122SOPE  H16Y13039   5.336   7.732   4.262  0.4841 -1.4532 -0.8259
  122SOPE  C31713040   5.441   7.810   4.091 -0.0695  0.0667  0.4398
  122SOPE  H17X13041   5.405   7.730   4.023  1.1468 -0.5068  0.4613
  122SOPE  H17Y13042   5.545   7.843   4.069  0.1282 -1.6474 -1.3783
  122SOPE  C31813043   5.360   7.940   4.066  0.2007  1.0014 -0.5121
  122SOPE  H18X13044   5.383   8.022   4.138 -1.0287  2.5337 -1.8147
  122SOPE  H18Y13045   5.250   7.923   4.076  0.0396  3.1558  2.1038
  122SOPE  H18Z13046   5.371   7.985   3.966  1.1617 -0.4992 -1.0863
  123SOPE     N13047   3.721   1.741   1.502  0.5354  0.3973 -0.0270
  123SOPE   HN113048   3.811   1.690   1.496 -0.1361 -0.8327  0.2247
  123SOPE   HN213049   3.650   1.667   1.486  0.1605  0.3657  1.6576
  123SOPE   HN313050   3.715   1.809   1.424  0.6403  0.7926  0.3033
  123SOPE   C1213051   3.693   1.809   1.634 -0.5160 -0.1209  0.6961
  123SOPE  H12A13052   3.593   1.858   1.630  0.0011  0.8112 -1.2090
  123SOPE  H12B13053   3.761   1.896   1.645  0.4437 -0.9394  1.2498
  123SOPE   C1113054   3.707   1.724   1.761  0.0077 -0.1632  0.1469
  123SOPE  H11A13055   3.701   1.786   1.853  1.3739 -1.2521  0.9924
  123SOPE  H11B13056   3.810   1.684   1.757  0.0778  0.0961 -0.9608
  123SOPE     P13057   3.532   1.608   1.893  0.3504  0.1625 -0.2076
  123SOPE   O1313058   3.429   1.501   1.887 -0.3422 -0.0924  0.3034
  123SOPE   O1413059   3.485   1.738   1.950 -0.1459  0.0912 -0.1442
  123SOPE   O1213060   3.604   1.625   1.755  0.2740  0.3129  0.0160
  123SOPE   O1113061   3.646   1.549   1.989 -0.0166 -0.0128  0.3147
  123SOPE    C113062   3.637   1.564   2.132 -0.4797  0.4387 -0.2873
  123SOPE    HA13063   3.665   1.464   2.173 -2.9580 -0.5791 -1.0128
  123SOPE    HB13064   3.533   1.583   2.166 -0.8002  2.1691 -2.1506
  123SOPE    C213065   3.727   1.673   2.195 -0.0181  0.0144 -0.1196
  123SOPE    HS13066   3.748   1.639   2.299 -0.8739  0.2836  0.1420
  123SOPE   O2113067   3.658   1.793   2.196  0.0417 -0.0491 -0.1029
  123SOPE   C2113068   3.675   1.870   2.303  0.0351 -0.0646  0.1559
  123SOPE   O2213069   3.745   1.854   2.399  0.7197 -0.3980  0.1124
  123SOPE   C2213070   3.609   2.006   2.292  0.3581  0.2017 -0.0163
  123SOPE   H2R13071   3.646   2.050   2.197  1.1507 -1.8326 -0.6791
  123SOPE   H2S13072   3.646   2.066   2.377  0.1646  1.2249 -0.6542
  123SOPE    C313073   3.865   1.680   2.123  0.4628 -0.3138 -0.7058
  123SOPE    HX13074   3.853   1.718   2.019 -0.8627 -1.8973 -1.1415
  123SOPE    HY13075   3.887   1.573   2.106  1.1904 -0.3518  0.4231
  123SOPE   O3113076   3.968   1.746   2.206  0.0356 -0.2662  0.3832
  123SOPE   C3113077   4.030   1.665   2.283 -0.2363  0.3169  0.0356
  123SOPE   O3213078   4.039   1.544   2.276 -0.3085  0.6131 -0.3936
  123SOPE   C3213079   4.088   1.757   2.394 -1.2868 -0.1711  0.1458
  123SOPE   H2X13080   4.024   1.848   2.391 -1.2457 -0.0760  1.7499
  123SOPE   H2Y13081   4.185   1.781   2.345 -1.1090  1.3710  1.2406
  123SOPE   C2313082   3.453   1.996   2.293  0.3550 -0.1047 -0.2551
  123SOPE   H3R13083   3.418   1.939   2.204  2.2657 -1.7916  0.0309
  123SOPE   H3S13084   3.409   2.097   2.277  2.6217  1.3849  2.3818
  123SOPE   C2413085   3.395   1.939   2.423 -0.5344 -0.3237  0.0335
  123SOPE   H4R13086   3.453   1.848   2.450 -0.6024 -0.7587 -1.2728
  123SOPE   H4S13087   3.406   2.014   2.505  1.2062  1.2413 -1.5766
  123SOPE   C2513088   3.244   1.903   2.423 -0.5921  0.0654 -0.1239
  123SOPE   H5R13089   3.224   1.870   2.527  1.8330  0.2493  0.4232
  123SOPE   H5S13090   3.180   1.989   2.394  0.5421  1.4536  1.3760
  123SOPE   C2613091   3.220   1.786   2.329 -0.8024 -0.2210 -0.4787
  123SOPE   H6R13092   3.112   1.776   2.301 -0.4446  1.5232 -2.6610
  123SOPE   H6S13093   3.258   1.797   2.225 -3.2117  3.3990 -1.1126
  123SOPE   C2713094   3.280   1.652   2.376  0.2760  0.1582 -0.9914
  123SOPE   H7R13095   3.383   1.660   2.417  0.4585 -0.1152 -1.3980
  123SOPE   H7S13096   3.217   1.619   2.462  1.3606 -1.7164 -0.8869
  123SOPE   C2813097   3.271   1.529   2.281  0.2917  0.4876  0.3448
  123SOPE   H8R13098   3.322   1.559   2.186  0.2992 -2.1199 -0.5101
  123SOPE   H8S13099   3.329   1.441   2.317  0.9844  0.1686 -1.4609
  123SOPE   C2913100   3.128   1.474   2.242  0.6681  0.0682  1.3748
  123SOPE   H9113101   3.085   1.531   2.159  0.8213  0.2707  1.4341
  123SOPE  C21013102   3.062   1.375   2.304 -0.1781 -0.1281 -0.2246
  123SOPE  H10113103   2.962   1.354   2.263  0.7150  0.1240 -2.5658
  123SOPE  C21113104   3.111   1.295   2.423  0.2800 -0.2686 -0.4535
  123SOPE  H11R13105   3.041   1.320   2.505  1.5640 -0.3062  0.6810
  123SOPE  H11S13106   3.208   1.328   2.466 -0.6538 -0.1612  1.5991
  123SOPE  C21213107   3.124   1.148   2.387  0.0484 -0.7512  0.0731
  123SOPE  H12R13108   3.207   1.135   2.314 -1.1076 -1.4912 -1.1410
  123SOPE  H12S13109   3.029   1.124   2.334  0.1122 -0.6719 -0.0786
  123SOPE  C21313110   3.154   1.064   2.506 -0.0385 -0.4561  1.2324
  123SOPE  H13R13111   3.055   1.057   2.555  0.2012  0.3836  1.8684
  123SOPE  H13S13112   3.228   1.125   2.563  0.1828  0.0532  0.4186
  123SOPE  C21413113   3.211   0.930   2.467  0.4277  0.0644  0.1663
  123SOPE  H14R13114   3.306   0.924   2.410  0.4349 -1.1199  0.3068
  123SOPE  H14S13115   3.131   0.884   2.404  0.2799  0.0585  0.3588
  123SOPE  C21513116   3.230   0.829   2.584 -0.0827 -0.5018  0.8075
  123SOPE  H15R13117   3.315   0.882   2.632 -1.5360  1.5659  1.1804
  123SOPE  H15S13118   3.260   0.725   2.558 -2.5812 -1.6641  2.4406
  123SOPE  C21613119   3.111   0.815   2.685 -0.7343  0.2821  0.3145
  123SOPE  H16R13120   3.030   0.771   2.622 -0.9302 -0.2528  0.9384
  123SOPE  H16S13121   3.073   0.910   2.728 -0.5515  1.8842 -2.8516
  123SOPE  C21713122   3.132   0.705   2.789 -0.0485  0.3691  0.0869
  123SOPE  H17R13123   3.049   0.702   2.863 -1.9323  1.4568 -1.9296
  123SOPE  H17S13124   3.221   0.726   2.853  0.2206 -2.3070  0.6186
  123SOPE  C21813125   3.141   0.557   2.731 -0.7907  0.3920  0.1164
  123SOPE  H18R13126   3.159   0.484   2.812  2.1076  0.6946 -0.2083
  123SOPE  H18S13127   3.226   0.541   2.660 -1.1204  1.4218 -0.5265
  123SOPE  H18T13128   3.046   0.531   2.680 -0.7079 -1.4640  0.8960
  123SOPE   C3313129   4.107   1.696   2.536 -0.3737 -0.5327 -0.7499
  123SOPE   H3X13130   4.193   1.739   2.591  0.1183 -0.5372 -1.5002
  123SOPE   H3Y13131   4.113   1.586   2.526  0.9498 -0.2775 -3.3897
  123SOPE   C3413132   3.981   1.720   2.615  0.4425  0.0202  0.0477
  123SOPE   H4X13133   3.985   1.655   2.705 -4.5315  0.3276  0.6538
  123SOPE   H4Y13134   3.893   1.684   2.558 -0.3721 -0.8319  1.7840
  123SOPE   C3513135   3.960   1.866   2.655 -0.5973 -0.2575 -0.1537
  123SOPE   H5X13136   3.865   1.908   2.615 -0.1995  0.0925 -0.7384
  123SOPE   H5Y13137   4.039   1.937   2.623 -1.9203  0.9833 -0.7325
  123SOPE   C3613138   3.967   1.879   2.807 -0.0670 -0.4117 -0.1085
  123SOPE   H6X13139   4.066   1.836   2.832  0.5227  0.2760 -1.2371
  123SOPE   H6Y13140   3.884   1.822   2.853 -0.4172 -0.1795 -0.4524
  123SOPE   C3713141   3.971   2.024   2.857  0.4214  0.1493 -0.4503
  123SOPE   H7X13142   3.881   2.082   2.827  0.3974 -0.2375 -1.1476
  123SOPE   H7Y13143   4.067   2.073   2.829  0.5776  1.4289  2.1831
  123SOPE   C3813144   3.953   2.029   3.009 -0.1957 -0.6846 -0.0722
  123SOPE   H8X13145   4.041   1.969   3.041 -0.0808 -0.1022  0.7137
  123SOPE   H8Y13146   3.861   1.978   3.042 -0.2813  0.0351  0.8164
  123SOPE   C3913147   3.959   2.174   3.074  0.2390 -0.3803 -0.2792
  123SOPE   H9X13148   3.870   2.236   3.050  1.1718  0.4015 -1.8050
  123SOPE   H9Y13149   4.046   2.233   3.038 -0.4685  2.4979  2.4514
  123SOPE  C31013150   3.970   2.156   3.230 -0.3221 -0.0879 -0.7195
  123SOPE  H10X13151   4.045   2.228   3.270  1.7254 -3.1134  1.1055
  123SOPE  H10Y13152   4.020   2.062   3.263 -0.3647 -0.1440 -0.8159
  123SOPE  C31113153   3.841   2.192   3.304 -0.2979  0.3728  0.0813
  123SOPE  H11X13154   3.760   2.124   3.268 -0.0817  0.0633  0.1849
  123SOPE  H11Y13155   3.812   2.299   3.301  0.4447  0.6132  1.5033
  123SOPE  C31213156   3.856   2.130   3.449  0.8789 -0.6564 -0.8425
  123SOPE  H12X13157   3.937   2.185   3.501 -1.7097  0.6843  1.8854
  123SOPE  H12Y13158   3.875   2.021   3.437 -1.6558 -1.1435 -0.6830
  123SOPE  C31313159   3.724   2.134   3.535  0.3354 -0.2210 -0.0741
  123SOPE  H13X13160   3.735   2.070   3.625 -0.4209 -1.2044 -0.6743
  123SOPE  H13Y13161   3.637   2.096   3.477  0.3409  1.8651 -1.4930
  123SOPE  C31413162   3.683   2.271   3.580  0.5822  0.5804 -0.1113
  123SOPE  H14X13163   3.705   2.345   3.500  0.0644  0.6329 -0.2045
  123SOPE  H14Y13164   3.739   2.307   3.669 -1.3305  0.0276  1.3440
  123SOPE  C31513165   3.534   2.286   3.608 -0.2910 -0.0347  0.2490
  123SOPE  H15X13166   3.497   2.216   3.686 -2.5190  0.9377  0.0874
  123SOPE  H15Y13167   3.483   2.262   3.513  1.1515  0.6486 -0.7282
  123SOPE  C31613168   3.493   2.430   3.649  0.0731 -0.1880  0.3755
  123SOPE  H16X13169   3.545   2.456   3.744  1.2209  1.7454 -0.7567
  123SOPE  H16Y13170   3.385   2.420   3.673  0.1380 -0.3970  0.5804
  123SOPE  C31713171   3.520   2.533   3.543  0.4080 -0.1514  0.1592
  123SOPE  H17X13172   3.495   2.486   3.446  3.3686 -1.6354  0.0446
  123SOPE  H17Y13173   3.628   2.560   3.542  0.1712  0.7805 -0.6894
  123SOPE  C31813174   3.427   2.659   3.565 -0.7626 -0.1619 -0.5995
  123SOPE  H18X13175   3.446   2.719   3.473 -1.3916 -2.9365 -2.5896
  123SOPE  H18Y13176   3.458   2.723   3.651 -1.1795 -1.0388  0.2038
  123SOPE  H18Z13177   3.324   2.625   3.586 -0.8844 -0.0237 -0.9695
  124SOPE     N13178   5.568   4.741   1.443 -0.5276 -0.6542  0.1121
  124SOPE   HN113179   5.672   4.741   1.449 -0.5381 -2.3417  0.5005
  124SOPE   HN213180   5.540   4.646   1.475  0.6791 -0.1700  2.7484
  124SOPE   HN313181   5.524   4.743   1.349 -2.1798 -1.9972  0.8200
  124SOPE   C1213182   5.512   4.845   1.539  0.2179  0.0067 -0.7434
  124SOPE  H12A13183   5.402   4.855   1.526  0.1311 -0.2943 -0.2597
  124SOPE  H12B13184   5.552   4.942   1.501 -1.1588  0.1006 -2.0299
  124SOPE   C1113185   5.542   4.809   1.686 -0.3323  0.0608  0.9104
  124SOPE  H11A13186   5.479   4.718   1.692  0.2779 -0.2599  2.3926
  124SOPE  H11B13187   5.510   4.890   1.755  0.2274  2.3819 -1.4459
  124SOPE     P13188   5.753   4.754   1.832 -0.0616 -0.1743  0.2903
  124SOPE   O1313189   5.896   4.780   1.817 -0.1311  0.6666  0.0623
  124SOPE   O1413190   5.711   4.622   1.889 -0.1487 -0.3761  0.0028
  124SOPE   O1213191   5.680   4.784   1.697  0.1912 -0.2471 -0.2856
  124SOPE   O1113192   5.691   4.871   1.920 -0.3161 -0.3151  0.4598
  124SOPE    C113193   5.763   4.994   1.919 -0.0617 -0.0894 -0.1370
  124SOPE    HA13194   5.777   5.033   1.816 -1.6835  0.9923  0.0346
  124SOPE    HB13195   5.863   4.977   1.963  0.2414 -1.5527 -1.3603
  124SOPE    C213196   5.680   5.101   2.012  0.7029 -0.4017 -0.0982
  124SOPE    HS13197   5.734   5.196   2.032  2.1741 -1.4218  0.7528
  124SOPE   O2113198   5.662   5.043   2.141  0.4024  0.0493  0.1362
  124SOPE   C2113199   5.771   5.051   2.215 -0.9287 -0.0196 -0.7691
  124SOPE   O2213200   5.875   5.109   2.187 -0.0052 -0.4850  0.5110
  124SOPE   C2213201   5.755   4.980   2.347  0.3019  0.1453 -0.0101
  124SOPE   H2R13202   5.824   5.026   2.421 -0.8690  1.0049  0.5584
  124SOPE   H2S13203   5.789   4.874   2.351  2.2137  0.7579  0.3223
  124SOPE    C313204   5.538   5.129   1.949  0.1953 -0.6117 -0.0038
  124SOPE    HX13205   5.484   5.033   1.933 -0.5965 -0.3661  1.1238
  124SOPE    HY13206   5.568   5.172   1.852  0.5814 -3.2745 -1.1250
  124SOPE   O3113207   5.463   5.224   2.029 -0.2923 -0.1966  0.4788
  124SOPE   C3113208   5.365   5.185   2.108  0.3861 -0.5173 -1.3971
  124SOPE   O3213209   5.340   5.071   2.140  0.1605  0.5893 -0.4489
  124SOPE   C3213210   5.296   5.320   2.159  0.6615 -0.3044 -0.5429
  124SOPE   H2X13211   5.192   5.280   2.163  1.1507 -1.5137  0.3502
  124SOPE   H2Y13212   5.317   5.397   2.083  0.4657 -1.5802 -1.9221
  124SOPE   C2313213   5.611   4.965   2.402  0.5381  0.2706  0.5108
  124SOPE   H3R13214   5.554   4.913   2.322 -0.5717  0.7053  1.0076
  124SOPE   H3S13215   5.575   5.070   2.406  1.4135  0.5959 -0.0122
  124SOPE   C2413216   5.606   4.903   2.536  0.1550 -0.1784 -0.0089
  124SOPE   H4R13217   5.500   4.908   2.571 -0.1517 -1.0316 -0.8067
  124SOPE   H4S13218   5.639   4.797   2.531  2.9231  0.6457 -0.3275
  124SOPE   C2513219   5.699   4.975   2.638  0.0865 -0.1042 -0.0482
  124SOPE   H5R13220   5.808   4.969   2.616  0.1500  0.4099  0.1139
  124SOPE   H5S13221   5.675   5.084   2.634 -3.7777 -0.9026 -0.4533
  124SOPE   C2613222   5.672   4.921   2.775  0.3338  0.4421 -0.6625
  124SOPE   H6R13223   5.644   4.814   2.777 -0.0445  0.5362 -0.9604
  124SOPE   H6S13224   5.766   4.929   2.834 -0.6185  0.1666  0.9467
  124SOPE   C2713225   5.563   4.983   2.857  1.1508  0.6088  0.7949
  124SOPE   H7R13226   5.596   5.089   2.869  2.9198 -0.1492  2.9309
  124SOPE   H7S13227   5.464   4.993   2.808  1.5854  1.1983  0.0204
  124SOPE   C2813228   5.535   4.910   2.994  0.1379  0.1627 -0.4404
  124SOPE   H8R13229   5.445   4.955   3.040  0.8361 -0.5809  1.6858
  124SOPE   H8S13230   5.519   4.803   2.969 -1.0742  0.1227  0.4452
  124SOPE   C2913231   5.653   4.914   3.096  0.0440 -0.9810 -0.3964
  124SOPE   H9113232   5.727   4.839   3.063  1.1383  0.3461 -0.9624
  124SOPE  C21013233   5.661   4.974   3.217  0.2766  0.3547  0.0089
  124SOPE  H10113234   5.756   4.959   3.271  1.8371  1.5591 -2.3342
  124SOPE  C21113235   5.559   5.063   3.285 -0.4933  0.1643  0.9398
  124SOPE  H11R13236   5.458   5.052   3.241  0.5921 -2.2916 -1.0869
  124SOPE  H11S13237   5.587   5.167   3.257  2.2317 -0.4297  1.2670
  124SOPE  C21213238   5.561   5.055   3.437 -0.0772  0.3074 -0.6416
  124SOPE  H12R13239   5.660   5.078   3.481  0.6502 -0.5054 -1.8431
  124SOPE  H12S13240   5.516   4.963   3.481 -0.0031  0.4725 -0.2182
  124SOPE  C21313241   5.470   5.169   3.492 -0.1328 -0.1522 -0.1023
  124SOPE  H13R13242   5.364   5.134   3.494  0.1855 -1.2906 -1.8771
  124SOPE  H13S13243   5.476   5.268   3.441 -0.1515  1.1847  2.4153
  124SOPE  C21413244   5.507   5.206   3.642 -0.3506 -0.0193  0.1601
  124SOPE  H14R13245   5.430   5.277   3.678 -0.1556  1.6216 -2.5319
  124SOPE  H14S13246   5.591   5.278   3.644 -1.4858  1.2961  0.9966
  124SOPE  C21513247   5.522   5.085   3.736  0.3440 -0.0677  0.1268
  124SOPE  H15R13248   5.593   5.015   3.689 -1.1412 -0.1402 -2.0670
  124SOPE  H15S13249   5.427   5.028   3.738  0.8864 -1.0239 -1.1116
  124SOPE  C21613250   5.550   5.105   3.884  0.3222 -0.1533  0.7329
  124SOPE  H16R13251   5.655   5.143   3.887  0.3995 -0.4548  2.6613
  124SOPE  H16S13252   5.557   5.001   3.922  2.2115 -0.5442 -0.6160
  124SOPE  C21713253   5.464   5.209   3.963  0.5929 -0.3617  0.4295
  124SOPE  H17R13254   5.364   5.167   3.985  0.8957 -1.4254 -0.2143
  124SOPE  H17S13255   5.454   5.304   3.904 -1.3589 -0.3749  0.7009
  124SOPE  C21813256   5.526   5.252   4.100 -0.2637  0.1338  0.3732
  124SOPE  H18R13257   5.464   5.337   4.136 -0.7526 -0.2919  0.5417
  124SOPE  H18S13258   5.635   5.271   4.092 -0.1069 -1.3723 -1.7813
  124SOPE  H18T13259   5.503   5.169   4.171 -0.1630 -1.1811 -1.0900
  124SOPE   C3313260   5.356   5.358   2.289 -0.4840 -0.3627  0.1275
  124SOPE   H3X13261   5.353   5.466   2.315  0.0478 -0.1976 -0.4573
  124SOPE   H3Y13262   5.465   5.335   2.280  0.1343  2.4813 -0.1012
  124SOPE   C3413263   5.302   5.268   2.400  0.3898  0.5978  0.0058
  124SOPE   H4X13264   5.318   5.162   2.373  1.8686  0.8062  0.0549
  124SOPE   H4Y13265   5.196   5.294   2.424  0.6132  0.7434  0.8849
  124SOPE   C3513266   5.361   5.295   2.540 -0.8264 -1.1647  0.2219
  124SOPE   H5X13267   5.350   5.402   2.567  0.0666 -1.1729  0.6525
  124SOPE   H5Y13268   5.468   5.267   2.546  0.2903  2.5730 -0.5991
  124SOPE   C3613269   5.287   5.216   2.652  0.2301  0.2581 -0.3524
  124SOPE   H6X13270   5.318   5.110   2.650 -1.0499 -0.1572  0.7265
  124SOPE   H6Y13271   5.177   5.214   2.639 -0.1084 -1.7832  2.3527
  124SOPE   C3713272   5.331   5.274   2.788  0.2744 -0.6317 -0.9375
  124SOPE   H7X13273   5.312   5.382   2.772 -1.4398 -0.9035 -0.8164
  124SOPE   H7Y13274   5.436   5.242   2.806  1.3635  3.2196 -0.0036
  124SOPE   C3813275   5.250   5.213   2.907  0.3968 -0.2165  0.4931
  124SOPE   H8X13276   5.239   5.104   2.888 -1.5856  0.1097 -0.2528
  124SOPE   H8Y13277   5.147   5.252   2.900 -0.0271 -1.5036 -0.5269
  124SOPE   C3913278   5.314   5.243   3.042 -0.0566  0.4927 -0.4088
  124SOPE   H9X13279   5.424   5.224   3.048 -0.2943 -0.8303 -0.0163
  124SOPE   H9Y13280   5.270   5.174   3.117 -0.3794  0.1031 -0.9539
  124SOPE  C31013281   5.292   5.394   3.078  0.4411 -0.7982 -0.6581
  124SOPE  H10X13282   5.195   5.437   3.046  0.5588 -0.8566 -1.0943
  124SOPE  H10Y13283   5.357   5.460   3.018 -0.6374 -1.6332 -2.8002
  124SOPE  C31113284   5.326   5.416   3.225  0.2196  0.1191  0.0232
  124SOPE  H11X13285   5.378   5.510   3.253 -3.0380  1.6259  1.3318
  124SOPE  H11Y13286   5.390   5.330   3.253  1.5512  0.3626 -2.2046
  124SOPE  C31213287   5.203   5.427   3.316  0.2883  0.7419  0.3120
  124SOPE  H12X13288   5.168   5.322   3.326  0.1919  0.4908 -2.4363
  124SOPE  H12Y13289   5.121   5.475   3.257 -1.3427 -2.0928  0.1844
  124SOPE  C31313290   5.244   5.501   3.441 -0.0444  0.6585 -0.4773
  124SOPE  H13X13291   5.251   5.608   3.412 -0.9975  0.5706 -1.0446
  124SOPE  H13Y13292   5.339   5.456   3.478 -1.4780 -1.4299  0.7513
  124SOPE  C31413293   5.152   5.484   3.567 -0.3065 -0.0988 -0.1632
  124SOPE  H14X13294   5.117   5.379   3.572  0.7029 -0.4673 -0.6741
  124SOPE  H14Y13295   5.062   5.549   3.560  1.4572  2.2010 -2.9431
  124SOPE  C31513296   5.204   5.514   3.708  0.9348 -0.4546 -0.2468
  124SOPE  H15X13297   5.175   5.614   3.746  0.4176 -1.3260  1.7221
  124SOPE  H15Y13298   5.315   5.509   3.715  0.9437  0.4767  0.3359
  124SOPE  C31613299   5.142   5.415   3.816 -0.7096  0.1009  0.0603
  124SOPE  H16X13300   5.193   5.317   3.822  0.3449  0.6234 -0.1745
  124SOPE  H16Y13301   5.032   5.407   3.803 -0.7733  0.8890  0.0515
  124SOPE  C31713302   5.159   5.459   3.959  0.0307 -0.5015 -0.4667
  124SOPE  H17X13303   5.104   5.554   3.940 -0.1399 -0.5967 -0.4543
  124SOPE  H17Y13304   5.263   5.469   3.997 -0.7520 -1.1889  1.9808
  124SOPE  C31813305   5.074   5.376   4.059  0.1564  0.1332  0.0264
  124SOPE  H18X13306   5.136   5.293   4.100 -2.0798 -1.0869  1.0696
  124SOPE  H18Y13307   4.991   5.322   4.007 -0.2575  0.4734  0.3313
  124SOPE  H18Z13308   5.035   5.437   4.143 -0.0303  2.1536 -1.4793
  125SOPE     N13309   1.835   4.759   1.638  0.0837  0.0306  0.0651
  125SOPE   HN113310   1.806   4.739   1.540  2.2046 -0.6377 -0.4540
  125SOPE   HN213311   1.799   4.847   1.680 -2.1570 -1.8788  2.2822
  125SOPE   HN313312   1.938   4.768   1.648  0.5382 -2.1706 -2.1338
  125SOPE   C1213313   1.787   4.653   1.741  0.0943 -0.9998 -0.1175
  125SOPE  H12A13314   1.863   4.600   1.803  1.7315 -1.6644 -2.6247
  125SOPE  H12B13315   1.717   4.582   1.692 -0.9568  1.4835 -2.3568
  125SOPE   C1113316   1.687   4.718   1.846 -0.4726  0.0250 -0.4775
  125SOPE  H11A13317   1.739   4.776   1.925 -0.6390  0.0882 -0.4140
  125SOPE  H11B13318   1.630   4.635   1.893 -0.1282  1.0555  1.8264
  125SOPE     P13319   1.506   4.907   1.861 -0.0169 -0.1974 -0.0451
  125SOPE   O1313320   1.376   4.838   1.869  0.3612  0.1350  0.3463
  125SOPE   O1413321   1.504   5.039   1.787  0.6437  0.4073 -0.2844
  125SOPE   O1213322   1.599   4.804   1.778  0.3204 -0.0079  0.1063
  125SOPE   O1113323   1.580   4.916   2.001 -0.0288  0.6846 -0.7798
  125SOPE    C113324   1.645   5.038   2.040 -0.0982  0.2852 -0.5639
  125SOPE    HA13325   1.586   5.130   2.018 -0.6949  0.1430  0.4168
  125SOPE    HB13326   1.738   5.040   1.980  1.1825 -1.8443  1.2774
  125SOPE    C213327   1.684   5.043   2.192 -0.4008 -0.4642  0.1932
  125SOPE    HS13328   1.730   5.144   2.192  1.5871 -1.3467  1.3198
  125SOPE   O2113329   1.790   4.940   2.203  0.1488 -0.3593  0.4818
  125SOPE   C2113330   1.882   4.972   2.287  0.7531  0.6636 -0.4419
  125SOPE   O2213331   1.896   5.084   2.336  0.0979  0.0097 -0.6940
  125SOPE   C2213332   1.968   4.854   2.323  0.0569  0.0303  0.1908
  125SOPE   H2R13333   2.067   4.902   2.335  0.2200 -0.6245  1.6332
  125SOPE   H2S13334   1.973   4.784   2.237  0.1302  1.2706 -0.8180
  125SOPE    C313335   1.566   5.015   2.293 -0.4904  0.0538 -0.8258
  125SOPE    HX13336   1.525   4.914   2.269  1.2294 -1.0493  0.7213
  125SOPE    HY13337   1.484   5.087   2.276 -2.9513 -2.4670 -0.1318
  125SOPE   O3113338   1.614   5.025   2.431 -0.0155  0.3107 -0.1228
  125SOPE   C3113339   1.627   5.146   2.485 -0.4463 -0.4038  0.2059
  125SOPE   O3213340   1.614   5.253   2.422  0.0592 -0.7581 -0.2050
  125SOPE   C3213341   1.677   5.125   2.621 -0.4855  0.1707 -0.6385
  125SOPE   H2X13342   1.783   5.161   2.618 -0.7806  0.9115 -2.7083
  125SOPE   H2Y13343   1.681   5.018   2.652 -2.4704 -0.3472 -2.0930
  125SOPE   C2313344   1.935   4.791   2.462  0.1401  0.4443  0.7885
  125SOPE   H3R13345   1.966   4.684   2.471  0.0442  0.3997  0.5857
  125SOPE   H3S13346   1.826   4.793   2.481  0.5527 -0.3341  3.4329
  125SOPE   C2413347   2.003   4.871   2.567 -0.2088  0.0057 -0.0090
  125SOPE   H4R13348   2.114   4.862   2.565  0.0236  2.0570  2.0388
  125SOPE   H4S13349   1.991   4.980   2.547  1.2095  0.0532 -0.6605
  125SOPE   C2513350   1.959   4.835   2.706  0.9817  0.3894 -0.1209
  125SOPE   H5R13351   1.850   4.835   2.725  0.6292  0.2630 -2.0310
  125SOPE   H5S13352   2.000   4.732   2.715 -0.0895  0.0241  0.5915
  125SOPE   C2613353   2.011   4.926   2.815  0.3377 -0.3188  0.7633
  125SOPE   H6R13354   2.122   4.935   2.810  0.5392 -1.8112  2.2994
  125SOPE   H6S13355   1.967   5.024   2.785  1.8746 -0.4069 -2.0225
  125SOPE   C2713356   1.974   4.874   2.950  0.5846  0.6031  0.4709
  125SOPE   H7R13357   1.865   4.859   2.969  0.6747 -0.2998  0.2912
  125SOPE   H7S13358   2.012   4.771   2.969 -1.5579 -0.1481  0.8549
  125SOPE   C2813359   2.050   4.945   3.065 -0.2743  0.0214  0.7787
  125SOPE   H8R13360   2.043   4.893   3.163 -1.1525 -0.8645  0.2472
  125SOPE   H8S13361   2.156   4.955   3.035 -0.8870  1.5652 -0.9672
  125SOPE   C2913362   1.974   5.077   3.084  0.6495 -0.2816  0.2733
  125SOPE   H9113363   1.915   5.108   2.996  2.9957 -1.2329 -1.7147
  125SOPE  C21013364   1.984   5.158   3.189 -0.3611  0.7793 -0.6787
  125SOPE  H10113365   1.920   5.247   3.192  0.6751  1.5398 -0.8469
  125SOPE  C21113366   2.071   5.139   3.314 -0.2296 -0.2788  0.2918
  125SOPE  H11R13367   2.165   5.195   3.298 -1.1834  0.9671 -1.0084
  125SOPE  H11S13368   2.110   5.035   3.319 -2.1446 -1.0711 -0.6389
  125SOPE  C21213369   1.997   5.184   3.436 -0.3783  0.1873 -0.8223
  125SOPE  H12R13370   1.891   5.150   3.431 -0.5005  0.6304 -1.2176
  125SOPE  H12S13371   1.984   5.294   3.430 -3.3014  0.0009  1.2233
  125SOPE  C21313372   2.068   5.154   3.569  0.4892 -0.5565 -0.0772
  125SOPE  H13R13373   2.178   5.169   3.563  0.4481 -0.3619 -0.3871
  125SOPE  H13S13374   2.056   5.046   3.593  1.6858 -0.7547 -0.3452
  125SOPE  C21413375   2.017   5.241   3.690 -0.5403  0.0513 -0.8113
  125SOPE  H14R13376   2.027   5.348   3.661 -0.0292 -0.6077 -3.1832
  125SOPE  H14S13377   2.077   5.230   3.783 -0.0822  1.7828 -0.8767
  125SOPE  C21513378   1.873   5.202   3.730 -0.2032 -0.5454  0.6787
  125SOPE  H15R13379   1.813   5.179   3.639  0.8401  1.0771 -0.4545
  125SOPE  H15S13380   1.829   5.279   3.797 -1.5635 -0.2834 -0.4909
  125SOPE  C21613381   1.860   5.072   3.811 -0.7643 -0.8427 -0.1210
  125SOPE  H16R13382   1.925   5.096   3.897  1.9741 -3.0861 -1.4675
  125SOPE  H16S13383   1.914   4.991   3.756  1.7404 -0.4970  1.7562
  125SOPE  C21713384   1.714   5.034   3.851 -0.1139  0.0982  0.5874
  125SOPE  H17R13385   1.666   5.000   3.757  0.4196 -2.0445  1.0472
  125SOPE  H17S13386   1.660   5.123   3.887 -1.1714 -0.3845  0.2102
  125SOPE  C21813387   1.706   4.923   3.955 -0.8755  0.4647 -0.3874
  125SOPE  H18R13388   1.760   4.833   3.919 -1.1134  1.2538 -2.8264
  125SOPE  H18S13389   1.601   4.897   3.978 -0.6324 -1.0687 -0.9575
  125SOPE  H18T13390   1.749   4.959   4.051 -2.2141  0.3076  0.2724
  125SOPE   C3313391   1.607   5.214   2.720  0.1915 -0.0886 -0.1001
  125SOPE   H3X13392   1.497   5.198   2.718 -0.0625  1.3434  1.2858
  125SOPE   H3Y13393   1.624   5.321   2.695  0.5083 -0.3326 -0.9147
  125SOPE   C3413394   1.665   5.192   2.866  0.7555  0.7978  0.5705
  125SOPE   H4X13395   1.760   5.249   2.880  1.1808  0.0410  0.8229
  125SOPE   H4Y13396   1.683   5.084   2.887 -1.2633 -0.1268 -2.1787
  125SOPE   C3513397   1.585   5.249   2.985  0.8216 -0.1915 -0.3885
  125SOPE   H5X13398   1.488   5.195   2.983  1.7206 -1.8172 -1.2558
  125SOPE   H5Y13399   1.549   5.351   2.960  0.3226 -0.2826 -0.0286
  125SOPE   C3613400   1.639   5.231   3.125  0.3685  0.0618  0.3292
  125SOPE   H6X13401   1.712   5.310   3.154 -0.7041  0.5115  1.8633
  125SOPE   H6Y13402   1.691   5.133   3.122 -2.4542 -1.4895  0.5641
  125SOPE   C3713403   1.523   5.234   3.234 -0.0193 -0.0905 -0.2133
  125SOPE   H7X13404   1.463   5.141   3.224  0.5903 -0.8600  2.7017
  125SOPE   H7Y13405   1.470   5.329   3.212 -0.9798 -0.2406  1.3182
  125SOPE   C3813406   1.572   5.242   3.384 -1.0732  0.1405  0.9923
  125SOPE   H8X13407   1.634   5.334   3.398  0.1376 -0.5855  0.5153
  125SOPE   H8Y13408   1.640   5.158   3.408  0.1878  0.4314 -1.3812
  125SOPE   C3913409   1.463   5.232   3.480 -0.0820 -0.0144  0.6449
  125SOPE   H9X13410   1.403   5.325   3.477 -1.6404 -1.0704 -2.2437
  125SOPE   H9Y13411   1.509   5.224   3.581  0.3171  1.2379  0.5687
  125SOPE  C31013412   1.372   5.110   3.464 -0.2970  0.2864 -0.2424
  125SOPE  H10X13413   1.432   5.018   3.481  1.2689  1.6288  1.6493
  125SOPE  H10Y13414   1.324   5.099   3.365  1.6418  3.5317 -1.6025
  125SOPE  C31113415   1.269   5.100   3.572  0.7595  0.5934 -0.2994
  125SOPE  H11X13416   1.220   5.199   3.588  0.5990  1.0099 -3.1172
  125SOPE  H11Y13417   1.315   5.078   3.671  0.4963 -1.3381 -0.5927
  125SOPE  C31213418   1.156   5.005   3.541  0.1075  0.0132  0.8169
  125SOPE  H12X13419   1.203   4.910   3.509 -2.1504 -0.3582 -1.6277
  125SOPE  H12Y13420   1.106   5.048   3.451 -1.5201 -0.5872  1.4157
  125SOPE  C31313421   1.055   4.975   3.655  0.3645  0.3228 -0.3398
  125SOPE  H13X13422   1.107   4.913   3.732  0.6547  1.4066  0.3434
  125SOPE  H13Y13423   0.972   4.912   3.617  0.2392 -0.2939  0.9192
  125SOPE  C31413424   0.989   5.109   3.706  0.7521  0.6267  0.0399
  125SOPE  H14X13425   1.070   5.155   3.766  1.0604  0.9237 -0.5993
  125SOPE  H14Y13426   0.905   5.074   3.770 -1.3466  0.1147 -2.8842
  125SOPE  C31513427   0.933   5.202   3.596  0.4817  0.2468  0.5088
  125SOPE  H15X13428   1.012   5.238   3.528 -0.3359 -0.6018 -0.8987
  125SOPE  H15Y13429   0.901   5.290   3.656 -0.9945 -0.2714  0.5176
  125SOPE  C31613430   0.818   5.143   3.515 -0.0648 -0.2231  0.3704
  125SOPE  H16X13431   0.729   5.111   3.572  0.2469 -0.6729  0.6041
  125SOPE  H16Y13432   0.857   5.056   3.457 -0.8779 -0.1165 -0.3447
  125SOPE  C31713433   0.767   5.226   3.399 -0.1236 -0.1242  0.2806
  125SOPE  H17X13434   0.849   5.269   3.337 -0.8789  2.3180  0.8964
  125SOPE  H17Y13435   0.722   5.316   3.446 -1.4892 -0.4841 -0.3148
  125SOPE  C31813436   0.654   5.164   3.315 -0.7615  0.0681  0.0349
  125SOPE  H18X13437   0.578   5.130   3.389  0.2153 -3.0182 -0.2998
  125SOPE  H18Y13438   0.700   5.076   3.265  2.1043  1.5238  0.0388
  125SOPE  H18Z13439   0.610   5.230   3.237 -2.6001 -1.3783 -0.2125
  126SOPE     N13440   2.743   0.688   1.865 -0.4972  0.0356 -0.0811
  126SOPE   HN113441   2.669   0.671   1.935  0.1580 -3.4168 -0.1605
  126SOPE   HN213442   2.701   0.732   1.780 -2.2836 -1.3732  0.0458
  126SOPE   HN313443   2.795   0.599   1.853  1.1358  1.0946 -1.0778
  126SOPE   C1213444   2.837   0.796   1.920  0.1689  0.0846  0.8808
  126SOPE  H12A13445   2.941   0.779   1.883 -0.0437 -0.7197  0.6338
  126SOPE  H12B13446   2.835   0.780   2.029 -0.2488 -0.0039  0.8578
  126SOPE   C1113447   2.785   0.933   1.881 -0.4525  0.0104 -0.4946
  126SOPE  H11A13448   2.767   0.941   1.772  0.1653  1.2034 -0.5135
  126SOPE  H11B13449   2.857   1.007   1.921 -0.3394 -1.9209  3.1133
  126SOPE     P13450   2.615   1.110   1.983  0.2088 -0.0014 -0.0762
  126SOPE   O1313451   2.481   1.094   2.036 -0.3118  0.1913 -0.1894
  126SOPE   O1413452   2.627   1.203   1.872  0.1397 -0.3148  0.1516
  126SOPE   O1213453   2.659   0.967   1.941 -0.1380 -0.3922  0.2530
  126SOPE   O1113454   2.728   1.138   2.088  0.1262  0.1130  0.2439
  126SOPE    C113455   2.744   1.071   2.213 -0.6033 -0.4363 -0.0365
  126SOPE    HA13456   2.825   1.121   2.271 -2.7889  2.4976  0.6587
  126SOPE    HB13457   2.773   0.966   2.196 -0.1379 -0.4143  0.6086
  126SOPE    C213458   2.620   1.079   2.312  0.3534  0.2686 -0.0513
  126SOPE    HS13459   2.530   1.030   2.268  0.9092 -1.3065  0.5153
  126SOPE   O2113460   2.587   1.217   2.331 -0.3510 -0.4061 -0.2303
  126SOPE   C2113461   2.485   1.247   2.412 -0.0000 -0.3825  0.2323
  126SOPE   O2213462   2.397   1.169   2.446  0.1787  0.2643 -0.0182
  126SOPE   C2213463   2.491   1.390   2.451  0.0361  0.5437 -0.3549
  126SOPE   H2R13464   2.517   1.451   2.362  0.9447  0.0946 -0.4103
  126SOPE   H2S13465   2.572   1.403   2.527  0.4221  2.0368 -1.0087
  126SOPE    C313466   2.652   1.024   2.457 -0.6175 -0.7457  0.3022
  126SOPE    HX13467   2.706   0.927   2.455  1.4174  0.3921 -1.2453
  126SOPE    HY13468   2.555   0.999   2.506 -0.7840 -0.4125  0.1381
  126SOPE   O3113469   2.729   1.117   2.536 -0.5011  0.4100 -0.0362
  126SOPE   C3113470   2.712   1.107   2.670 -0.9649 -0.0797 -0.0411
  126SOPE   O3213471   2.648   1.021   2.723  0.0480 -0.5708  0.0927
  126SOPE   C3213472   2.775   1.228   2.732  0.2686 -0.1695  0.4962
  126SOPE   H2X13473   2.737   1.321   2.683  0.4278 -0.2778  0.1643
  126SOPE   H2Y13474   2.885   1.216   2.719  0.0545 -1.3197 -0.3328
  126SOPE   C2313475   2.360   1.443   2.511  0.3738 -1.0641  0.2885
  126SOPE   H3R13476   2.277   1.429   2.438  1.2600  0.8830 -1.1551
  126SOPE   H3S13477   2.369   1.553   2.525 -0.3700 -0.7074 -1.8714
  126SOPE   C2413478   2.345   1.380   2.651 -0.4031  0.1332  0.9472
  126SOPE   H4R13479   2.303   1.278   2.639  0.6615 -0.1077 -0.9701
  126SOPE   H4S13480   2.441   1.364   2.703 -0.5230 -1.9255  0.6033
  126SOPE   C2513481   2.254   1.475   2.732 -0.0665 -0.2641  0.7330
  126SOPE   H5R13482   2.299   1.576   2.728 -0.1166 -0.1173  3.5202
  126SOPE   H5S13483   2.155   1.494   2.684  1.0548 -0.4749 -1.7845
  126SOPE   C2613484   2.219   1.440   2.878  0.0498 -0.1315  0.1243
  126SOPE   H6R13485   2.158   1.527   2.909 -0.7700 -0.4741 -0.4995
  126SOPE   H6S13486   2.146   1.356   2.882 -1.0766  0.7759 -0.9434
  126SOPE   C2713487   2.340   1.411   2.970 -0.2968 -0.4990 -0.0860
  126SOPE   H7R13488   2.434   1.466   2.948 -1.0692  0.8513 -0.0438
  126SOPE   H7S13489   2.309   1.432   3.074 -0.3894 -2.6412  0.3456
  126SOPE   C2813490   2.383   1.261   2.971  0.3653  0.2136  0.7515
  126SOPE   H8R13491   2.429   1.224   2.877  1.6395 -0.3853  1.5922
  126SOPE   H8S13492   2.458   1.242   3.051  0.1949  0.6883  1.0262
  126SOPE   C2913493   2.271   1.167   3.013 -0.6194 -0.0896  0.7063
  126SOPE   H9113494   2.227   1.134   2.917 -0.4883 -0.5479  0.8031
  126SOPE  C21013495   2.252   1.097   3.129 -0.2742  0.4755  0.1663
  126SOPE  H10113496   2.169   1.026   3.121 -0.7556  0.9765  0.6088
  126SOPE  C21113497   2.339   1.105   3.250 -0.0673  0.2416 -0.5623
  126SOPE  H11R13498   2.268   1.112   3.336  1.4291  1.9910  0.5594
  126SOPE  H11S13499   2.397   1.197   3.271  0.3843 -0.1471 -0.1133
  126SOPE  C21213500   2.431   0.988   3.279 -0.1341 -0.0550  0.2675
  126SOPE  H12R13501   2.367   0.897   3.272  0.0822 -0.1602 -0.3805
  126SOPE  H12S13502   2.476   0.989   3.381 -1.5469  1.4217  0.9001
  126SOPE  C21313503   2.549   0.980   3.172  0.9215 -0.1815 -0.2200
  126SOPE  H13R13504   2.618   1.066   3.189  0.9979 -0.1778 -0.5281
  126SOPE  H13S13505   2.508   0.976   3.069 -0.6888  1.9803  0.3049
  126SOPE  C21413506   2.625   0.855   3.193 -0.4962  0.9118  0.3244
  126SOPE  H14R13507   2.576   0.769   3.143 -1.5492  1.2915  0.6860
  126SOPE  H14S13508   2.625   0.840   3.303 -0.4064  0.9837  0.3345
  126SOPE  C21513509   2.763   0.859   3.134  0.0319  0.8805 -0.1734
  126SOPE  H15R13510   2.761   0.889   3.027 -0.7812 -0.7971 -0.6486
  126SOPE  H15S13511   2.815   0.761   3.144 -0.0781  0.5856 -2.3071
  126SOPE  C21613512   2.868   0.942   3.216 -0.1872  0.4611 -0.0496
  126SOPE  H16R13513   2.862   0.912   3.322 -0.3041 -0.9159 -0.4261
  126SOPE  H16S13514   2.853   1.051   3.206 -0.7663  0.3776 -0.1185
  126SOPE  C21713515   3.016   0.918   3.183  0.3111 -0.2247 -0.0235
  126SOPE  H17R13516   3.032   0.810   3.162 -0.2798 -0.2423 -0.3777
  126SOPE  H17S13517   3.077   0.942   3.272  1.6106 -1.9453 -0.4080
  126SOPE  C21813518   3.062   1.008   3.071  0.0691 -0.0359 -0.2005
  126SOPE  H18R13519   3.037   1.114   3.092  1.4998  0.2299  0.2087
  126SOPE  H18S13520   3.019   0.978   2.973 -0.0591 -0.2993 -0.0641
  126SOPE  H18T13521   3.173   1.004   3.059 -0.2348 -1.5218 -3.2509
  126SOPE   C3313522   2.739   1.245   2.884  0.5687 -0.5221  0.2979
  126SOPE   H3X13523   2.763   1.161   2.952 -0.8472  1.9106  3.9761
  126SOPE   H3Y13524   2.629   1.257   2.891  0.3807 -1.4544 -0.9304
  126SOPE   C3413525   2.815   1.358   2.946  0.0445 -0.2949 -0.3686
  126SOPE   H4X13526   2.830   1.443   2.876  1.4715  0.0799  0.3777
  126SOPE   H4Y13527   2.921   1.331   2.966  0.5429  1.6294 -0.3722
  126SOPE   C3513528   2.736   1.430   3.054  0.1848  0.5913  0.0200
  126SOPE   H5X13529   2.628   1.420   3.028  0.3707 -0.6223 -0.3154
  126SOPE   H5Y13530   2.757   1.539   3.051 -2.2540  1.0736 -0.2434
  126SOPE   C3613531   2.748   1.364   3.193 -0.0593  0.1072  0.1585
  126SOPE   H6X13532   2.857   1.358   3.212 -0.0059 -1.4121 -0.5165
  126SOPE   H6Y13533   2.725   1.255   3.197  0.3865  0.0001 -0.1443
  126SOPE   C3713534   2.670   1.445   3.301 -0.4504  0.2940  0.0592
  126SOPE   H7X13535   2.562   1.425   3.282 -0.2634 -1.1605  0.4804
  126SOPE   H7Y13536   2.696   1.551   3.281  2.7911 -0.5496 -0.4376
  126SOPE   C3813537   2.697   1.400   3.448  0.3554  0.3158  0.2969
  126SOPE   H8X13538   2.671   1.471   3.529  0.0116 -0.3879  0.8017
  126SOPE   H8Y13539   2.807   1.386   3.455  0.1788 -0.5756  1.4252
  126SOPE   C3913540   2.660   1.249   3.471  0.4302  0.0301 -0.9123
  126SOPE   H9X13541   2.699   1.179   3.394 -0.3793  0.2344 -1.5138
  126SOPE   H9Y13542   2.551   1.232   3.457  0.5851  1.0620 -3.9216
  126SOPE  C31013543   2.712   1.198   3.606 -0.1287 -0.0719  0.1884
  126SOPE  H10X13544   2.685   1.269   3.687  1.5758  1.0173 -0.1857
  126SOPE  H10Y13545   2.823   1.193   3.613 -0.1081  1.2977  0.9571
  126SOPE  C31113546   2.653   1.058   3.634 -0.5152  0.0866  0.2805
  126SOPE  H11X13547   2.711   0.972   3.595 -0.2038  1.1456 -1.6590
  126SOPE  H11Y13548   2.554   1.041   3.586 -1.1612 -0.7063  1.8559
  126SOPE  C31213549   2.619   1.042   3.777  0.1111  0.5450 -0.2834
  126SOPE  H12X13550   2.546   0.958   3.787 -0.8245  1.0134 -2.8028
  126SOPE  H12Y13551   2.575   1.139   3.809 -0.5684 -0.4679  1.9380
  126SOPE  C31313552   2.743   1.015   3.873 -0.0040 -0.2873 -0.2494
  126SOPE  H13X13553   2.809   1.103   3.862 -3.9629  3.1860  2.2891
  126SOPE  H13Y13554   2.794   0.917   3.856 -0.4928 -0.7141  0.6959
  126SOPE  C31413555   2.713   1.022   4.023  0.1881 -0.8280  0.0302
  126SOPE  H14X13556   2.699   1.128   4.054 -0.8738 -1.4674  1.8135
  126SOPE  H14Y13557   2.804   1.000   4.083 -0.1999 -0.6969  0.6699
  126SOPE  C31513558   2.602   0.931   4.069 -1.0393  0.2797  0.3104
  126SOPE  H15X13559   2.640   0.827   4.054  2.4807  1.6776 -1.1220
  126SOPE  H15Y13560   2.505   0.950   4.018 -1.9115  2.5035  2.6980
  126SOPE  C31613561   2.598   0.942   4.221  0.2348  0.7447 -0.4221
  126SOPE  H16X13562   2.567   1.045   4.249 -0.0547  1.1130 -2.0948
  126SOPE  H16Y13563   2.697   0.931   4.271 -0.0724 -1.5622 -0.2502
  126SOPE  C31713564   2.513   0.835   4.287 -0.5653  0.5251  0.1491
  126SOPE  H17X13565   2.562   0.738   4.267  0.0007  0.6574  0.8530
  126SOPE  H17Y13566   2.419   0.814   4.232 -0.3916  0.1733 -0.0096
  126SOPE  C31813567   2.481   0.865   4.434  0.0674  0.4459 -0.5105
  126SOPE  H18X13568   2.457   0.773   4.492  0.4944  0.1999 -0.7214
  126SOPE  H18Y13569   2.383   0.914   4.417 -0.1655  0.2111  0.1620
  126SOPE  H18Z13570   2.557   0.933   4.478 -1.3519  2.4516 -1.0880
  127SOPE     N13571   6.024   1.647   1.965  0.0549 -0.4923  0.1778
  127SOPE   HN113572   6.023   1.696   2.057 -1.5830  0.0431 -0.0994
  127SOPE   HN213573   6.119   1.621   1.932 -0.4157  0.8005 -2.3181
  127SOPE   HN313574   5.982   1.711   1.894  0.4128 -1.8386 -1.2694
  127SOPE   C1213575   5.943   1.519   1.972  0.1112 -0.1139 -0.5807
  127SOPE  H12A13576   5.998   1.438   2.024  0.1659  0.5155  0.3728
  127SOPE  H12B13577   5.921   1.493   1.866  0.1719  2.4456 -1.2513
  127SOPE   C1113578   5.808   1.547   2.050 -0.2019 -0.2808 -0.3079
  127SOPE  H11A13579   5.846   1.583   2.148  0.9701  0.9196 -1.1943
  127SOPE  H11B13580   5.746   1.457   2.071  0.5385 -0.8655 -0.6208
  127SOPE     P13581   5.581   1.650   1.984  0.1728 -0.1857  0.0690
  127SOPE   O1313582   5.544   1.527   1.916  0.0011  0.0799 -0.3125
  127SOPE   O1413583   5.531   1.778   1.924 -0.6147 -0.3477 -0.5285
  127SOPE   O1213584   5.736   1.661   1.997  0.1010  0.3157  0.2044
  127SOPE   O1113585   5.531   1.643   2.132  0.1095  0.3373 -0.0346
  127SOPE    C113586   5.505   1.762   2.202 -0.0868 -0.4100 -0.8506
  127SOPE    HA13587   5.405   1.802   2.175  0.2331  0.0424 -1.3895
  127SOPE    HB13588   5.574   1.847   2.183 -1.8884  1.2570 -0.1027
  127SOPE    C213589   5.525   1.733   2.345  0.2915 -0.1032  0.3288
  127SOPE    HS13590   5.448   1.661   2.378  0.8933 -2.4191 -3.0625
  127SOPE   O2113591   5.516   1.861   2.414  0.3446  0.6862  0.3204
  127SOPE   C2113592   5.454   1.846   2.539  0.4666 -1.0180  0.1459
  127SOPE   O2213593   5.417   1.739   2.586  0.4756  0.4391 -0.2990
  127SOPE   C2213594   5.434   1.989   2.604  0.2768  0.3020  0.3086
  127SOPE   H2R13595   5.414   2.061   2.523  0.9287  0.7758  0.5620
  127SOPE   H2S13596   5.527   2.004   2.664 -0.3663 -1.6517  1.8729
  127SOPE    C313597   5.660   1.678   2.371 -0.2915 -0.3286  0.3242
  127SOPE    HX13598   5.729   1.757   2.333  0.0873  0.2217  2.0939
  127SOPE    HY13599   5.680   1.592   2.303 -0.5001 -0.4379  0.4003
  127SOPE   O3113600   5.699   1.652   2.505 -0.3771 -0.5165 -0.7406
  127SOPE   C3113601   5.668   1.531   2.555  0.8136 -0.1874 -0.0962
  127SOPE   O3213602   5.640   1.431   2.495 -0.0500  0.0398  0.5053
  127SOPE   C3213603   5.667   1.532   2.705  0.2235 -0.1434  0.6261
  127SOPE   H2X13604   5.650   1.426   2.733  1.1131 -0.2979  0.5996
  127SOPE   H2Y13605   5.590   1.602   2.743 -0.5059 -0.9360  0.6259
  127SOPE   C2313606   5.318   2.004   2.699  1.4269 -0.2303 -0.5906
  127SOPE   H3R13607   5.222   1.967   2.657  0.0461  0.3239  1.9728
  127SOPE   H3S13608   5.290   2.110   2.716  1.3277 -0.3732  0.1546
  127SOPE   C2413609   5.335   1.944   2.844  0.5826  0.4937  0.2027
  127SOPE   H4R13610   5.361   1.835   2.843 -0.4979  0.2062  1.3917
  127SOPE   H4S13611   5.420   1.992   2.897 -0.9014  1.5477  1.6636
  127SOPE   C2513612   5.219   1.973   2.939  0.4985  0.1980 -0.0179
  127SOPE   H5R13613   5.203   2.083   2.943 -1.4616 -0.1064  1.1224
  127SOPE   H5S13614   5.123   1.931   2.902  0.4910  1.2443 -1.2501
  127SOPE   C2613615   5.259   1.911   3.076 -0.3245  0.6171 -0.0134
  127SOPE   H6R13616   5.368   1.918   3.091  0.1810 -1.6786 -2.2973
  127SOPE   H6S13617   5.212   1.977   3.152  0.4881 -1.4030  2.2787
  127SOPE   C2713618   5.223   1.761   3.097  0.3603 -0.3657  0.3604
  127SOPE   H7R13619   5.119   1.760   3.057  1.3529  0.7748 -2.3614
  127SOPE   H7S13620   5.295   1.697   3.042  1.6620 -0.0778  1.6996
  127SOPE   C2813621   5.218   1.718   3.245  0.4710 -0.6663 -0.3421
  127SOPE   H8R13622   5.298   1.770   3.300 -0.1075 -0.8798  0.7093
  127SOPE   H8S13623   5.123   1.762   3.284  1.6096  0.7819  0.8287
  127SOPE   C2913624   5.210   1.569   3.262  0.3954  0.4320 -0.5091
  127SOPE   H9113625   5.132   1.523   3.199  0.6118  0.6493 -0.9445
  127SOPE  C21013626   5.303   1.486   3.314  0.3856  0.1448  1.1194
  127SOPE  H10113627   5.282   1.379   3.307 -0.0732  0.3301 -0.5257
  127SOPE  C21113628   5.436   1.518   3.377 -0.3793 -0.7018  0.2236
  127SOPE  H11R13629   5.475   1.612   3.331 -0.4176 -1.7176 -1.9506
  127SOPE  H11S13630   5.499   1.436   3.338 -0.4825 -0.8455  0.3608
  127SOPE  C21213631   5.445   1.501   3.532 -0.0373 -1.0554  0.1258
  127SOPE  H12R13632   5.347   1.535   3.570  0.0077  0.7805 -1.3460
  127SOPE  H12S13633   5.519   1.576   3.568 -0.0372 -0.3705 -1.2757
  127SOPE  C21313634   5.473   1.358   3.578  0.6592  0.0308  0.0143
  127SOPE  H13R13635   5.583   1.351   3.563  0.8016  1.9819  0.0272
  127SOPE  H13S13636   5.410   1.292   3.514  0.9976 -2.0197  1.7305
  127SOPE  C21413637   5.458   1.329   3.726  0.6365  0.1396 -0.8870
  127SOPE  H14R13638   5.354   1.331   3.764  1.2313  0.1661  0.7632
  127SOPE  H14S13639   5.503   1.408   3.790 -1.2900  0.4602  0.1022
  127SOPE  C21513640   5.532   1.205   3.762 -0.0616  0.8073  0.7510
  127SOPE  H15R13641   5.643   1.204   3.749 -0.0459  0.5522  0.8934
  127SOPE  H15S13642   5.486   1.114   3.717 -0.3560  0.3747  1.9019
  127SOPE  C21613643   5.515   1.180   3.909  0.1249 -0.1970  0.1449
  127SOPE  H16R13644   5.406   1.166   3.923  0.3390 -2.3971 -0.2797
  127SOPE  H16S13645   5.550   1.268   3.968 -0.0490  0.3261 -0.5147
  127SOPE  C21713646   5.588   1.062   3.971 -0.4294  1.0086 -0.6304
  127SOPE  H17R13647   5.683   1.043   3.916 -1.2917 -1.2451 -1.3965
  127SOPE  H17S13648   5.532   0.966   3.967 -0.5294  1.0894 -1.4588
  127SOPE  C21813649   5.626   1.086   4.118 -0.1348  0.1473 -0.3915
  127SOPE  H18R13650   5.534   1.109   4.176  1.0737  0.0766  1.5854
  127SOPE  H18S13651   5.701   1.167   4.133  0.0816  0.1149 -1.2779
  127SOPE  H18T13652   5.662   0.990   4.160  3.1695  0.6066 -2.0803
  127SOPE   C3313653   5.797   1.587   2.755 -1.1721 -0.2194  0.5164
  127SOPE   H3X13654   5.818   1.682   2.702  0.0512 -0.4461  0.5831
  127SOPE   H3Y13655   5.887   1.525   2.736 -2.2339 -1.1375 -1.7270
  127SOPE   C3413656   5.807   1.619   2.911 -0.5940 -0.0179  0.7938
  127SOPE   H4X13657   5.914   1.635   2.935 -0.8292 -0.5783  2.2635
  127SOPE   H4Y13658   5.779   1.524   2.960 -0.7607  0.5535  1.8308
  127SOPE   C3513659   5.714   1.726   2.953  0.5042  0.3876 -0.2425
  127SOPE   H5X13660   5.610   1.686   2.955  0.4137  0.7016  2.9966
  127SOPE   H5Y13661   5.709   1.821   2.895 -0.1976  0.2841 -0.3648
  127SOPE   C3613662   5.746   1.766   3.099 -0.0252  0.2362 -0.1138
  127SOPE   H6X13663   5.831   1.837   3.105  0.0617  0.2982 -1.7884
  127SOPE   H6Y13664   5.782   1.672   3.147  0.5688  1.1852  1.3242
  127SOPE   C3713665   5.624   1.828   3.168  0.5512  0.0087  0.1046
  127SOPE   H7X13666   5.544   1.751   3.167 -0.2820  0.8408  1.6860
  127SOPE   H7Y13667   5.585   1.917   3.116  0.3659 -1.5449 -2.5046
  127SOPE   C3813668   5.663   1.866   3.311  0.4669  0.2049  0.3068
  127SOPE   H8X13669   5.733   1.952   3.305 -0.8545  1.2889  0.4496
  127SOPE   H8Y13670   5.730   1.790   3.357 -0.5615 -2.1381 -1.9123
  127SOPE   C3913671   5.550   1.895   3.412 -0.5715 -0.3494  0.3652
  127SOPE   H9X13672   5.502   1.802   3.448 -0.3091 -0.4807  0.3796
  127SOPE   H9Y13673   5.472   1.958   3.363  2.8296  4.5105  0.8762
  127SOPE  C31013674   5.595   1.963   3.539 -0.0358 -0.0537  0.3739
  127SOPE  H10X13675   5.510   1.970   3.611  0.3732  0.9109  0.7764
  127SOPE  H10Y13676   5.611   2.071   3.516  1.5057 -0.9559 -3.0631
  127SOPE  C31113677   5.708   1.885   3.607  0.7329 -0.2236 -0.8411
  127SOPE  H11X13678   5.791   1.880   3.534  0.5255  1.4776 -1.1982
  127SOPE  H11Y13679   5.671   1.781   3.624  0.5597 -0.0768 -0.3042
  127SOPE  C31213680   5.745   1.959   3.740 -0.1841  0.1997  0.4292
  127SOPE  H12X13681   5.659   1.951   3.810 -1.7687 -0.4002 -1.5370
  127SOPE  H12Y13682   5.756   2.065   3.710 -0.9452 -0.0329 -0.7150
  127SOPE  C31313683   5.863   1.888   3.817  0.2289  0.2069 -0.6348
  127SOPE  H13X13684   5.945   1.876   3.744 -1.8376  3.1500 -3.5718
  127SOPE  H13Y13685   5.824   1.789   3.850 -1.3894  0.0767 -2.8304
  127SOPE  C31413686   5.913   1.962   3.946 -0.0814  0.2874  0.5316
  127SOPE  H14X13687   5.818   1.994   3.995  0.1342  1.0867  0.4320
  127SOPE  H14Y13688   5.969   2.053   3.916 -1.5954  0.6086 -1.4093
  127SOPE  C31513689   6.012   1.876   4.036  0.1267  0.1405  0.0532
  127SOPE  H15X13690   6.093   1.841   3.969 -1.3628  1.1161 -2.3429
  127SOPE  H15Y13691   5.957   1.787   4.072  1.3267 -0.9405 -0.7355
  127SOPE  C31613692   6.076   1.957   4.151  0.1088 -0.5346 -0.9443
  127SOPE  H16X13693   6.108   2.057   4.116 -1.7366 -0.1398 -1.5872
  127SOPE  H16Y13694   6.173   1.908   4.174  0.5382  1.5321  1.8303
  127SOPE  C31713695   5.993   1.951   4.277  1.0729  0.2569 -0.3014
  127SOPE  H17X13696   5.976   1.848   4.317 -0.9002  0.5861 -0.2524
  127SOPE  H17Y13697   5.891   1.994   4.265 -0.0880 -2.0207  0.9561
  127SOPE  C31813698   6.075   2.030   4.386 -0.1083 -0.3075  0.0789
  127SOPE  H18X13699   6.016   2.011   4.478  1.8117  0.7345  1.5703
  127SOPE  H18Y13700   6.075   2.138   4.361 -0.5320 -0.0742  1.0620
  127SOPE  H18Z13701   6.176   1.984   4.393 -0.0010 -0.2885 -1.2337
  128SOPE     N13702   7.130   1.988   1.828  0.1915  0.5711 -1.1808
  128SOPE   HN113703   7.156   2.062   1.896  0.3603 -0.5829  0.0499
  128SOPE   HN213704   7.213   1.925   1.820  0.5804  1.1044 -1.3497
  128SOPE   HN313705   7.095   2.039   1.745  0.6772  0.2030 -1.6125
  128SOPE   C1213706   7.010   1.916   1.889  0.6387 -0.5937  0.9705
  128SOPE  H12A13707   6.957   1.866   1.805 -2.0329  0.7535  1.8071
  128SOPE  H12B13708   6.941   1.991   1.932 -0.3653 -1.1236  0.3007
  128SOPE   C1113709   7.050   1.808   1.993  0.1065 -0.4179  0.9159
  128SOPE  H11A13710   6.951   1.765   2.019 -0.1654 -1.0165 -1.0073
  128SOPE  H11B13711   7.088   1.868   2.078 -0.6200 -1.8748  2.2819
  128SOPE     P13712   7.299   1.713   1.938 -0.0875  0.5174 -0.0505
  128SOPE   O1313713   7.354   1.839   1.878 -0.0840 -0.1932  0.0253
  128SOPE   O1413714   7.343   1.583   1.883 -0.5384 -0.4399 -0.0076
  128SOPE   O1213715   7.142   1.710   1.937  0.5566  0.1880  0.0083
  128SOPE   O1113716   7.329   1.716   2.092  0.5086 -0.0904 -0.5414
  128SOPE    C113717   7.250   1.632   2.177 -0.1540  0.1591  0.1810
  128SOPE    HA13718   7.194   1.555   2.120 -1.1285 -0.7540  2.3064
  128SOPE    HB13719   7.170   1.685   2.233  0.0314 -1.7307  2.3173
  128SOPE    C213720   7.333   1.545   2.277  0.2914  0.3855  0.2543
  128SOPE    HS13721   7.400   1.487   2.211 -1.0715  0.0810 -0.8658
  128SOPE   O2113722   7.254   1.450   2.350  0.0730  0.4317  0.5536
  128SOPE   C2113723   7.310   1.334   2.381  0.5649  0.3067  0.0391
  128SOPE   O2213724   7.410   1.286   2.322 -0.1586 -0.5995 -0.3340
  128SOPE   C2213725   7.220   1.267   2.490 -0.2111  0.0806 -0.3844
  128SOPE   H2R13726   7.224   1.156   2.485  2.6230  0.2383 -3.2058
  128SOPE   H2S13727   7.115   1.300   2.490  0.1581  1.2835  0.3151
  128SOPE    C313728   7.405   1.636   2.384  0.5301  0.3737 -0.4539
  128SOPE    HX13729   7.313   1.672   2.434  0.0901 -1.0949 -0.1808
  128SOPE    HY13730   7.457   1.726   2.346 -1.4890  1.7443 -0.0286
  128SOPE   O3113731   7.484   1.557   2.483 -0.1979  0.4313 -0.1884
  128SOPE   C3113732   7.609   1.586   2.500  0.2642 -0.7958 -0.4239
  128SOPE   O3213733   7.673   1.660   2.425  0.6070  0.4179  0.6009
  128SOPE   C3213734   7.662   1.509   2.617 -0.4960  0.1804  0.4472
  128SOPE   H2X13735   7.773   1.516   2.613 -0.2440 -1.8580  2.8902
  128SOPE   H2Y13736   7.649   1.399   2.609  1.0546 -0.2613  3.3796
  128SOPE   C2313737   7.275   1.289   2.643 -0.2764  0.4931  0.2925
  128SOPE   H3R13738   7.382   1.259   2.637 -0.0679  1.2146  0.3874
  128SOPE   H3S13739   7.222   1.208   2.699 -2.0101  1.0105 -0.5580
  128SOPE   C2413740   7.253   1.428   2.700 -0.2999  0.3202  0.9034
  128SOPE   H4R13741   7.329   1.493   2.652  0.0221 -0.4856  0.3143
  128SOPE   H4S13742   7.161   1.474   2.659  1.1654  2.5802  0.0103
  128SOPE   C2513743   7.234   1.426   2.852  0.6267  0.7262 -0.5757
  128SOPE   H5R13744   7.143   1.367   2.880  2.2035  0.0465  3.5020
  128SOPE   H5S13745   7.317   1.385   2.913  0.2541  0.6677 -0.0938
  128SOPE   C2613746   7.219   1.564   2.918 -0.5520  0.2427  0.1666
  128SOPE   H6R13747   7.298   1.630   2.876 -1.9672  0.7990 -1.7242
  128SOPE   H6S13748   7.125   1.607   2.876 -1.0735  0.0977  1.1596
  128SOPE   C2713749   7.225   1.565   3.072 -0.0367  0.1370  0.4344
  128SOPE   H7R13750   7.128   1.604   3.109  0.1430 -0.2677  1.3530
  128SOPE   H7S13751   7.235   1.459   3.102  0.8453  0.6211  1.9494
  128SOPE   C2813752   7.351   1.612   3.139 -0.8781 -0.1317  0.1550
  128SOPE   H8R13753   7.438   1.548   3.115  0.4053  2.5697 -2.7040
  128SOPE   H8S13754   7.375   1.714   3.099  0.4096 -0.7001 -0.5549
  128SOPE   C2913755   7.338   1.606   3.288  0.1498 -0.2165  0.1124
  128SOPE   H9113756   7.291   1.516   3.332  0.7027 -0.3251  0.4772
  128SOPE  C21013757   7.377   1.707   3.370 -0.7871  0.3927  0.4638
  128SOPE  H10113758   7.383   1.692   3.479 -2.1744  1.4425  0.6953
  128SOPE  C21113759   7.431   1.839   3.316 -0.9664 -0.3932 -0.7362
  128SOPE  H11R13760   7.494   1.832   3.225 -1.2049  0.6389 -0.9844
  128SOPE  H11S13761   7.489   1.874   3.405  0.5165 -3.1277 -0.5527
  128SOPE  C21213762   7.324   1.948   3.303  0.3614 -0.8412 -0.2736
  128SOPE  H12R13763   7.253   1.904   3.230 -0.2258 -2.2586  1.1222
  128SOPE  H12S13764   7.359   2.047   3.266  2.9118 -1.6553 -0.1037
  128SOPE  C21313765   7.248   1.981   3.429 -0.2979 -0.1860 -0.4500
  128SOPE  H13R13766   7.321   2.027   3.500 -1.3375 -0.7211  0.9937
  128SOPE  H13S13767   7.219   1.881   3.467 -0.6427  1.0088  2.5499
  128SOPE  C21413768   7.132   2.082   3.401 -0.2102  0.0602 -0.1518
  128SOPE  H14R13769   7.093   2.044   3.305  0.8317  1.1047 -0.9985
  128SOPE  H14S13770   7.183   2.180   3.389  1.1470 -0.7947 -1.6191
  128SOPE  C21513771   7.019   2.078   3.503 -0.1553 -0.5119 -0.1280
  128SOPE  H15R13772   7.043   2.122   3.602 -0.5289  2.5578 -1.3241
  128SOPE  H15S13773   6.986   1.972   3.506 -2.0446  0.0873  1.0262
  128SOPE  C21613774   6.903   2.163   3.447  0.4681 -0.2884 -0.1479
  128SOPE  H16R13775   6.867   2.111   3.356 -2.6800  0.5087  0.5755
  128SOPE  H16S13776   6.941   2.264   3.423 -1.2620  0.2343 -0.7365
  128SOPE  C21713777   6.777   2.183   3.537  0.9017 -0.2815  0.2668
  128SOPE  H17R13778   6.813   2.249   3.618 -2.0373  0.8343  0.7389
  128SOPE  H17S13779   6.752   2.080   3.571  0.0282  0.2444  1.2572
  128SOPE  C21813780   6.661   2.238   3.458 -0.2724 -0.4235 -0.5211
  128SOPE  H18R13781   6.642   2.165   3.376 -1.2309 -2.0041  1.0676
  128SOPE  H18S13782   6.686   2.335   3.410  0.7962 -0.8333 -0.8113
  128SOPE  H18T13783   6.568   2.245   3.519 -1.2689  0.8052 -2.1509
  128SOPE   C3313784   7.625   1.578   2.755 -0.2609  0.0113  0.1233
  128SOPE   H3X13785   7.536   1.529   2.799  0.1163  0.1623  1.0699
  128SOPE   H3Y13786   7.605   1.687   2.753 -1.4647 -0.2000  0.5172
  128SOPE   C3413787   7.742   1.555   2.850 -0.2177 -0.6254  0.1701
  128SOPE   H4X13788   7.839   1.588   2.807  0.0955 -3.5625 -1.5119
  128SOPE   H4Y13789   7.757   1.445   2.864 -1.8521 -0.9571 -0.6352
  128SOPE   C3513790   7.733   1.635   2.981 -0.0223  0.0699 -0.1710
  128SOPE   H5X13791   7.632   1.624   3.027 -0.3796  0.6989 -0.7745
  128SOPE   H5Y13792   7.750   1.744   2.963  2.0672 -0.1126  0.5654
  128SOPE   C3613793   7.827   1.568   3.087 -0.2563  0.0412 -0.6585
  128SOPE   H6X13794   7.932   1.554   3.054 -0.3655  0.0415 -1.0029
  128SOPE   H6Y13795   7.790   1.465   3.103 -0.4961  0.3895  1.2096
  128SOPE   C3713796   7.820   1.664   3.210  0.1634 -0.1280  0.4403
  128SOPE   H7X13797   7.717   1.649   3.250 -0.3324 -0.8155 -1.0666
  128SOPE   H7Y13798   7.826   1.772   3.186 -0.9026 -0.5465 -1.8829
  128SOPE   C3813799   7.911   1.615   3.329  0.2583 -0.4878 -0.7831
  128SOPE   H8X13800   8.019   1.602   3.306  0.5901 -2.1782  1.5141
  128SOPE   H8Y13801   7.869   1.513   3.345 -1.6567  0.2710 -0.8434
  128SOPE   C3913802   7.878   1.708   3.443  0.4939  0.3807  0.1251
  128SOPE   H9X13803   7.767   1.715   3.447  0.2576 -1.2870 -2.3787
  128SOPE   H9Y13804   7.916   1.812   3.433 -0.7940  1.1067  2.5157
  128SOPE  C31013805   7.936   1.662   3.576 -0.3432  0.3211  0.9181
  128SOPE  H10X13806   8.047   1.673   3.580 -0.3298  1.1296 -0.9609
  128SOPE  H10Y13807   7.905   1.556   3.593 -0.9378  0.3539  0.1117
  128SOPE  C31113808   7.871   1.740   3.696  0.3810  0.2524 -0.1467
  128SOPE  H11X13809   7.770   1.695   3.709  0.0760  0.9591 -0.0642
  128SOPE  H11Y13810   7.871   1.849   3.678  0.9848  0.7976  2.8219
  128SOPE  C31213811   7.954   1.739   3.829  0.1212  0.3967 -0.3701
  128SOPE  H12X13812   8.063   1.745   3.809  0.0948 -0.5574 -0.8015
  128SOPE  H12Y13813   7.945   1.643   3.884 -0.2496  1.3623  1.2952
  128SOPE  C31313814   7.911   1.851   3.922  0.3436  0.3456  0.3528
  128SOPE  H13X13815   7.811   1.892   3.896  0.4090  0.4441  0.2578
  128SOPE  H13Y13816   7.985   1.933   3.911  0.3341  0.1143 -1.5896
  128SOPE  C31413817   7.907   1.809   4.064  0.2829 -0.2937 -0.0411
  128SOPE  H14X13818   7.989   1.738   4.088 -0.9858 -1.0480  2.3180
  128SOPE  H14Y13819   7.811   1.761   4.095 -0.2304  1.5561  1.3152
  128SOPE  C31513820   7.911   1.927   4.163 -0.2192  0.1216  0.6479
  128SOPE  H15X13821   7.933   1.881   4.262  0.1227  0.2335  0.6210
  128SOPE  H15Y13822   7.820   1.991   4.161  0.6266  1.3164 -2.1915
  128SOPE  C31613823   8.026   2.021   4.130 -0.0068 -0.6423 -0.2101
  128SOPE  H16X13824   8.008   2.081   4.038 -0.2413 -0.4237 -0.0219
  128SOPE  H16Y13825   8.103   1.943   4.112 -0.1069 -0.9109  0.5062
  128SOPE  C31713826   8.070   2.112   4.246  0.1260 -0.5031 -0.0891
  128SOPE  H17X13827   8.151   2.175   4.204  0.3803  0.7053  2.1551
  128SOPE  H17Y13828   8.106   2.056   4.335 -0.0601 -0.5147 -0.0211
  128SOPE  C31813829   7.956   2.207   4.272  0.2815 -0.6672  0.1973
  128SOPE  H18X13830   7.983   2.280   4.351  1.9037  1.4883 -2.2563
  128SOPE  H18Y13831   7.865   2.153   4.305  0.7616 -0.8580  1.2093
  128SOPE  H18Z13832   7.942   2.279   4.188 -2.1392 -0.6990  0.5161
  129OSM      N13833   2.508   4.972   6.228  0.3401  0.0984  0.1797
  129OSM    C1513834   2.416   5.027   6.117  0.8088  0.7849 -0.1406
  129OSM   H15A13835   2.424   4.956   6.035  0.0197 -1.0805  1.3445
  129OSM   H15B13836   2.442   5.130   6.098  0.0792  0.9862 -0.0795
  129OSM   H15C13837   2.314   5.027   6.152  0.2382 -1.2748 -1.6654
  129OSM    C1413838   2.477   5.067   6.342 -0.1726 -0.5690  0.2476
  129OSM   H14A13839   2.375   5.066   6.378 -0.0715 -1.2433  0.5279
  129OSM   H14B13840   2.508   5.167   6.318  0.0627 -0.7277 -0.1079
  129OSM   H14C13841   2.543   5.038   6.423 -1.4174  1.1770  1.9253
  129OSM    C1313842   2.458   4.842   6.278 -0.8916 -0.0456  0.1297
  129OSM   H13A13843   2.502   4.755   6.230 -0.0636  0.6244 -0.3359
  129OSM   H13B13844   2.351   4.831   6.279 -0.9903  0.4140 -2.4063
  129OSM   H13C13845   2.486   4.828   6.381 -1.9604 -0.5181  0.3588
  129OSM    C1213846   2.653   4.986   6.192  0.1483 -0.7259  0.1915
  129OSM   H12A13847   2.720   4.975   6.275  1.4481 -0.8058 -0.8473
  129OSM   H12B13848   2.673   5.086   6.158 -0.1441 -0.7595 -0.0851
  129OSM    C1113849   2.702   4.890   6.082  0.3831  0.6029 -0.0379
  129OSM   H11A13850   2.808   4.920   6.072 -0.1234  2.0085 -1.4982
  129OSM   H11B13851   2.651   4.910   5.985  2.0713 -1.0553 -1.2946
  129OSM      P13852   2.632   4.648   6.015 -0.0118  0.2518  0.1049
  129OSM    O1313853   2.680   4.513   6.048 -0.5509 -0.8401  0.0300
  129OSM    O1413854   2.487   4.669   5.990  0.0763 -0.2245 -0.3943
  129OSM    O1113855   2.707   4.691   5.885  0.1362  0.2839 -0.0484
  129OSM    O1213856   2.686   4.752   6.113 -0.1909 -0.5528  0.7966
  129OSM    C1S13857   2.839   4.659   5.861  0.4084 -0.2212  0.4280
  129OSM    H1S13858   2.886   4.596   5.941  2.5271 -0.1192 -0.7049
  129OSM    H1T13859   2.881   4.762   5.866  0.5790 -0.2790  0.1748
  129OSM     NF13860   2.995   4.586   5.680 -0.3386  0.3223 -0.6511
  129OSM    HNF13861   3.049   4.663   5.645 -0.5428  0.9482  0.3879
  129OSM    C2S13862   2.852   4.613   5.712  0.4055 -0.0231 -0.2421
  129OSM    H2S13863   2.800   4.516   5.697 -0.4961  0.6576 -1.6837
  129OSM    C3S13864   2.809   4.723   5.613 -1.0039  0.0325  0.4310
  129OSM    H3S13865   2.860   4.818   5.641 -2.6815  1.4334 -1.1515
  129OSM     O313866   2.676   4.763   5.635  0.1051 -0.1322 -0.2470
  129OSM    HO313867   2.658   4.714   5.715  1.3010 -0.3194 -0.0867
  129OSM    C4S13868   2.826   4.691   5.461 -0.3416 -0.0568 -0.0444
  129OSM    H4S13869   2.815   4.585   5.432 -0.1464  0.5644 -2.4836
  129OSM    C5S13870   2.893   4.765   5.374  0.0925  0.5315  0.2191
  129OSM    H5S13871   2.953   4.848   5.412  0.5022  0.3844 -0.1028
  129OSM    C6S13872   2.922   4.733   5.229  0.9591  0.3245  0.1950
  129OSM    H6S13873   3.030   4.707   5.230  0.4506 -1.8934  0.4160
  129OSM    H6T13874   2.898   4.820   5.165 -1.9366 -1.1320 -0.7903
  129OSM    C7S13875   2.850   4.608   5.164  0.3915  0.1835  0.1495
  129OSM    H7S13876   2.740   4.619   5.174  0.4218  1.5128 -0.8452
  129OSM    H7T13877   2.892   4.522   5.221  0.9309  0.9158  0.8690
  129OSM    C8S13878   2.881   4.594   5.012 -0.2539 -0.2759 -0.4637
  129OSM    H8S13879   2.818   4.509   4.977  0.1083 -0.9682  0.5529
  129OSM    H8T13880   2.988   4.567   4.998 -0.7975 -1.1872 -3.2970
  129OSM    C9S13881   2.825   4.708   4.919 -0.3710  0.2815 -0.1036
  129OSM    H9S13882   2.833   4.813   4.955 -1.6487  0.4801 -0.3767
  129OSM    H9T13883   2.716   4.700   4.900 -0.2436 -0.0710 -0.6932
  129OSM   C10S13884   2.892   4.708   4.776 -1.0587  0.4524  0.4046
  129OSM   H10S13885   2.853   4.628   4.709 -0.3054 -0.2691  0.8103
  129OSM   H10T13886   2.999   4.680   4.786 -1.2829 -1.9562 -2.8953
  129OSM   C11S13887   2.868   4.840   4.703 -1.1180 -0.7908  0.8692
  129OSM   H11S13888   2.916   4.922   4.760 -0.2162 -0.9295  0.3183
  129OSM   H11T13889   2.759   4.861   4.698 -0.8805  0.0711 -1.5207
  129OSM   C12S13890   2.922   4.837   4.558  0.8814 -1.0934  0.2377
  129OSM   H12S13891   2.888   4.933   4.514  1.2193 -0.7752  0.6702
  129OSM   H12T13892   2.868   4.756   4.504  0.6312  0.3169 -1.6840
  129OSM   C13S13893   3.080   4.836   4.552 -0.5597 -0.5791  0.7730
  129OSM   H13S13894   3.118   4.743   4.599  2.6253  0.6876  0.8321
  129OSM   H13T13895   3.126   4.927   4.597 -3.6504  1.3905  0.1059
  129OSM   C14S13896   3.140   4.846   4.415  0.6881 -0.1603 -0.0873
  129OSM   H14S13897   3.069   4.793   4.348 -2.4649  1.7902  1.5807
  129OSM   H14T13898   3.239   4.796   4.413  1.2265  0.8949 -0.1389
  129OSM   C15S13899   3.148   4.992   4.379  0.2424 -0.6977  0.1709
  129OSM   H15S13900   3.232   5.047   4.427 -0.3973  0.2767  0.1784
  129OSM   H15T13901   3.059   5.041   4.424  1.3321  2.8839 -1.4146
  129OSM   C16S13902   3.141   5.029   4.229 -0.1236  0.3518 -0.6806
  129OSM   H16S13903   3.050   4.975   4.195 -1.4432  1.8648  0.3815
  129OSM   H16T13904   3.238   4.989   4.193  1.0273  0.4684  2.1646
  129OSM   C17S13905   3.124   5.184   4.201  0.4604 -0.5078 -0.3726
  129OSM   H17S13906   3.220   5.234   4.224 -1.1535  1.3357  2.6833
  129OSM   H17T13907   3.033   5.223   4.251 -0.5885 -1.4092 -1.5373
  129OSM   C18S13908   3.103   5.205   4.050  0.3649  0.6125 -0.0276
  129OSM   H18S13909   3.041   5.123   4.009  2.1304 -0.9085  0.2546
  129OSM   H18T13910   3.197   5.200   3.991 -0.0969  0.1636 -0.7287
  129OSM   H18U13911   3.055   5.303   4.034  1.6042  1.3816  0.8915
  129OSM    C1F13912   3.068   4.487   5.733 -0.1371 -0.1235  1.0699
  129OSM     OF13913   3.021   4.414   5.820  0.3018 -0.5593 -0.5529
  129OSM    C2F13914   3.200   4.457   5.671  0.1252 -0.2431  0.6410
  129OSM    H2F13915   3.183   4.428   5.565 -1.9783 -1.2690  1.2101
  129OSM    H2G13916   3.241   4.371   5.729 -2.4349 -2.6372 -0.9432
  129OSM    C3F13917   3.306   4.568   5.683  0.1318  0.4455  0.3630
  129OSM    H3F13918   3.405   4.522   5.661  0.7474  1.4993  0.8867
  129OSM    H3G13919   3.323   4.617   5.781  1.5000  1.2101 -0.2405
  129OSM    C4F13920   3.301   4.687   5.582 -0.2428 -0.1622 -0.5742
  129OSM    H4F13921   3.387   4.746   5.620  0.2772 -0.8241 -0.7069
  129OSM    H4G13922   3.214   4.746   5.617  1.4062  1.9785  0.0648
  129OSM    C5F13923   3.284   4.647   5.431 -0.6798 -0.1555 -0.6192
  129OSM    H5F13924   3.173   4.638   5.427 -1.0127  2.0748  1.6433
  129OSM    H5G13925   3.338   4.554   5.407 -0.2645  0.3478 -1.6631
  129OSM    C6F13926   3.330   4.748   5.334 -0.6414 -0.8660 -0.1574
  129OSM    H6F13927   3.424   4.792   5.373 -0.1953 -0.4740 -1.6612
  129OSM    H6G13928   3.256   4.828   5.314  0.0548  0.8551  3.6827
  129OSM    C7F13929   3.368   4.682   5.203 -0.3975 -0.1713 -0.1511
  129OSM    H7F13930   3.298   4.604   5.166 -0.0935 -0.2714 -0.5150
  129OSM    H7G13931   3.451   4.615   5.232 -1.5846 -1.6298 -0.0588
  129OSM    C8F13932   3.405   4.780   5.102  0.4670  0.2024  0.2896
  129OSM    H8F13933   3.478   4.732   5.033  1.1155  1.8811 -0.2177
  129OSM    H8G13934   3.456   4.871   5.140 -0.0881  1.1020 -1.0635
  129OSM    C9F13935   3.287   4.819   5.013 -0.9238  0.3168 -0.0765
  129OSM    H9F13936   3.191   4.837   5.064 -1.8168  0.7801 -1.8518
  129OSM   C10F13937   3.280   4.827   4.887 -0.2623  0.5334  0.4599
  129OSM   H10F13938   3.186   4.862   4.842  0.3465  0.8047 -0.6188
  129OSM   C11F13939   3.398   4.799   4.797  0.2009  0.0416 -0.4380
  129OSM   H11F13940   3.489   4.842   4.844  0.1350 -0.6724  0.3361
  129OSM   H11G13941   3.383   4.858   4.704 -0.1637 -0.4263 -0.6709
  129OSM   C12F13942   3.416   4.652   4.753  0.4118 -0.3386 -0.5791
  129OSM   H12F13943   3.324   4.608   4.708 -2.7539  4.1094  1.1996
  129OSM   H12G13944   3.450   4.586   4.835 -1.1805 -1.9596 -1.1724
  129OSM   C13F13945   3.523   4.648   4.635 -0.7189  0.4788 -0.2787
  129OSM   H13F13946   3.626   4.662   4.672 -0.1993 -1.2473 -1.0246
  129OSM   H13G13947   3.502   4.742   4.580  0.8797  0.5035 -0.8537
  129OSM   C14F13948   3.524   4.538   4.532  0.0875  0.4267  0.3903
  129OSM   H14F13949   3.591   4.562   4.447  2.4391 -1.1008  1.7649
  129OSM   H14G13950   3.421   4.537   4.489 -0.7519 -1.0468  2.3480
  129OSM   C15F13951   3.555   4.404   4.601 -0.0158  0.3022  0.3210
  129OSM   H15F13952   3.514   4.396   4.704 -1.5555 -0.1185 -0.3147
  129OSM   H15G13953   3.665   4.392   4.612  0.0382  1.0591  0.6087
  129OSM   C16F13954   3.513   4.277   4.527 -0.5257  0.6739 -0.0480
  129OSM   H16F13955   3.581   4.261   4.440 -2.4429  1.7147 -1.7960
  129OSM   H16G13956   3.410   4.296   4.491 -1.4199 -0.6932  1.7234
  129OSM   C17F13957   3.494   4.157   4.625  0.2449 -0.1669 -0.4126
  129OSM   H17F13958   3.452   4.075   4.564  1.8800 -0.6616 -0.9120
  129OSM   H17G13959   3.416   4.175   4.702 -1.2004  0.7042 -2.0803
  129OSM   C18F13960   3.623   4.106   4.690  0.3622 -0.1530  0.3640
  129OSM   H18F13961   3.613   4.005   4.733  0.3015 -1.0576 -1.6916
  129OSM   H18G13962   3.661   4.173   4.769 -2.0274  0.6928  0.8380
  129OSM   H18H13963   3.710   4.088   4.623  0.2654 -0.2446  0.2612
  130OSM      N13964   3.790   5.464   6.370 -1.0530 -0.3330 -0.6223
  130OSM    C1513965   3.755   5.406   6.231  0.3327  0.0102 -0.2668
  130OSM   H15A13966   3.723   5.482   6.161 -0.8110 -1.1663 -1.0459
  130OSM   H15B13967   3.666   5.344   6.233 -0.6091  1.3220 -0.9673
  130OSM   H15C13968   3.834   5.352   6.182 -1.6453 -1.4402 -1.9361
  130OSM    C1413969   3.673   5.541   6.418 -0.0601  0.7726 -0.0343
  130OSM   H14A13970   3.663   5.630   6.357  2.7282  0.1309 -1.5206
  130OSM   H14B13971   3.681   5.566   6.523  0.5059 -3.0865  0.8897
  130OSM   H14C13972   3.579   5.489   6.426 -0.7673  1.9421 -0.4706
  130OSM    C1313973   3.802   5.353   6.471 -0.5782  0.2562 -0.2326
  130OSM   H13A13974   3.847   5.394   6.560 -0.1298 -1.7487  0.5139
  130OSM   H13B13975   3.865   5.272   6.436  0.1736  0.6560  0.1971
  130OSM   H13C13976   3.704   5.307   6.472 -0.8078  0.7385 -0.4896
  130OSM    C1213977   3.911   5.554   6.356  0.1698 -0.4578  0.1650
  130OSM   H12A13978   3.914   5.626   6.436  0.0606  0.0408 -0.2778
  130OSM   H12B13979   3.896   5.627   6.278  0.2925 -0.9673 -0.3437
  130OSM    C1113980   4.050   5.482   6.339 -0.1991 -0.3542 -0.2386
  130OSM   H11A13981   4.053   5.404   6.419 -1.5059  1.0317  1.1938
  130OSM   H11B13982   4.131   5.550   6.372  0.2913 -1.6496  1.3348
  130OSM      P13983   4.211   5.398   6.143  0.2024 -0.2527  0.2595
  130OSM    O1313984   4.251   5.533   6.092  0.0589 -1.0707  0.2588
  130OSM    O1413985   4.305   5.336   6.242 -0.0258  0.0266  0.3316
  130OSM    O1113986   4.177   5.308   6.015 -0.1987  0.7039 -0.4826
  130OSM    O1213987   4.067   5.424   6.209 -0.3056  0.3880  0.6024
  130OSM    C1S13988   4.071   5.214   6.011 -0.4506  0.4960  0.7511
  130OSM    H1S13989   3.980   5.257   6.059 -1.6517 -0.9728 -0.1704
  130OSM    H1T13990   4.092   5.123   6.070  1.0846  1.0668  1.0953
  130OSM     NF13991   3.899   5.150   5.840 -0.0241 -0.7524 -0.2525
  130OSM    HNF13992   3.865   5.056   5.833  1.3694 -1.3198  0.5212
  130OSM    C2S13993   4.041   5.181   5.860  0.4821  0.2112  0.4811
  130OSM    H2S13994   4.060   5.273   5.801 -0.1407 -1.1481 -1.9472
  130OSM    C3S13995   4.144   5.079   5.806  0.2424  0.2691 -0.1824
  130OSM    H3S13996   4.138   4.995   5.879  1.7291  1.0468  0.8346
  130OSM     O313997   4.278   5.137   5.817  0.0396 -0.5206 -0.6050
  130OSM    HO313998   4.266   5.208   5.880  0.2359 -1.0254  0.0018
  130OSM    C4S13999   4.118   5.037   5.665 -0.3297  0.4240  0.0068
  130OSM    H4S14000   4.164   5.095   5.584  0.4421 -0.2488 -0.0486
  130OSM    C5S14001   4.047   4.928   5.628  0.4251 -0.0186  0.4030
  130OSM    H5S14002   3.985   4.871   5.700  1.3388 -1.0029  0.4212
  130OSM    C6S14003   4.037   4.888   5.482  0.6784 -0.4794  0.1788
  130OSM    H6S14004   4.035   4.777   5.483 -2.7129 -0.4639 -0.7100
  130OSM    H6T14005   4.127   4.922   5.426 -1.4048  2.1583 -1.7441
  130OSM    C7S14006   3.910   4.936   5.421  0.3428 -0.4168  0.2632
  130OSM    H7S14007   3.893   5.044   5.443  1.6709  0.3175 -2.1183
  130OSM    H7T14008   3.836   4.865   5.464 -0.5878  0.4788  0.1620
  130OSM    C8S14009   3.916   4.901   5.273  0.1476  0.3902  0.1890
  130OSM    H8S14010   3.941   4.794   5.259  2.5674  0.7585  1.5276
  130OSM    H8T14011   4.002   4.960   5.234  0.9324  0.4022  1.8827
  130OSM    C9S14012   3.787   4.928   5.198 -0.1149  0.2507  0.0224
  130OSM    H9S14013   3.727   5.003   5.253 -3.2855 -2.1253 -0.0367
  130OSM    H9T14014   3.722   4.839   5.204 -0.6459  0.7334  1.4460
  130OSM   C10S14015   3.818   4.967   5.057 -0.0234 -0.1978  0.4472
  130OSM   H10S14016   3.865   4.880   5.005  0.8098  1.3770 -1.5088
  130OSM   H10T14017   3.890   5.051   5.044 -0.5070  0.2764  0.8255
  130OSM   C11S14018   3.697   5.008   4.975 -0.2015  0.1018  0.3368
  130OSM   H11S14019   3.640   5.083   5.035  1.9917  1.2684  0.9975
  130OSM   H11T14020   3.631   4.919   4.980 -0.2965  0.1113 -0.6850
  130OSM   C12S14021   3.722   5.047   4.833  0.6217 -0.3841 -0.4360
  130OSM   H12S14022   3.752   4.960   4.770 -0.8955 -1.4096  0.2276
  130OSM   H12T14023   3.802   5.124   4.821 -0.3511  0.4356 -1.7607
  130OSM   C13S14024   3.600   5.123   4.764 -0.0938  0.1745  0.4044
  130OSM   H13S14025   3.574   5.219   4.815 -1.3032 -0.9846  2.0569
  130OSM   H13T14026   3.520   5.046   4.769  0.6949 -0.5529  2.1725
  130OSM   C14S14027   3.626   5.144   4.615 -0.2985 -0.5405  0.1830
  130OSM   H14S14028   3.663   5.050   4.570 -0.6804 -0.3366 -0.5751
  130OSM   H14T14029   3.705   5.222   4.604  0.0940 -0.9856 -0.1416
  130OSM   C15S14030   3.497   5.193   4.544  0.2960  0.2450  0.2816
  130OSM   H15S14031   3.483   5.301   4.567 -0.3423  0.1525  0.3274
  130OSM   H15T14032   3.411   5.130   4.575  0.8172 -2.8349 -4.0825
  130OSM   C16S14033   3.501   5.177   4.387 -0.4126 -0.1061  0.6039
  130OSM   H16S14034   3.403   5.207   4.343  0.9619 -0.8601 -3.1830
  130OSM   H16T14035   3.525   5.071   4.367 -3.0135 -0.6006 -0.0691
  130OSM   C17S14036   3.604   5.263   4.322  0.1623  0.2060 -0.0058
  130OSM   H17S14037   3.710   5.238   4.345  0.3623  2.1732  1.3640
  130OSM   H17T14038   3.584   5.368   4.355 -0.5459  0.4303 -1.1373
  130OSM   C18S14039   3.592   5.251   4.175  0.2171  0.2768 -0.2433
  130OSM   H18S14040   3.566   5.149   4.141 -2.2016  0.6326  0.4030
  130OSM   H18T14041   3.685   5.281   4.122  0.8265  2.0866  1.7563
  130OSM   H18U14042   3.506   5.309   4.134  0.0934  0.0385 -0.3166
  130OSM    C1F14043   3.806   5.244   5.845  0.2834 -0.3846  0.7563
  130OSM     OF14044   3.846   5.363   5.833  0.1961  0.1247 -0.7677
  130OSM    C2F14045   3.658   5.202   5.874  0.2665 -0.9155  0.0456
  130OSM    H2F14046   3.651   5.174   5.982 -0.1717  0.2935  0.3285
  130OSM    H2G14047   3.646   5.108   5.816 -1.9973 -0.2275 -0.6204
  130OSM    C3F14048   3.558   5.310   5.829 -0.1528 -1.3762 -1.2393
  130OSM    H3F14049   3.458   5.265   5.816 -0.5405 -0.6448 -0.8061
  130OSM    H3G14050   3.584   5.346   5.727  0.7817 -0.6204 -0.7506
  130OSM    C4F14051   3.547   5.423   5.935  0.7321 -0.3406 -0.7849
  130OSM    H4F14052   3.636   5.490   5.939 -0.0153  0.6380 -0.0235
  130OSM    H4G14053   3.539   5.382   6.038  0.4625 -0.1351 -0.7224
  130OSM    C5F14054   3.421   5.514   5.904 -0.2929  0.1014 -0.5809
  130OSM    H5F14055   3.411   5.595   5.980  2.4286  0.4001 -0.4877
  130OSM    H5G14056   3.329   5.453   5.921 -0.4559  1.0084  2.0861
  130OSM    C6F14057   3.443   5.588   5.778  0.0924 -0.5940  0.4707
  130OSM    H6F14058   3.448   5.524   5.687 -1.8330  2.1140 -1.6164
  130OSM    H6G14059   3.546   5.629   5.787 -0.5360  0.8358  1.2091
  130OSM    C7F14060   3.353   5.700   5.739  0.0333 -0.3859  0.0270
  130OSM    H7F14061   3.370   5.745   5.638 -0.4385  0.0459  0.1392
  130OSM    H7G14062   3.367   5.782   5.812  0.0778  0.9027 -1.3841
  130OSM    C8F14063   3.205   5.665   5.731  0.0626  0.0589 -0.4733
  130OSM    H8F14064   3.175   5.608   5.822 -0.0952  0.4669 -0.2716
  130OSM    H8G14065   3.209   5.592   5.647  1.7898 -2.0879  1.4032
  130OSM    C9F14066   3.100   5.772   5.720  0.1571  0.0138 -0.6679
  130OSM    H9F14067   3.036   5.794   5.807  0.4482  1.2615 -0.7662
  130OSM   C10F14068   3.082   5.847   5.615  0.1746  0.1192 -0.3036
  130OSM   H10F14069   3.007   5.927   5.622 -0.2911 -0.2129 -1.5101
  130OSM   C11F14070   3.164   5.838   5.491  0.1616 -0.2382 -0.5788
  130OSM   H11F14071   3.221   5.745   5.469  1.4259  0.4806 -0.3723
  130OSM   H11G14072   3.246   5.912   5.482 -0.9839  0.9733 -1.1350
  130OSM   C12F14073   3.087   5.887   5.365  0.6361 -0.5105  0.1409
  130OSM   H12F14074   3.070   5.997   5.374  1.2308 -0.6147  2.9845
  130OSM   H12G14075   2.993   5.828   5.365 -2.0260  3.5068 -0.4673
  130OSM   C13F14076   3.169   5.855   5.242  0.0921 -0.2851  0.6642
  130OSM   H13F14077   3.142   5.922   5.157  0.3399 -2.0162 -0.8198
  130OSM   H13G14078   3.164   5.748   5.213  1.6050 -0.6264  1.6390
  130OSM   C14F14079   3.322   5.883   5.256  0.4286  0.5968  0.2676
  130OSM   H14F14080   3.368   5.805   5.320 -0.7703  0.6639  1.2233
  130OSM   H14G14081   3.325   5.985   5.299  2.6832  0.0871  1.3934
  130OSM   C15F14082   3.392   5.867   5.125 -0.7351 -0.2953  0.8134
  130OSM   H15F14083   3.367   5.960   5.069 -1.3091 -0.6078  0.5488
  130OSM   H15G14084   3.350   5.778   5.074 -2.5397  1.2576 -0.5208
  130OSM   C16F14085   3.545   5.858   5.135  0.2345  0.1181 -0.0706
  130OSM   H16F14086   3.576   5.798   5.223 -0.5498 -1.3540 -0.7749
  130OSM   H16G14087   3.598   5.949   5.169 -0.3873  0.4339  0.0429
  130OSM   C17F14088   3.633   5.803   5.017 -0.6494 -0.2286  0.4306
  130OSM   H17F14089   3.736   5.803   5.058 -0.1202  0.8339 -0.8549
  130OSM   H17G14090   3.626   5.866   4.926 -1.5336 -3.2059 -1.6358
  130OSM   C18F14091   3.610   5.657   4.978 -0.6752  0.5837 -0.2628
  130OSM   H18F14092   3.502   5.638   4.960 -0.5205 -1.1306  0.5823
  130OSM   H18G14093   3.627   5.584   5.060 -2.2609 -0.9398 -1.2571
  130OSM   H18H14094   3.676   5.629   4.893 -2.8371  2.2787 -2.6003
  131OSM      N14095   3.989   2.016   6.358 -0.1310 -0.3521  0.3387
  131OSM    C1514096   3.930   1.919   6.457 -0.6107 -0.2865  0.6471
  131OSM   H15A14097   3.825   1.946   6.460 -0.2649  1.0677  0.6453
  131OSM   H15B14098   3.987   1.918   6.549  1.5915  0.7091 -0.6677
  131OSM   H15C14099   3.942   1.819   6.418 -3.4621 -0.4082 -0.0254
  131OSM    C1414100   3.981   2.153   6.424 -0.6396  0.6921  0.2293
  131OSM   H14A14101   3.891   2.164   6.483 -2.3553 -1.1843 -1.9144
  131OSM   H14B14102   3.982   2.235   6.353  1.7195  1.6903  1.3608
  131OSM   H14C14103   4.063   2.169   6.492  0.2970 -1.2808 -0.3978
  131OSM    C1314104   4.126   1.982   6.328 -0.0982  0.2913 -0.1070
  131OSM   H13A14105   4.172   2.047   6.254 -0.8950 -1.7495 -2.4577
  131OSM   H13B14106   4.123   1.888   6.275  1.6390  0.5148 -0.6370
  131OSM   H13C14107   4.187   1.976   6.417  0.7272 -0.8676 -0.7254
  131OSM    C1214108   3.910   2.017   6.229  0.3771 -1.1026  0.3012
  131OSM   H12A14109   3.812   2.029   6.273  0.7212  0.7029  0.6395
  131OSM   H12B14110   3.934   1.922   6.184 -1.2249 -1.9611  1.2621
  131OSM    C1114111   3.946   2.118   6.112  0.9735 -0.0040 -0.2410
  131OSM   H11A14112   3.867   2.103   6.035  1.0789 -1.6646 -0.0264
  131OSM   H11B14113   4.042   2.080   6.071  1.1589 -0.1909  0.3622
  131OSM      P14114   3.840   2.348   6.130 -0.0977  0.0510  0.2242
  131OSM    O1314115   3.705   2.291   6.158 -0.4611  0.3123 -0.4268
  131OSM    O1414116   3.873   2.476   6.196  0.0795 -0.1905 -0.5486
  131OSM    O1114117   3.856   2.368   5.973 -0.2782  0.6271 -0.0462
  131OSM    O1214118   3.952   2.247   6.164 -0.3096  0.4279 -0.0124
  131OSM    C1S14119   3.993   2.410   5.925 -0.1266 -0.4690  0.8351
  131OSM    H1S14120   4.065   2.430   6.006 -0.9299  0.1570  1.3995
  131OSM    H1T14121   3.989   2.508   5.873  0.4075  1.1024  3.6883
  131OSM     NF14122   4.193   2.355   5.801 -0.2645  0.2013 -0.2542
  131OSM    HNF14123   4.206   2.429   5.736 -3.2673  1.7938  0.8638
  131OSM    C2S14124   4.055   2.316   5.822  0.4076 -0.3854 -0.4942
  131OSM    H2S14125   4.051   2.213   5.864 -0.6571  0.0281  0.4580
  131OSM    C3S14126   3.962   2.322   5.697  0.1925  0.1475 -0.9450
  131OSM    H3S14127   3.972   2.423   5.652 -0.7084  1.8006  2.3672
  131OSM     O314128   3.821   2.311   5.723  0.1486  0.2561 -0.1818
  131OSM    HO314129   3.810   2.339   5.814  1.9179 -0.3299  0.2360
  131OSM    C4S14130   4.003   2.209   5.602 -0.3245  0.2006  0.2728
  131OSM    H4S14131   3.986   2.103   5.624  1.0901  0.2026  1.4636
  131OSM    C5S14132   4.049   2.231   5.477  0.8478  0.2153 -0.3786
  131OSM    H5S14133   4.055   2.334   5.437  2.2757  0.8784  1.4226
  131OSM    C6S14134   4.077   2.126   5.380  0.2230 -0.2199 -0.0481
  131OSM    H6S14135   4.044   2.030   5.425 -0.8742  1.4057  2.7407
  131OSM    H6T14136   4.187   2.118   5.367 -0.0071  0.2312 -2.4331
  131OSM    C7S14137   4.023   2.133   5.239  0.6592 -0.1463  0.3274
  131OSM    H7S14138   4.039   2.236   5.200  1.1563 -0.8686 -1.4522
  131OSM    H7T14139   3.913   2.115   5.244  0.3983  1.5710  1.2817
  131OSM    C8S14140   4.098   2.038   5.144 -0.1321  0.5836 -0.4604
  131OSM    H8S14141   4.136   1.948   5.198 -0.6346  0.0216 -1.0279
  131OSM    H8T14142   4.190   2.088   5.106  0.8355 -0.7243  0.0951
  131OSM    C9S14143   4.008   2.008   5.026  0.1492  0.6926  0.4382
  131OSM    H9S14144   3.914   1.974   5.076 -0.6742 -0.4162 -1.8036
  131OSM    H9T14145   4.047   1.927   4.961 -2.0352  0.4094 -0.5824
  131OSM   C10S14146   3.994   2.131   4.935  0.1538  0.0230 -1.1748
  131OSM   H10S14147   4.091   2.179   4.909 -0.6112  1.3156 -1.6200
  131OSM   H10T14148   3.927   2.194   4.996 -1.0964 -0.1431 -2.3620
  131OSM   C11S14149   3.928   2.090   4.802  0.3452 -0.0883 -0.1006
  131OSM   H11S14150   3.817   2.090   4.796  0.2948  1.1006  0.7771
  131OSM   H11T14151   3.961   1.992   4.761  0.6557  0.2600 -0.6823
  131OSM   C12S14152   3.952   2.190   4.684  0.1129 -0.0527  0.9378
  131OSM   H12S14153   4.057   2.227   4.687 -0.8663  2.8510  2.3961
  131OSM   H12T14154   3.897   2.284   4.707 -2.4780 -1.4431  0.5206
  131OSM   C13S14155   3.917   2.130   4.548 -0.0471  0.1629 -0.4208
  131OSM   H13S14156   3.888   2.214   4.481 -0.4536  1.0322  0.8203
  131OSM   H13T14157   3.824   2.070   4.559  0.5573 -0.8974 -1.0632
  131OSM   C14S14158   4.017   2.039   4.474 -0.0315  0.7494 -0.2901
  131OSM   H14S14159   4.047   1.952   4.536  0.0700  1.3029  0.4555
  131OSM   H14T14160   4.108   2.102   4.461  0.9293 -1.0721 -2.8407
  131OSM   C15S14161   3.970   1.983   4.337 -0.1170 -0.0190  0.1506
  131OSM   H15S14162   4.068   1.955   4.293  0.7576  2.4352  0.4627
  131OSM   H15T14163   3.914   2.056   4.274  1.4558 -0.2030 -1.4888
  131OSM   C16S14164   3.882   1.855   4.348 -0.0036 -0.1266 -0.3734
  131OSM   H16S14165   3.840   1.826   4.250 -0.0299 -1.5712  0.0489
  131OSM   H16T14166   3.799   1.880   4.417 -0.8715 -0.5551 -1.2548
  131OSM   C17S14167   3.950   1.728   4.400 -0.2664  0.5030 -0.3256
  131OSM   H17S14168   3.950   1.733   4.511 -1.6271  0.4738 -0.3105
  131OSM   H17T14169   4.052   1.705   4.363 -0.1203  1.7141 -0.7042
  131OSM   C18S14170   3.864   1.600   4.370 -0.1666  0.2298 -0.1661
  131OSM   H18S14171   3.919   1.511   4.408 -1.4214  0.5559  2.5669
  131OSM   H18T14172   3.843   1.589   4.261 -3.5780  1.9132  0.2545
  131OSM   H18U14173   3.770   1.608   4.429  0.5875 -0.3750  1.1445
  131OSM    C1F14174   4.291   2.324   5.879  0.1783  0.4861 -0.7350
  131OSM     OF14175   4.273   2.252   5.983 -0.7854  0.4550  0.0140
  131OSM    C2F14176   4.430   2.379   5.855 -0.0171  1.0181 -0.1327
  131OSM    H2F14177   4.430   2.460   5.931 -2.2921  2.3236 -1.4604
  131OSM    H2G14178   4.433   2.421   5.752  1.3021  1.5453  0.1050
  131OSM    C3F14179   4.545   2.272   5.856  0.8413  0.3659 -0.0829
  131OSM    H3F14180   4.556   2.251   5.964 -1.4734 -1.5630 -0.1835
  131OSM    H3G14181   4.636   2.328   5.825  1.6302 -1.1917 -0.5938
  131OSM    C4F14182   4.525   2.147   5.775 -0.3431  0.6036  0.1905
  131OSM    H4F14183   4.454   2.081   5.830 -1.0501  2.9443  2.1650
  131OSM    H4G14184   4.622   2.094   5.769  0.0417  1.4986 -2.1591
  131OSM    C5F14185   4.480   2.155   5.626 -0.4146 -0.1709  0.9666
  131OSM    H5F14186   4.555   2.229   5.594 -1.6943  1.6181  2.0400
  131OSM    H5G14187   4.383   2.210   5.626  0.9729  2.3635  2.2708
  131OSM    C6F14188   4.486   2.028   5.544 -0.7389 -0.0543  0.0959
  131OSM    H6F14189   4.587   1.985   5.528  0.1448  1.3424  1.8262
  131OSM    H6G14190   4.452   2.066   5.445 -0.6330  0.2610  0.1810
  131OSM    C7F14191   4.372   1.931   5.586  0.3656  0.2151 -0.0176
  131OSM    H7F14192   4.336   1.882   5.493  2.3847 -1.0874 -0.1552
  131OSM    H7G14193   4.290   1.991   5.632 -0.9208 -1.0580 -0.5936
  131OSM    C8F14194   4.418   1.819   5.687  0.3215 -0.6302  0.2648
  131OSM    H8F14195   4.467   1.862   5.777 -1.4845  0.9377  0.5208
  131OSM    H8G14196   4.499   1.757   5.643  2.4891  0.2753  2.8675
  131OSM    C9F14197   4.306   1.733   5.735 -0.2411 -0.3054  0.1979
  131OSM    H9F14198   4.264   1.756   5.834  0.8588 -0.1870  0.6469
  131OSM   C10F14199   4.267   1.622   5.672  0.4861  0.5096 -0.1534
  131OSM   H10F14200   4.175   1.574   5.709 -1.7323  3.3082 -1.8053
  131OSM   C11F14201   4.307   1.580   5.535  0.0742 -0.0666 -0.1487
  131OSM   H11F14202   4.336   1.473   5.537  0.5098  0.0588  1.3856
  131OSM   H11G14203   4.398   1.635   5.502  0.9273 -1.6226 -0.4054
  131OSM   C12F14204   4.194   1.594   5.426 -0.5298 -0.7067  0.3428
  131OSM   H12F14205   4.143   1.692   5.437  3.0667  1.0901  1.7182
  131OSM   H12G14206   4.126   1.508   5.445 -3.8687  1.9872  1.1171
  131OSM   C13F14207   4.252   1.599   5.284 -0.6139 -0.4016  0.4315
  131OSM   H13F14208   4.329   1.521   5.264 -0.6202  0.0968 -1.6175
  131OSM   H13G14209   4.301   1.698   5.275 -2.1688  0.2714 -0.8799
  131OSM   C14F14210   4.140   1.590   5.183  0.1075 -0.4599 -0.3460
  131OSM   H14F14211   4.058   1.663   5.199  0.2613 -0.3472 -0.0591
  131OSM   H14G14212   4.094   1.489   5.185  0.5526 -0.6515  0.7887
  131OSM   C15F14213   4.196   1.624   5.042  0.1146  0.2674  0.3487
  131OSM   H15F14214   4.276   1.553   5.010  0.2191  0.1123  0.9450
  131OSM   H15G14215   4.234   1.728   5.045  0.6612  0.1480 -1.5133
  131OSM   C16F14216   4.086   1.624   4.936  0.1740 -0.1651 -0.0630
  131OSM   H16F14217   4.021   1.711   4.960  1.5820  0.8186  0.2807
  131OSM   H16G14218   4.025   1.534   4.957 -0.9976  0.9473  1.4153
  131OSM   C17F14219   4.138   1.624   4.791  1.2999 -0.1263 -0.6643
  131OSM   H17F14220   4.062   1.608   4.711 -0.3924  2.5606  0.3248
  131OSM   H17G14221   4.201   1.533   4.782 -0.4970 -1.4061 -0.7122
  131OSM   C18F14222   4.219   1.749   4.760 -0.0781 -0.1107  0.3379
  131OSM   H18F14223   4.232   1.754   4.649 -2.6881  1.5465  0.0717
  131OSM   H18G14224   4.313   1.758   4.817  0.2878  0.2353 -0.3093
  131OSM   H18H14225   4.161   1.842   4.780  1.2522  0.3110  2.2846
  132OSM      N14226   4.618   5.157   6.088 -0.0170 -1.1589 -0.3111
  132OSM    C1514227   4.552   5.067   5.979 -0.3523 -0.4452 -0.3546
  132OSM   H15A14228   4.606   5.049   5.887 -0.3097 -2.0770 -0.0206
  132OSM   H15B14229   4.457   5.109   5.949 -0.4571 -1.2401 -1.1705
  132OSM   H15C14230   4.524   4.969   6.015 -0.5809  0.1235  1.0261
  132OSM    C1414231   4.619   5.288   6.027  0.9262  0.3887 -0.2469
  132OSM   H14A14232   4.690   5.282   5.946  0.5604  0.9892 -0.6228
  132OSM   H14B14233   4.656   5.359   6.100  1.4219  0.1955 -0.3131
  132OSM   H14C14234   4.524   5.316   5.983 -0.2758 -1.1080  1.3227
  132OSM    C1314235   4.537   5.159   6.216  0.3930  0.4744 -0.4297
  132OSM   H13A14236   4.435   5.188   6.198  0.3613 -0.6108 -2.0935
  132OSM   H13B14237   4.573   5.232   6.288  1.3044  0.0118 -0.4110
  132OSM   H13C14238   4.527   5.064   6.267 -2.4326  0.0616 -1.6713
  132OSM    C1214239   4.753   5.093   6.116 -0.2065  0.8287 -0.1709
  132OSM   H12A14240   4.738   4.988   6.136 -1.4518  1.0899  0.3250
  132OSM   H12B14241   4.786   5.125   6.214 -0.0899 -0.8258  0.3545
  132OSM    C1114242   4.869   5.111   6.012  0.1723 -0.2953 -0.2093
  132OSM   H11A14243   4.847   5.054   5.919 -0.0695 -0.3247 -0.1334
  132OSM   H11B14244   4.958   5.058   6.052  0.8509  0.3306 -0.8872
  132OSM      P14245   5.003   5.329   6.064 -0.5322  0.0780  0.0657
  132OSM    O1314246   4.968   5.471   6.055  0.9679 -0.3387  0.4029
  132OSM    O1414247   5.015   5.273   6.201 -0.0073 -0.1777 -0.2930
  132OSM    O1114248   5.136   5.308   5.976 -0.9007  0.8849  0.2514
  132OSM    O1214249   4.899   5.245   5.980 -0.0951 -0.1960  0.2482
  132OSM    C1S14250   5.136   5.278   5.836 -0.0150 -0.2344  0.1736
  132OSM    H1S14251   5.141   5.373   5.778  0.0877  0.2304  0.9373
  132OSM    H1T14252   5.045   5.226   5.800  0.0501  0.8459 -1.6457
  132OSM     NF14253   5.284   5.173   5.651 -0.0833 -0.1185 -0.1215
  132OSM    HNF14254   5.255   5.091   5.602  0.1406 -0.3184  0.0774
  132OSM    C2S14255   5.257   5.184   5.799  0.5014 -0.5218 -0.1961
  132OSM    H2S14256   5.339   5.239   5.850 -1.6277  1.0111  1.6526
  132OSM    C3S14257   5.252   5.041   5.857 -0.2383 -0.3378  0.1361
  132OSM    H3S14258   5.161   4.985   5.823 -1.0866  1.4332 -0.5761
  132OSM     O314259   5.230   5.037   5.999 -0.0534  0.0013  0.0933
  132OSM    HO314260   5.189   5.121   6.022  3.1050  1.3990  0.8532
  132OSM    C4S14261   5.379   4.969   5.826 -0.4270  0.4313 -0.0286
  132OSM    H4S14262   5.465   5.010   5.880  1.8136 -0.5794 -2.7216
  132OSM    C5S14263   5.390   4.865   5.742 -0.3826 -0.7783  0.0181
  132OSM    H5S14264   5.300   4.826   5.692 -0.1279  0.0006 -1.0681
  132OSM    C6S14265   5.519   4.788   5.716 -0.3242  0.0627 -0.2505
  132OSM    H6S14266   5.498   4.679   5.721 -0.1377 -0.0776 -2.2353
  132OSM    H6T14267   5.597   4.794   5.795  0.0684  0.0031 -0.6280
  132OSM    C7S14268   5.577   4.816   5.578 -0.1190  1.2222  0.3621
  132OSM    H7S14269   5.505   4.808   5.493  2.5186 -0.0318 -1.8217
  132OSM    H7T14270   5.648   4.730   5.577 -0.3815  1.0013 -1.3766
  132OSM    C8S14271   5.662   4.940   5.573 -0.3187  0.1431 -0.2190
  132OSM    H8S14272   5.738   4.925   5.653 -0.4014 -0.8614 -0.3254
  132OSM    H8T14273   5.607   5.035   5.588 -0.9711  0.0227 -1.7410
  132OSM    C9S14274   5.732   4.947   5.435 -0.6046 -0.3056 -0.0090
  132OSM    H9S14275   5.802   5.034   5.440 -0.7480 -0.2476  1.2201
  132OSM    H9T14276   5.649   4.973   5.366  0.8387  1.6188 -1.0737
  132OSM   C10S14277   5.796   4.812   5.395  0.8681  0.1755 -0.2448
  132OSM   H10S14278   5.738   4.717   5.398  1.3006 -0.0790  0.4283
  132OSM   H10T14279   5.882   4.795   5.464 -1.2252 -0.8028  2.2005
  132OSM   C11S14280   5.837   4.827   5.251  0.1510  0.4432  0.0819
  132OSM   H11S14281   5.926   4.766   5.223  0.2990  1.4443 -1.6659
  132OSM   H11T14282   5.857   4.934   5.233 -0.6171  0.4690 -0.6432
  132OSM   C12S14283   5.727   4.786   5.152 -0.2219 -0.1596 -0.2528
  132OSM   H12S14284   5.636   4.849   5.149  0.1711  0.4096 -0.3976
  132OSM   H12T14285   5.700   4.684   5.185 -2.2572  0.5778  0.4087
  132OSM   C13S14286   5.803   4.758   5.010  0.2250 -0.1475  0.3748
  132OSM   H13S14287   5.736   4.700   4.943  0.2024  1.3349 -0.9173
  132OSM   H13T14288   5.891   4.695   5.036 -1.0499 -2.6988 -1.2407
  132OSM   C14S14289   5.844   4.897   4.955 -0.3906 -0.2813  1.1003
  132OSM   H14S14290   5.867   4.970   5.035  0.8693 -1.2692  1.6485
  132OSM   H14T14291   5.761   4.944   4.898  1.2663 -0.8618 -1.8599
  132OSM   C15S14292   5.943   4.893   4.836 -0.1101  0.0281 -0.3023
  132OSM   H15S14293   6.033   4.834   4.864 -0.8564 -0.3690  1.3367
  132OSM   H15T14294   5.965   4.997   4.803  1.4287  0.0477  0.7105
  132OSM   C16S14295   5.885   4.821   4.711  0.3523  0.0257  0.5874
  132OSM   H16S14296   5.783   4.859   4.691  0.0779 -0.0052  1.8623
  132OSM   H16T14297   5.875   4.714   4.739 -1.0990  0.1976  0.7425
  132OSM   C17S14298   5.976   4.838   4.584 -0.0750 -0.3724  0.2065
  132OSM   H17S14299   5.985   4.947   4.565 -1.7892  0.2822  2.8170
  132OSM   H17T14300   5.923   4.785   4.503 -1.6975  1.0792  0.2761
  132OSM   C18S14301   6.115   4.782   4.591  0.7270 -0.1148 -0.0541
  132OSM   H18S14302   6.116   4.677   4.629  0.9291 -1.1282 -2.7325
  132OSM   H18T14303   6.178   4.836   4.665 -1.1339  2.7536 -0.4925
  132OSM   H18U14304   6.158   4.791   4.489 -0.4769 -1.1716 -0.6812
  132OSM    C1F14305   5.313   5.282   5.578 -0.0881 -0.2040 -0.6157
  132OSM     OF14306   5.346   5.384   5.635  0.0028  0.0474 -0.5862
  132OSM    C2F14307   5.299   5.287   5.422  0.1772 -0.0098 -0.7247
  132OSM    H2F14308   5.233   5.372   5.396  0.1610  0.5417  1.0340
  132OSM    H2G14309   5.257   5.192   5.381  0.1035  0.3077 -1.3787
  132OSM    C3F14310   5.434   5.310   5.355 -0.3294  0.2999  0.4729
  132OSM    H3F14311   5.512   5.243   5.397 -2.2210 -0.1719  3.3740
  132OSM    H3G14312   5.469   5.406   5.398  0.7738 -0.1341  0.5538
  132OSM    C4F14313   5.415   5.301   5.207  0.2667  0.4317  0.3887
  132OSM    H4F14314   5.333   5.367   5.171 -1.3084  0.2759  3.5794
  132OSM    H4G14315   5.383   5.196   5.189 -0.9801  1.0065 -0.8622
  132OSM    C5F14316   5.543   5.342   5.135  0.6415 -0.4348  0.5803
  132OSM    H5F14317   5.620   5.269   5.167 -0.3938 -1.4835  0.6790
  132OSM    H5G14318   5.560   5.445   5.175 -2.9438  0.2303  0.5962
  132OSM    C6F14319   5.526   5.355   4.985 -0.2934 -0.2869  0.0054
  132OSM    H6F14320   5.617   5.402   4.942 -0.4094 -0.8941 -0.9188
  132OSM    H6G14321   5.449   5.430   4.957 -0.1166 -0.2244 -0.3227
  132OSM    C7F14322   5.505   5.221   4.927  0.4450  0.0671 -0.4910
  132OSM    H7F14323   5.410   5.173   4.961  1.7126 -0.9594  1.6972
  132OSM    H7G14324   5.576   5.145   4.966  0.0294 -0.0882 -0.0231
  132OSM    C8F14325   5.507   5.214   4.771 -0.0569 -0.3431 -0.1395
  132OSM    H8F14326   5.454   5.302   4.729 -1.4555 -0.9376  0.3633
  132OSM    H8G14327   5.462   5.119   4.734 -0.1909 -0.4150  0.2009
  132OSM    C9F14328   5.655   5.214   4.725  0.5005  0.1844  0.7740
  132OSM    H9F14329   5.724   5.132   4.750  1.0223  0.0265 -1.0859
  132OSM   C10F14330   5.700   5.303   4.637 -0.8120 -0.6031  0.1770
  132OSM   H10F14331   5.809   5.311   4.623 -0.7608  1.9436  1.5621
  132OSM   C11F14332   5.631   5.418   4.573  0.3411 -1.0990 -0.4620
  132OSM   H11F14333   5.536   5.441   4.627 -1.5095 -0.1461 -3.9675
  132OSM   H11G14334   5.597   5.391   4.471 -2.3187 -1.6125  0.5166
  132OSM   C12F14335   5.718   5.545   4.569  0.7313 -0.1571  0.9360
  132OSM   H12F14336   5.757   5.567   4.671 -2.4145 -1.4660  2.4959
  132OSM   H12G14337   5.652   5.632   4.553 -1.8678 -2.1794  0.2513
  132OSM   C13F14338   5.827   5.564   4.460 -0.2122 -0.1340 -0.1261
  132OSM   H13F14339   5.896   5.476   4.464 -1.7826 -1.3400  1.1554
  132OSM   H13G14340   5.879   5.660   4.478 -1.6539  0.8816 -1.2376
  132OSM   C14F14341   5.774   5.579   4.324  1.3260  0.0754  0.4078
  132OSM   H14F14342   5.698   5.659   4.314  2.1332  0.7348 -0.5865
  132OSM   H14G14343   5.720   5.488   4.288  0.8720  0.0343  1.1968
  132OSM   C15F14344   5.880   5.620   4.220 -0.7266  0.1052  0.2561
  132OSM   H15F14345   5.821   5.622   4.126 -3.9543 -0.5256  2.1944
  132OSM   H15G14346   5.963   5.546   4.220 -0.0266  0.8811  0.0457
  132OSM   C16F14347   5.951   5.751   4.243  0.6075 -0.1397  0.4269
  132OSM   H16F14348   6.023   5.734   4.326  0.1999 -0.2358  0.7652
  132OSM   H16G14349   5.880   5.834   4.265  1.4769  1.1311 -1.5071
  132OSM   C17F14350   6.031   5.798   4.122 -0.1526  0.1638 -0.2914
  132OSM   H17F14351   5.989   5.765   4.024  0.8325 -2.5248  0.1527
  132OSM   H17G14352   6.129   5.746   4.121  0.7121  1.7380 -2.1147
  132OSM   C18F14353   6.054   5.954   4.125 -0.6532 -0.2752 -0.0013
  132OSM   H18F14354   6.144   5.989   4.069 -0.7138  1.8601  1.1718
  132OSM   H18G14355   6.084   5.974   4.230  0.9777 -3.2479  0.1544
  132OSM   H18H14356   5.962   6.014   4.109  0.3198  0.8621 -1.5355
  133OSM      N14357   2.080   5.744   6.079 -0.4193  0.8226  0.7138
  133OSM    C1514358   2.067   5.672   5.950  0.0224 -0.4213  0.2464
  133OSM   H15A14359   2.155   5.616   5.923  0.5828  0.9921 -0.9282
  133OSM   H15B14360   2.049   5.738   5.867  1.9280 -0.1991 -0.0276
  133OSM   H15C14361   1.988   5.599   5.958 -1.2734  0.9679  0.2229
  133OSM    C1414362   2.177   5.857   6.063  0.2749  0.1728  0.7432
  133OSM   H14A14363   2.126   5.948   6.033 -0.1207 -0.6468 -1.1305
  133OSM   H14B14364   2.253   5.841   5.988 -1.0755  1.3793 -0.9419
  133OSM   H14C14365   2.220   5.873   6.161 -2.7816  0.4881  2.0852
  133OSM    C1314366   1.941   5.794   6.110 -0.1869 -0.1147  0.1315
  133OSM   H13A14367   1.932   5.849   6.202 -0.5920  0.8812 -0.4916
  133OSM   H13B14368   1.881   5.706   6.128  3.0425 -2.2194  0.8492
  133OSM   H13C14369   1.902   5.845   6.023 -2.3382  0.0265  1.1412
  133OSM    C1214370   2.135   5.653   6.184  0.4756 -0.1841 -0.0569
  133OSM   H12A14371   2.148   5.709   6.276 -1.2477  0.7815 -0.3845
  133OSM   H12B14372   2.235   5.629   6.153  1.2810 -1.6678  3.3824
  133OSM    C1114373   2.055   5.518   6.209  0.6829 -0.3790  0.1468
  133OSM   H11A14374   1.948   5.546   6.213  0.7895  0.0619 -0.0258
  133OSM   H11B14375   2.080   5.476   6.309 -2.3009 -2.0427  0.2484
  133OSM      P14376   2.165   5.317   6.075 -0.3639  0.2314  0.1276
  133OSM    O1314377   2.249   5.311   6.198  0.2158 -0.2909 -0.3069
  133OSM    O1414378   2.087   5.202   6.030  0.7902 -0.0323 -0.2732
  133OSM    O1114379   2.252   5.377   5.963 -0.2130 -0.5081  0.3401
  133OSM    O1214380   2.057   5.421   6.105 -0.9907  0.0444  0.1086
  133OSM    C1S14381   2.330   5.294   5.870 -0.0708  0.0327  0.5583
  133OSM    H1S14382   2.341   5.188   5.899 -1.9306 -0.6253 -1.0245
  133OSM    H1T14383   2.430   5.339   5.855  0.4666 -1.2042  0.4004
  133OSM     NF14384   2.336   5.198   5.646  0.1750  0.2546  0.3072
  133OSM    HNF14385   2.403   5.239   5.584 -0.7932  3.6293  1.4117
  133OSM    C2S14386   2.272   5.293   5.726 -0.4756 -0.0179  0.1141
  133OSM    H2S14387   2.163   5.272   5.726 -0.6897  1.0012  1.8007
  133OSM    C3S14388   2.280   5.434   5.655  0.1641 -0.0368 -0.4262
  133OSM    H3S14389   2.389   5.455   5.663 -0.0908  0.2297  2.9228
  133OSM     O314390   2.210   5.535   5.728  0.1584  0.2278  0.1206
  133OSM    HO314391   2.193   5.501   5.816  4.7231  0.8183  1.4055
  133OSM    C4S14392   2.233   5.433   5.512  0.8183 -1.0301  0.3532
  133OSM    H4S14393   2.129   5.399   5.503 -0.2117  1.8383  0.6739
  133OSM    C5S14394   2.291   5.472   5.401 -0.4354  0.1437  1.1884
  133OSM    H5S14395   2.392   5.513   5.417 -0.4330  0.9281 -0.7101
  133OSM    C6S14396   2.238   5.462   5.267  0.3941  0.2992  0.3361
  133OSM    H6S14397   2.127   5.465   5.266  0.3283 -0.3401  2.1839
  133OSM    H6T14398   2.263   5.357   5.244 -1.0624  0.4022 -1.8803
  133OSM    C7S14399   2.296   5.539   5.152 -0.9427 -0.4389  0.3043
  133OSM    H7S14400   2.405   5.551   5.167 -0.7838 -0.0246 -1.0761
  133OSM    H7T14401   2.263   5.643   5.135 -0.6542 -0.4410 -0.2683
  133OSM    C8S14402   2.261   5.473   5.017  0.4864 -0.3842  0.7327
  133OSM    H8S14403   2.150   5.479   5.019  0.5092  0.3968 -0.3898
  133OSM    H8T14404   2.290   5.366   5.003 -0.2146 -0.2146 -2.2673
  133OSM    C9S14405   2.303   5.541   4.893 -0.1696 -0.8327 -0.7153
  133OSM    H9S14406   2.410   5.570   4.894 -0.3450 -0.1733  0.2906
  133OSM    H9T14407   2.245   5.636   4.886  1.1422  0.0580  0.2535
  133OSM   C10S14408   2.254   5.451   4.771  0.0143 -0.4580 -0.0291
  133OSM   H10S14409   2.145   5.448   4.792 -0.1633  4.4630  0.2808
  133OSM   H10T14410   2.290   5.346   4.767  2.2577  0.3261 -1.3186
  133OSM   C11S14411   2.274   5.501   4.634 -0.5441 -0.2977  0.5433
  133OSM   H11S14412   2.381   5.503   4.605 -0.7136 -0.6649 -0.1080
  133OSM   H11T14413   2.231   5.603   4.620 -0.5471 -0.3115  0.4525
  133OSM   C12S14414   2.215   5.401   4.525 -0.4906  0.2255 -0.8457
  133OSM   H12S14415   2.104   5.394   4.528 -0.4643  0.1553 -0.0213
  133OSM   H12T14416   2.257   5.301   4.550 -0.5611 -0.1299 -2.1108
  133OSM   C13S14417   2.274   5.419   4.385 -0.3057 -0.0233  0.5647
  133OSM   H13S14418   2.213   5.346   4.328  0.6575 -0.7096  0.4000
  133OSM   H13T14419   2.381   5.390   4.394  0.1624  0.9483 -1.5027
  133OSM   C14S14420   2.272   5.564   4.337 -0.0622  0.1552  0.1254
  133OSM   H14S14421   2.364   5.614   4.373 -1.1678  0.4851  2.6609
  133OSM   H14T14422   2.183   5.617   4.380  0.1215  2.0945 -1.7887
  133OSM   C15S14423   2.256   5.571   4.183  0.2023 -0.1900 -0.0077
  133OSM   H15S14424   2.336   5.517   4.128  2.1582  1.6923  0.9299
  133OSM   H15T14425   2.273   5.674   4.146 -0.5838 -0.6585 -1.7100
  133OSM   C16S14426   2.114   5.519   4.148  0.6916 -0.7476 -0.2373
  133OSM   H16S14427   2.077   5.446   4.222 -0.1416 -0.9588 -0.8669
  133OSM   H16T14428   2.114   5.468   4.050 -1.1776 -0.9029 -0.1710
  133OSM   C17S14429   2.011   5.628   4.132  0.3163  0.1656  0.3538
  133OSM   H17S14430   2.035   5.682   4.038  0.2515  3.1479  1.9795
  133OSM   H17T14431   2.021   5.710   4.207  2.8968  0.5839 -0.4068
  133OSM   C18S14432   1.874   5.559   4.123  0.0670 -0.0689 -0.1117
  133OSM   H18S14433   1.794   5.629   4.091 -1.4149  0.3241  4.1183
  133OSM   H18T14434   1.853   5.528   4.228  0.6457 -2.8174 -0.7552
  133OSM   H18U14435   1.877   5.475   4.049 -3.1308  0.8562 -1.3549
  133OSM    C1F14436   2.303   5.072   5.660 -0.3621  0.7474  0.2870
  133OSM     OF14437   2.217   5.029   5.732  0.3629 -0.0472  0.3048
  133OSM    C2F14438   2.402   4.985   5.590  0.6660  0.2200 -0.4089
  133OSM    H2F14439   2.450   4.921   5.667  0.1364  0.3121  0.0057
  133OSM    H2G14440   2.480   5.043   5.537  1.1091 -3.0535 -3.5145
  133OSM    C3F14441   2.343   4.886   5.478  0.0186 -0.0839 -0.0151
  133OSM    H3F14442   2.278   4.805   5.517 -2.5174  1.2617 -1.3606
  133OSM    H3G14443   2.424   4.826   5.432  2.0187  1.9832  0.7284
  133OSM    C4F14444   2.271   4.962   5.372  0.2289 -0.2762  0.8045
  133OSM    H4F14445   2.181   4.999   5.426 -0.5982 -0.1397 -0.6443
  133OSM    H4G14446   2.236   4.890   5.295 -0.3047 -0.2486  1.0167
  133OSM    C5F14447   2.353   5.076   5.302 -0.6302  0.6690 -0.1234
  133OSM    H5F14448   2.353   5.155   5.380 -2.2821  2.1070 -1.5474
  133OSM    H5G14449   2.291   5.122   5.222  0.1946 -0.1980 -1.2773
  133OSM    C6F14450   2.483   5.047   5.234 -0.2116  0.8788  0.0247
  133OSM    H6F14451   2.554   4.999   5.305 -0.3940  0.3996 -0.1154
  133OSM    H6G14452   2.520   5.141   5.190  0.3545  1.6418  2.0863
  133OSM    C7F14453   2.464   4.953   5.119  0.6074 -1.0901  1.0779
  133OSM    H7F14454   2.426   4.856   5.159  0.6246 -1.0298  1.2416
  133OSM    H7G14455   2.561   4.935   5.069 -0.9856 -1.2350 -2.1013
  133OSM    C8F14456   2.357   4.986   5.002 -0.8176  0.1251  0.1044
  133OSM    H8F14457   2.262   4.992   5.059 -0.4147 -2.3429  1.0980
  133OSM    H8G14458   2.346   4.899   4.934 -2.3981 -0.8141  1.5165
  133OSM    C9F14459   2.414   5.112   4.934  0.8827  0.1513 -0.1381
  133OSM    H9F14460   2.447   5.192   5.003  1.4641 -0.3255  0.1364
  133OSM   C10F14461   2.441   5.129   4.807 -0.4209 -0.0399  1.4984
  133OSM   H10F14462   2.482   5.223   4.768 -0.0953 -0.4058  0.9461
  133OSM   C11F14463   2.413   5.030   4.703 -0.2511 -0.2595 -0.0309
  133OSM   H11F14464   2.319   5.049   4.647 -0.5404 -2.0693 -0.1983
  133OSM   H11G14465   2.408   4.921   4.728  1.4500 -0.3802 -0.1911
  133OSM   C12F14466   2.529   5.032   4.607  0.0095  0.3925 -0.1261
  133OSM   H12F14467   2.517   4.947   4.536 -0.9726  0.1775  0.2876
  133OSM   H12G14468   2.627   5.027   4.659  0.5883  3.1527 -0.8988
  133OSM   C13F14469   2.543   5.154   4.518 -0.1352 -0.3931  1.0076
  133OSM   H13F14470   2.605   5.231   4.569 -1.5490  1.2659  0.2711
  133OSM   H13G14471   2.448   5.202   4.489  0.8116 -0.2176 -1.9587
  133OSM   C14F14472   2.601   5.118   4.380 -0.4338 -0.6866 -0.8224
  133OSM   H14F14473   2.537   5.041   4.332 -2.4511  0.0193  0.7091
  133OSM   H14G14474   2.702   5.075   4.397 -0.1830  0.0799 -0.3633
  133OSM   C15F14475   2.612   5.236   4.283  0.0240  0.1490 -0.3394
  133OSM   H15F14476   2.652   5.330   4.327  1.1632 -1.1904  1.5477
  133OSM   H15G14477   2.509   5.269   4.258  0.4721 -0.2131 -2.8211
  133OSM   C16F14478   2.692   5.196   4.159 -0.2853 -0.1252 -0.6100
  133OSM   H16F14479   2.644   5.112   4.104 -0.1730 -0.9128  0.4790
  133OSM   H16G14480   2.792   5.162   4.194  0.2746  1.0067 -1.0697
  133OSM   C17F14481   2.735   5.308   4.055 -0.7627  0.2420 -0.8908
  133OSM   H17F14482   2.651   5.317   3.982 -0.3869  1.5674 -1.1626
  133OSM   H17G14483   2.823   5.276   3.996 -1.5393 -0.3340 -1.7633
  133OSM   C18F14484   2.751   5.451   4.114 -0.1828 -0.0945 -0.2865
  133OSM   H18F14485   2.818   5.459   4.203  1.1828 -1.3532 -1.1756
  133OSM   H18G14486   2.650   5.494   4.132 -0.6544 -0.9758 -0.7736
  133OSM   H18H14487   2.804   5.504   4.032 -0.3185 -1.2841 -1.1513
  134OSM      N14488   2.094   2.412   6.137  0.4668 -0.4868  0.6307
  134OSM    C1514489   1.946   2.432   6.125 -1.1076 -0.0775  0.1586
  134OSM   H15A14490   1.920   2.390   6.029 -0.4043 -1.0313  0.3750
  134OSM   H15B14491   1.907   2.533   6.130  1.7828  1.1827 -1.7530
  134OSM   H15C14492   1.890   2.373   6.196  1.0551 -0.7377  1.3441
  134OSM    C1414493   2.122   2.414   6.282 -0.1522  0.2685  0.5576
  134OSM   H14A14494   2.111   2.518   6.311 -1.9612 -0.0410  1.0709
  134OSM   H14B14495   2.222   2.381   6.305  0.0231  0.4077 -0.0068
  134OSM   H14C14496   2.046   2.366   6.342 -0.6162  0.4285  0.1055
  134OSM    C1314497   2.129   2.268   6.088  0.3385  0.0510 -0.2559
  134OSM   H13A14498   2.236   2.255   6.095  0.0732 -2.5626 -0.4405
  134OSM   H13B14499   2.088   2.241   5.992  2.3801 -0.5211 -0.9933
  134OSM   H13C14500   2.078   2.197   6.150  0.4332  0.9179  0.8219
  134OSM    C1214501   2.167   2.518   6.055 -0.1979 -0.5507  0.4301
  134OSM   H12A14502   2.123   2.520   5.956  1.0057  2.8214 -0.0982
  134OSM   H12B14503   2.273   2.496   6.049 -0.0540 -0.5554  2.4985
  134OSM    C1114504   2.155   2.662   6.112  0.4533 -0.4645 -0.8694
  134OSM   H11A14505   2.222   2.734   6.062  1.8349 -0.5708  0.7919
  134OSM   H11B14506   2.192   2.661   6.217 -1.2171  0.1446 -0.2532
  134OSM      P14507   1.962   2.790   5.978  0.2169  0.0466  0.1007
  134OSM    O1314508   2.030   2.922   5.957  0.6236  0.3572  0.1652
  134OSM    O1414509   1.975   2.690   5.869 -0.1936  0.1298  0.8278
  134OSM    O1114510   1.812   2.818   6.019 -0.8319  0.3725  1.1775
  134OSM    O1214511   2.023   2.723   6.108  0.2119  0.1716  0.1944
  134OSM    C1S14512   1.710   2.719   6.011 -0.1788 -0.0993  0.0200
  134OSM    H1S14513   1.747   2.628   5.960  1.4413  0.1378  0.7233
  134OSM    H1T14514   1.639   2.758   5.935  0.2591  2.5139  0.8872
  134OSM     NF14515   1.534   2.586   6.105 -0.1281 -0.0737  0.3521
  134OSM    HNF14516   1.449   2.638   6.107  1.0050  1.7874  2.9791
  134OSM    C2S14517   1.642   2.679   6.141 -0.3649 -1.6239 -0.5540
  134OSM    H2S14518   1.712   2.618   6.201 -0.2057 -0.2840  0.6232
  134OSM    C3S14519   1.591   2.803   6.214  0.1991 -1.0777  0.1595
  134OSM    H3S14520   1.670   2.877   6.241 -1.7690  2.0909 -2.3350
  134OSM     O314521   1.530   2.766   6.339 -0.1553  0.0286  0.7490
  134OSM    HO314522   1.526   2.670   6.331 -0.0023  0.0205  0.7820
  134OSM    C4S14523   1.486   2.869   6.132 -0.6228 -0.2942  0.7750
  134OSM    H4S14524   1.395   2.807   6.127  0.5004 -1.9109 -0.0975
  134OSM    C5S14525   1.490   2.985   6.056  0.7361 -0.6224 -0.1782
  134OSM    H5S14526   1.588   3.035   6.063  0.7749 -0.0590 -3.9227
  134OSM    C6S14527   1.389   3.026   5.966  0.1004 -0.9045 -0.4241
  134OSM    H6S14528   1.374   3.136   5.975  1.1872 -0.9875  2.8696
  134OSM    H6T14529   1.289   2.979   5.978  0.5765 -1.8632 -0.1825
  134OSM    C7S14530   1.423   2.994   5.827  0.6388 -0.2780 -1.0042
  134OSM    H7S14531   1.338   3.034   5.766  0.9754 -0.1625 -1.3991
  134OSM    H7T14532   1.443   2.886   5.812 -0.1953 -0.6432  0.3866
  134OSM    C8S14533   1.544   3.074   5.778 -0.1094 -0.1044 -0.3578
  134OSM    H8S14534   1.639   3.050   5.831 -0.8332 -1.9012  0.1445
  134OSM    H8T14535   1.529   3.183   5.796  1.4581  0.4759 -2.2974
  134OSM    C9S14536   1.559   3.043   5.628 -0.3501 -0.5971  0.3161
  134OSM    H9S14537   1.483   3.094   5.565  0.0044 -1.2073 -0.6116
  134OSM    H9T14538   1.556   2.933   5.612 -0.7242 -0.5238 -0.1153
  134OSM   C10S14539   1.698   3.097   5.574  0.1157 -0.2095 -0.0078
  134OSM   H10S14540   1.781   3.064   5.640  0.4036  0.1748 -0.1679
  134OSM   H10T14541   1.708   3.208   5.573 -0.8342 -0.1218  0.2324
  134OSM   C11S14542   1.750   3.045   5.437 -0.2296  0.0331 -0.2039
  134OSM   H11S14543   1.764   2.935   5.440 -2.9094 -0.3756 -1.2436
  134OSM   H11T14544   1.843   3.103   5.420  0.3303 -0.7963  0.0460
  134OSM   C12S14545   1.657   3.055   5.313 -0.2328 -0.5486 -0.2498
  134OSM   H12S14546   1.677   3.158   5.276  2.9980 -0.2087  2.2391
  134OSM   H12T14547   1.548   3.054   5.336 -0.0953  0.3847  0.4394
  134OSM   C13S14548   1.682   2.959   5.192 -0.8499  0.8269 -0.0943
  134OSM   H13S14549   1.671   2.852   5.222  0.7628 -0.8426 -4.9139
  134OSM   H13T14550   1.790   2.966   5.168  0.0197  0.4403  3.4490
  134OSM   C14S14551   1.583   2.979   5.081  0.1392  0.0187 -0.3267
  134OSM   H14S14552   1.602   3.084   5.049  1.8925 -0.6809 -1.7575
  134OSM   H14T14553   1.480   2.968   5.119  0.0336 -0.4179 -0.7343
  134OSM   C15S14554   1.602   2.884   4.964  0.1017 -0.0918 -0.5870
  134OSM   H15S14555   1.565   2.789   5.007 -2.7641  0.7292 -1.1470
  134OSM   H15T14556   1.709   2.880   4.934  0.5045  0.0235  0.7780
  134OSM   C16S14557   1.521   2.931   4.845  0.2933 -0.3981 -0.0698
  134OSM   H16S14558   1.540   3.038   4.822 -0.9777  0.4638  2.6806
  134OSM   H16T14559   1.415   2.918   4.872  0.1863  1.4965  0.4479
  134OSM   C17S14560   1.546   2.859   4.708 -0.5473 -0.5778 -0.1991
  134OSM   H17S14561   1.645   2.900   4.678 -1.1032 -0.6115 -2.1163
  134OSM   H17T14562   1.472   2.902   4.637  0.3058 -0.7129 -1.1833
  134OSM   C18S14563   1.532   2.706   4.714 -0.0181 -0.3719 -0.3762
  134OSM   H18S14564   1.580   2.658   4.626 -0.6108 -0.5398 -0.6147
  134OSM   H18T14565   1.426   2.676   4.725 -0.0041 -0.5703 -0.7508
  134OSM   H18U14566   1.593   2.668   4.798  1.7292 -0.6002 -1.7126
  134OSM    C1F14567   1.553   2.469   6.047 -0.0916 -0.4199 -0.2315
  134OSM     OF14568   1.662   2.417   6.050  0.3966  0.6518 -0.2857
  134OSM    C2F14569   1.434   2.413   5.985  0.3676  0.2714 -0.0922
  134OSM    H2F14570   1.362   2.380   6.063  0.7126  0.9215  0.5151
  134OSM    H2G14571   1.470   2.325   5.929 -2.8860 -0.9932 -0.2509
  134OSM    C3F14572   1.359   2.520   5.890 -0.1706  0.3029  0.0179
  134OSM    H3F14573   1.347   2.623   5.931 -0.8560  0.6798 -1.0987
  134OSM    H3G14574   1.256   2.487   5.866  0.5547 -2.3137  0.3877
  134OSM    C4F14575   1.427   2.531   5.752  0.3512 -0.1352  0.0126
  134OSM    H4F14576   1.436   2.431   5.705 -1.1154 -0.1526 -0.2308
  134OSM    H4G14577   1.529   2.575   5.763  0.1116  0.4964 -0.2733
  134OSM    C5F14578   1.344   2.621   5.656 -0.5770  0.8241  0.1749
  134OSM    H5F14579   1.308   2.713   5.706  0.2871  1.5680 -0.5487
  134OSM    H5G14580   1.256   2.558   5.629 -1.0945  0.3818  2.7672
  134OSM    C6F14581   1.426   2.653   5.527  0.1314  0.3793  0.0487
  134OSM    H6F14582   1.452   2.564   5.467  0.2628 -0.0251  0.7004
  134OSM    H6G14583   1.531   2.680   5.553  0.4611 -0.0614 -0.8238
  134OSM    C7F14584   1.372   2.775   5.438  0.1824  0.1277 -0.5893
  134OSM    H7F14585   1.445   2.802   5.358  0.0551 -1.1825 -1.1677
  134OSM    H7G14586   1.372   2.861   5.507  0.6939  0.3419 -0.8508
  134OSM    C8F14587   1.232   2.753   5.381 -0.3918  0.1346 -0.0484
  134OSM    H8F14588   1.159   2.738   5.463 -1.7149  0.0815 -1.2038
  134OSM    H8G14589   1.231   2.655   5.328  0.7302  0.0526  0.0659
  134OSM    C9F14590   1.202   2.867   5.286  0.1973 -0.2213 -0.1202
  134OSM    H9F14591   1.212   2.969   5.326  2.2414  1.1259 -3.8375
  134OSM   C10F14592   1.178   2.862   5.153 -0.6247  0.0030  0.2636
  134OSM   H10F14593   1.154   2.962   5.113  2.6938  0.7023 -0.1601
  134OSM   C11F14594   1.176   2.746   5.062  0.1435  0.6702 -0.8819
  134OSM   H11F14595   1.164   2.650   5.117 -2.6155  0.1135 -2.3468
  134OSM   H11G14596   1.272   2.742   5.006 -0.4610  0.4922 -1.9183
  134OSM   C12F14597   1.058   2.752   4.965  0.3810 -0.1118  0.3331
  134OSM   H12F14598   0.969   2.758   5.031  1.8189 -0.2419  2.3493
  134OSM   H12G14599   1.051   2.656   4.910 -0.7093  0.3460 -0.3301
  134OSM   C13F14600   1.073   2.863   4.861  0.4450  0.3893  0.9086
  134OSM   H13F14601   1.177   2.868   4.821  0.0787 -0.9053 -0.2590
  134OSM   H13G14602   1.057   2.963   4.907 -1.7505 -0.2033  1.4906
  134OSM   C14F14603   0.978   2.852   4.734  0.6012 -0.0260 -0.8190
  134OSM   H14F14604   1.029   2.780   4.667  0.1666 -1.7359  0.6602
  134OSM   H14G14605   0.974   2.953   4.687  1.0183 -0.9389 -2.8881
  134OSM   C15F14606   0.836   2.815   4.776  0.2812  0.2972 -0.6253
  134OSM   H15F14607   0.804   2.887   4.854  0.5685 -2.9347  2.6054
  134OSM   H15G14608   0.851   2.715   4.822 -1.0231  0.8779  1.1307
  134OSM   C16F14609   0.744   2.799   4.651  0.0021 -0.2065 -0.0351
  134OSM   H16F14610   0.709   2.902   4.627  0.1780  0.0558  0.8235
  134OSM   H16G14611   0.655   2.744   4.689 -0.4546  0.1759 -0.5297
  134OSM   C17F14612   0.791   2.736   4.516  0.1589 -0.3499 -0.6741
  134OSM   H17F14613   0.806   2.628   4.541 -1.5575 -0.8061 -1.5134
  134OSM   H17G14614   0.888   2.779   4.483  0.3789  0.9222  1.5519
  134OSM   C18F14615   0.696   2.735   4.392  0.2139  0.5091 -0.0918
  134OSM   H18F14616   0.719   2.640   4.339  1.7151  0.3405  0.8311
  134OSM   H18G14617   0.707   2.825   4.328  0.3763  1.0196  0.6565
  134OSM   H18H14618   0.593   2.731   4.433  0.3637 -1.4276  0.1540
  135OSM      N14619   2.901   2.772   6.064 -0.3854  0.0355 -0.5174
  135OSM    C1514620   2.856   2.693   6.186 -0.1683 -0.4283  0.9758
  135OSM   H15A14621   2.889   2.727   6.283  1.9824  0.0960  0.0785
  135OSM   H15B14622   2.880   2.589   6.178  1.6836  0.0566  0.0668
  135OSM   H15C14623   2.748   2.698   6.180 -0.0484  1.4384  0.0280
  135OSM    C1414624   2.817   2.894   6.049  0.4732  0.1532 -0.5237
  135OSM   H14A14625   2.821   2.958   6.136 -2.3811  0.7795 -0.8044
  135OSM   H14B14626   2.715   2.859   6.042 -0.2136  1.7499  1.2005
  135OSM   H14C14627   2.839   2.963   5.969  0.6333 -0.1847 -0.7729
  135OSM    C1314628   3.039   2.817   6.087 -0.8480  0.1308  0.3950
  135OSM   H13A14629   3.069   2.880   6.005 -0.8642  0.4976  0.6747
  135OSM   H13B14630   3.104   2.730   6.092 -0.3985  0.4355 -0.1759
  135OSM   H13C14631   3.049   2.870   6.180 -1.8844  0.7350  0.1663
  135OSM    C1214632   2.894   2.679   5.939 -0.3176  0.3422 -0.4040
  135OSM   H12A14633   2.938   2.583   5.964  0.0096  0.4351 -0.6286
  135OSM   H12B14634   2.963   2.724   5.870 -0.2888  0.8521 -0.0409
  135OSM    C1114635   2.752   2.668   5.868  0.3736 -0.3865 -0.2545
  135OSM   H11A14636   2.763   2.625   5.766  1.7718  1.6025 -0.9726
  135OSM   H11B14637   2.699   2.764   5.853 -2.4613 -1.7327  0.8137
  135OSM      P14638   2.534   2.615   6.004  0.1268 -0.1063  0.3975
  135OSM    O1314639   2.467   2.486   6.042 -0.2013 -0.0374 -0.1549
  135OSM    O1414640   2.556   2.714   6.108 -0.7074 -0.4313 -0.0390
  135OSM    O1114641   2.448   2.686   5.892 -0.6229 -0.0560 -0.4663
  135OSM    O1214642   2.672   2.578   5.937  0.1650  0.6298  0.0794
  135OSM    C1S14643   2.411   2.624   5.768 -0.0404  0.7843  0.0699
  135OSM    H1S14644   2.373   2.522   5.794 -1.3112  1.7684  2.2534
  135OSM    H1T14645   2.495   2.608   5.698 -0.9862 -2.7732 -0.3816
  135OSM     NF14646   2.236   2.652   5.578 -0.9585  0.7629  0.0548
  135OSM    HNF14647   2.249   2.697   5.490  0.9427  0.2077  0.0316
  135OSM    C2S14648   2.296   2.704   5.707 -0.0064  0.3898  0.2955
  135OSM    H2S14649   2.215   2.700   5.783 -1.8145  0.3837 -1.5766
  135OSM    C3S14650   2.340   2.855   5.692 -0.4031  0.1000  0.0658
  135OSM    H3S14651   2.426   2.858   5.621 -1.9353  0.1222 -1.8336
  135OSM     O314652   2.359   2.929   5.814 -0.3641  0.0267  0.0226
  135OSM    HO314653   2.395   2.860   5.870  0.9723 -0.1713 -1.0478
  135OSM    C4S14654   2.228   2.924   5.621 -0.3461 -0.7549 -0.3781
  135OSM    H4S14655   2.129   2.913   5.666 -0.7917 -1.0180 -1.4049
  135OSM    C5S14656   2.234   3.005   5.504 -0.6251  0.3893 -0.6237
  135OSM    H5S14657   2.329   3.028   5.453 -1.3892  1.4020 -1.6051
  135OSM    C6S14658   2.118   3.064   5.436  0.0872 -0.3581 -0.3818
  135OSM    H6S14659   2.141   3.170   5.412  0.7431  0.0815  2.0404
  135OSM    H6T14660   2.027   3.061   5.500  0.5570 -0.3096  0.2941
  135OSM    C7S14661   2.070   3.006   5.296  0.4422 -0.9098  0.4415
  135OSM    H7S14662   1.990   3.073   5.258  2.3210  2.2983  1.8707
  135OSM    H7T14663   2.035   2.904   5.320 -1.0003 -0.4590  0.2812
  135OSM    C8S14664   2.187   2.980   5.196  0.0320 -0.7976  0.1512
  135OSM    H8S14665   2.240   2.894   5.242 -1.6014 -2.4597 -1.0050
  135OSM    H8T14666   2.260   3.063   5.207 -1.1697  0.2498  0.3092
  135OSM    C9S14667   2.145   2.957   5.053 -0.5584 -0.4294  0.0356
  135OSM    H9S14668   2.084   2.865   5.053 -2.1714  0.5760  2.3256
  135OSM    H9T14669   2.229   2.947   4.982 -0.5589  2.8616 -0.5311
  135OSM   C10S14670   2.049   3.068   4.998  0.5528 -0.4865 -0.6274
  135OSM   H10S14671   2.091   3.169   5.017 -2.7724  0.6458  0.9577
  135OSM   H10T14672   1.957   3.062   5.060  0.2064  2.4669 -0.7879
  135OSM   C11S14673   2.010   3.034   4.849  0.2650 -0.3800  0.2074
  135OSM   H11S14674   1.945   2.944   4.854  2.1748 -1.7895  0.1370
  135OSM   H11T14675   2.098   3.004   4.789 -1.6645 -1.0961 -2.3576
  135OSM   C12S14676   1.925   3.146   4.780  0.3160  0.4178 -0.2205
  135OSM   H12S14677   1.837   3.186   4.835 -1.1241 -2.5012 -0.2935
  135OSM   H12T14678   1.871   3.095   4.697 -1.7178  0.1948  1.1888
  135OSM   C13S14679   2.016   3.262   4.718 -0.1993  0.1274 -0.0061
  135OSM   H13S14680   2.099   3.211   4.663 -1.5289  0.2092 -2.1561
  135OSM   H13T14681   2.062   3.310   4.807 -0.8883 -2.6407  1.8953
  135OSM   C14S14682   1.944   3.380   4.647  0.6986  0.0657  0.3093
  135OSM   H14S14683   2.008   3.470   4.659  0.1194  0.5757 -0.3192
  135OSM   H14T14684   1.855   3.396   4.712  1.0780 -0.4431  0.9507
  135OSM   C15S14685   1.926   3.353   4.500  0.8128 -0.4255  0.1681
  135OSM   H15S14686   1.861   3.265   4.483  0.5054 -0.2637  0.4850
  135OSM   H15T14687   2.019   3.336   4.442  0.1682 -1.4408 -0.5716
  135OSM   C16S14688   1.857   3.467   4.428 -0.9042  0.3715 -0.0757
  135OSM   H16S14689   1.930   3.550   4.435  0.7424 -0.9490 -1.1491
  135OSM   H16T14690   1.763   3.503   4.475 -0.5510  1.4634 -0.1824
  135OSM   C17S14691   1.846   3.439   4.279  0.2127 -0.5743  0.8006
  135OSM   H17S14692   1.944   3.435   4.226 -0.5979  1.7480 -0.9668
  135OSM   H17T14693   1.800   3.530   4.235  1.7143 -0.4514 -0.5516
  135OSM   C18S14694   1.763   3.327   4.242  0.2878  0.7098 -0.1926
  135OSM   H18S14695   1.775   3.317   4.132 -3.0627  1.3917 -0.6505
  135OSM   H18T14696   1.655   3.349   4.251  0.1722  0.8165 -1.7721
  135OSM   H18U14697   1.772   3.235   4.304 -0.1802  0.8346  0.0601
  135OSM    C1F14698   2.184   2.529   5.567  0.6519 -0.6104  0.5800
  135OSM     OF14699   2.174   2.445   5.652 -0.2921 -0.7708 -0.2703
  135OSM    C2F14700   2.149   2.493   5.424 -0.0039  0.2029 -0.1056
  135OSM    H2F14701   2.039   2.487   5.412 -0.0262 -0.0379  0.2232
  135OSM    H2G14702   2.186   2.389   5.407  1.4095  0.1294  3.1323
  135OSM    C3F14703   2.208   2.591   5.314  0.5463  0.0903  0.6203
  135OSM    H3F14704   2.319   2.591   5.315  0.5850  2.2603 -0.9939
  135OSM    H3G14705   2.166   2.692   5.332 -0.8337 -0.4417  0.4561
  135OSM    C4F14706   2.156   2.541   5.174 -0.1976 -0.1703  0.3098
  135OSM    H4F14707   2.047   2.527   5.189 -0.4217  1.1181 -0.1246
  135OSM    H4G14708   2.177   2.609   5.090  0.4766 -1.7772 -0.8557
  135OSM    C5F14709   2.227   2.403   5.144 -0.0069  0.1933  0.2137
  135OSM    H5F14710   2.193   2.326   5.218 -0.3452  1.2477  1.1720
  135OSM    H5G14711   2.335   2.415   5.165  0.0154  1.5612 -0.6827
  135OSM    C6F14712   2.209   2.354   4.997  0.6632  0.5827 -0.2459
  135OSM    H6F14713   2.264   2.429   4.936  0.9495 -1.4230 -2.5198
  135OSM    H6G14714   2.102   2.364   4.968  0.2495 -2.5247  0.0014
  135OSM    C7F14715   2.256   2.203   4.974  0.2481 -0.0120  0.4114
  135OSM    H7F14716   2.193   2.143   5.042 -1.3400  1.6118  0.4039
  135OSM    H7G14717   2.360   2.182   5.008  0.6665  2.4815  0.7863
  135OSM    C8F14718   2.249   2.164   4.822  1.0284 -0.3634 -0.0737
  135OSM    H8F14719   2.145   2.157   4.784  0.3034 -0.3016  1.8407
  135OSM    H8G14720   2.301   2.067   4.809 -0.1633 -1.0325  0.1053
  135OSM    C9F14721   2.332   2.261   4.746 -0.3024 -0.0979  0.5353
  135OSM    H9F14722   2.416   2.311   4.797  0.6982  1.2518 -2.3299
  135OSM   C10F14723   2.316   2.300   4.620  0.4736 -0.7142 -0.2906
  135OSM   H10F14724   2.396   2.362   4.577 -0.3486  0.0788 -0.7080
  135OSM   C11F14725   2.214   2.244   4.527 -0.0042 -0.0230  0.5680
  135OSM   H11F14726   2.190   2.338   4.471  1.1213  0.1551  0.3781
  135OSM   H11G14727   2.120   2.222   4.582  0.1051 -1.3998  0.2054
  135OSM   C12F14728   2.242   2.135   4.425 -0.0359  0.5158  0.2723
  135OSM   H12F14729   2.152   2.104   4.368  1.2592  0.5276 -1.8343
  135OSM   H12G14730   2.289   2.047   4.474  2.1655  0.9931 -0.9314
  135OSM   C13F14731   2.345   2.193   4.320  0.2438  0.4179  0.4292
  135OSM   H13F14732   2.420   2.254   4.374  0.5584  1.3720 -1.0423
  135OSM   H13G14733   2.284   2.260   4.256  1.4584 -0.8613 -2.1689
  135OSM   C14F14734   2.413   2.078   4.237  0.2398  0.6933  0.0874
  135OSM   H14F14735   2.333   2.032   4.175  0.8853  1.9320 -1.7033
  135OSM   H14G14736   2.462   2.008   4.307  1.0874 -1.2546 -2.4012
  135OSM   C15F14737   2.526   2.132   4.146 -0.1483  0.4098 -0.7769
  135OSM   H15F14738   2.594   2.048   4.121  1.8268  0.6202  3.4076
  135OSM   H15G14739   2.591   2.197   4.208  0.9993 -0.0951 -1.4331
  135OSM   C16F14740   2.469   2.212   4.030  0.2201  0.0131  0.3427
  135OSM   H16F14741   2.389   2.285   4.057 -0.0566 -0.5066  0.9310
  135OSM   H16G14742   2.424   2.133   3.966 -0.2753  2.0800 -1.9710
  135OSM   C17F14743   2.581   2.282   3.950  0.8490  0.1859  0.7827
  135OSM   H17F14744   2.640   2.344   4.022  0.1908  1.1526  0.5081
  135OSM   H17G14745   2.537   2.355   3.879  1.1966  1.5003  1.8801
  135OSM   C18F14746   2.671   2.190   3.875 -0.0049  0.0038 -0.0711
  135OSM   H18F14747   2.728   2.252   3.803  0.3058  0.2071  0.3508
  135OSM   H18G14748   2.611   2.122   3.811  1.3943  2.0164 -3.6904
  135OSM   H18H14749   2.719   2.120   3.946 -0.4000 -1.6819 -1.4276
  136OSM      N14750   6.242   3.842   6.502  0.0829  0.0972  0.0097
  136OSM    C1514751   6.170   3.962   6.498  0.2836 -0.0070  0.5291
  136OSM   H15A14752   6.127   3.997   6.591 -0.2101  1.7838 -0.3482
  136OSM   H15B14753   6.090   3.955   6.425  0.6614  2.2701 -0.1200
  136OSM   H15C14754   6.228   4.037   6.448 -1.7177  1.6922  0.7118
  136OSM    C1414755   6.361   3.863   6.594  0.4650 -0.5471  0.1070
  136OSM   H14A14756   6.407   3.767   6.611  1.3578 -0.1184  0.1476
  136OSM   H14B14757   6.322   3.898   6.689  1.0613 -4.2287  1.7925
  136OSM   H14C14758   6.422   3.936   6.543 -1.0823 -0.3222 -1.4748
  136OSM    C1314759   6.167   3.727   6.558  0.1204 -0.7267  0.3371
  136OSM   H13A14760   6.220   3.636   6.534  1.0140 -0.6861  2.1008
  136OSM   H13B14761   6.072   3.720   6.507  0.0268  2.2990  0.0517
  136OSM   H13C14762   6.150   3.738   6.664 -1.7140  0.4695 -0.0579
  136OSM    C1214763   6.288   3.802   6.362  0.6940  0.4316 -0.4935
  136OSM   H12A14764   6.366   3.727   6.373 -0.7911 -0.8439  1.6121
  136OSM   H12B14765   6.337   3.893   6.331 -0.5399  0.5256 -2.2603
  136OSM    C1114766   6.185   3.754   6.259  0.1949 -0.6860  0.3210
  136OSM   H11A14767   6.128   3.661   6.277 -1.4804  0.4984  1.2179
  136OSM   H11B14768   6.244   3.739   6.166 -1.2708 -0.7942 -0.6085
  136OSM      P14769   5.964   3.818   6.145  0.4034  0.0878 -0.2968
  136OSM    O1314770   5.911   3.688   6.181 -0.0562 -0.8776  0.2459
  136OSM    O1414771   5.862   3.924   6.147  0.5162 -0.1116  0.0426
  136OSM    O1114772   6.027   3.814   6.000 -0.0720  0.1263  0.0544
  136OSM    O1214773   6.091   3.860   6.240  0.0512 -0.3325  0.2522
  136OSM    C1S14774   6.110   3.912   5.954  0.0730  0.1454 -0.2531
  136OSM    H1S14775   6.205   3.901   6.011 -0.8679  1.4564  1.6338
  136OSM    H1T14776   6.061   4.010   5.973  0.3615  0.2834 -0.2212
  136OSM     NF14777   6.225   3.991   5.756 -0.0518  0.2154  0.0696
  136OSM    HNF14778   6.178   4.076   5.735 -2.5533 -1.3552 -1.0089
  136OSM    C2S14779   6.139   3.894   5.804 -0.5461 -0.3776 -0.0932
  136OSM    H2S14780   6.186   3.794   5.788 -3.7586 -1.8254 -0.9350
  136OSM    C3S14781   6.009   3.890   5.720 -0.2063 -0.2416 -0.5711
  136OSM    H3S14782   5.957   3.986   5.741  0.0005 -0.6149  1.8318
  136OSM     O314783   5.930   3.782   5.766 -0.2158  0.0570  0.0008
  136OSM    HO314784   5.953   3.785   5.859 -1.9556  0.7902  0.4300
  136OSM    C4S14785   6.023   3.885   5.570 -0.0915 -0.5251 -0.1351
  136OSM    H4S14786   6.014   3.985   5.526 -0.7455  0.0278  1.2360
  136OSM    C5S14787   6.020   3.779   5.490 -0.5158  0.7235 -0.0796
  136OSM    H5S14788   6.007   3.680   5.537  0.2183  1.1038  0.9193
  136OSM    C6S14789   6.015   3.787   5.340  0.3788  0.2938 -0.2503
  136OSM    H6S14790   5.954   3.704   5.298 -1.1814  0.7536  1.0523
  136OSM    H6T14791   6.120   3.773   5.305  0.4187 -2.0420  0.7248
  136OSM    C7S14792   5.965   3.919   5.283  0.1253 -0.3457  0.2013
  136OSM    H7S14793   6.031   4.005   5.306 -1.1098  1.1728 -1.6952
  136OSM    H7T14794   5.865   3.947   5.323  0.0181  0.6388 -0.7136
  136OSM    C8S14795   5.954   3.919   5.128 -0.4945  0.1176  0.1212
  136OSM    H8S14796   5.943   4.024   5.094  0.3912  0.4209  0.7236
  136OSM    H8T14797   5.863   3.861   5.101 -0.6300  0.4995 -0.2270
  136OSM    C9S14798   6.073   3.846   5.062  0.5751 -0.4155  0.5863
  136OSM    H9S14799   6.064   3.737   5.080 -0.5871 -0.5623 -0.8183
  136OSM    H9T14800   6.170   3.881   5.105  0.6326  0.4288 -0.2120
  136OSM   C10S14801   6.076   3.876   4.908  1.3598 -0.9010 -0.0819
  136OSM   H10S14802   6.080   3.986   4.894  0.5514 -1.0251 -1.3777
  136OSM   H10T14803   5.975   3.843   4.876  0.0949  3.2899 -0.6378
  136OSM   C11S14804   6.197   3.825   4.831  0.0742  0.3012 -0.1537
  136OSM   H11S14805   6.205   3.717   4.853 -1.6321  0.9450  3.9339
  136OSM   H11T14806   6.289   3.881   4.860  0.4296 -0.7029  0.6490
  136OSM   C12S14807   6.176   3.845   4.677 -0.9818  0.0433  0.2307
  136OSM   H12S14808   6.262   3.801   4.621 -1.4925 -1.9247  0.9714
  136OSM   H12T14809   6.174   3.953   4.650  0.1009  0.3300  1.2447
  136OSM   C13S14810   6.044   3.787   4.619  0.8588  0.5701  0.8421
  136OSM   H13S14811   5.965   3.854   4.659 -1.8872 -1.3545 -1.2385
  136OSM   H13T14812   6.031   3.685   4.661  0.1794  1.0030  1.7018
  136OSM   C14S14813   6.031   3.789   4.466  0.8032 -0.0818 -0.2183
  136OSM   H14S14814   5.950   3.716   4.443 -2.0929  1.8690  3.3582
  136OSM   H14T14815   6.126   3.751   4.421  0.2408 -2.2444  0.3626
  136OSM   C15S14816   5.976   3.919   4.420  0.5527 -1.1342  0.1909
  136OSM   H15S14817   6.004   4.003   4.488 -1.6417 -1.9425  2.1518
  136OSM   H15T14818   5.867   3.914   4.438  0.4189 -0.9638 -0.5630
  136OSM   C16S14819   6.012   3.967   4.277  0.0970  0.1902  0.3715
  136OSM   H16S14820   6.121   3.991   4.274 -0.4381  3.0044  1.6764
  136OSM   H16T14821   5.958   4.063   4.266  2.1215  1.3080 -0.1759
  136OSM   C17S14822   5.959   3.866   4.162 -0.6752 -0.1364 -0.4024
  136OSM   H17S14823   5.848   3.861   4.164 -0.6461 -0.3255  0.6358
  136OSM   H17T14824   5.995   3.761   4.168 -0.2066  0.0920  0.9221
  136OSM   C18S14825   5.994   3.918   4.023  0.2188 -0.5307  0.1522
  136OSM   H18S14826   6.104   3.921   4.010  0.3291  2.0017  1.4464
  136OSM   H18T14827   5.972   4.026   4.011 -0.3654 -1.0028 -3.5768
  136OSM   H18U14828   5.938   3.853   3.953  0.8970 -1.5987  0.5781
  136OSM    C1F14829   6.359   3.991   5.774  0.2227  0.0002 -1.2927
  136OSM     OF14830   6.413   3.897   5.831  0.1530  0.2163  0.3253
  136OSM    C2F14831   6.434   4.112   5.734 -0.6568 -0.6181  0.5238
  136OSM    H2F14832   6.475   4.171   5.819 -1.4833 -0.5855  0.9174
  136OSM    H2G14833   6.378   4.180   5.666  0.1300  0.0419  0.5325
  136OSM    C3F14834   6.557   4.080   5.646 -0.4326 -0.9994 -0.2420
  136OSM    H3F14835   6.636   4.024   5.701 -1.5582 -1.2032  1.1989
  136OSM    H3G14836   6.607   4.178   5.629 -0.6618 -1.0741 -1.3878
  136OSM    C4F14837   6.534   4.009   5.508  0.0617 -0.0469 -0.0231
  136OSM    H4F14838   6.480   3.912   5.511 -0.7984  0.4432  0.4463
  136OSM    H4G14839   6.633   3.981   5.466 -0.3530  0.0355 -1.0749
  136OSM    C5F14840   6.456   4.096   5.409 -0.2068 -0.6258  0.0340
  136OSM    H5F14841   6.506   4.195   5.397  1.1549 -1.3183 -0.0282
  136OSM    H5G14842   6.358   4.110   5.460  0.1750  0.2958  0.5261
  136OSM    C6F14843   6.431   4.029   5.272  0.6377  0.0792  0.4067
  136OSM    H6F14844   6.359   3.946   5.285 -1.0219  1.4528  0.1702
  136OSM    H6G14845   6.526   3.991   5.228 -0.6726 -0.7422 -1.8106
  136OSM    C7F14846   6.380   4.130   5.163 -0.5777  0.5867 -0.3743
  136OSM    H7F14847   6.283   4.169   5.202 -1.6963  0.1449 -2.6448
  136OSM    H7G14848   6.383   4.067   5.072  0.7878 -1.2974  0.9364
  136OSM    C8F14849   6.473   4.250   5.145  1.0920 -0.2793 -0.6510
  136OSM    H8F14850   6.462   4.318   5.232 -0.0171  1.5625 -2.1875
  136OSM    H8G14851   6.438   4.312   5.059 -0.1785 -0.9879 -0.6678
  136OSM    C9F14852   6.621   4.216   5.123 -0.0541  1.1406 -0.0371
  136OSM    H9F14853   6.674   4.217   5.220 -1.2256 -1.2273  0.6548
  136OSM   C10F14854   6.698   4.188   5.007 -0.0957  0.2993 -0.4648
  136OSM   H10F14855   6.805   4.161   5.010  0.3161  1.9196  0.0935
  136OSM   C11F14856   6.634   4.181   4.870  0.1449 -0.5039  0.4318
  136OSM   H11F14857   6.703   4.227   4.796 -0.4509 -0.5064 -0.1227
  136OSM   H11G14858   6.550   4.253   4.861  0.4473 -0.2326 -0.2695
  136OSM   C12F14859   6.581   4.042   4.825  0.0556 -0.8543 -0.5502
  136OSM   H12F14860   6.497   4.009   4.890 -0.1790 -0.7707 -0.8094
  136OSM   H12G14861   6.663   3.969   4.841  1.3577  0.6096 -0.4155
  136OSM   C13F14862   6.529   4.029   4.683 -0.2806 -0.0626 -0.7047
  136OSM   H13F14863   6.437   4.090   4.672 -2.1430 -1.6800  4.3642
  136OSM   H13G14864   6.503   3.921   4.672  0.4792 -0.2941 -0.3373
  136OSM   C14F14865   6.633   4.073   4.576 -0.4771 -0.5967 -0.3860
  136OSM   H14F14866   6.736   4.032   4.584  0.5235  1.9655  0.3631
  136OSM   H14G14867   6.640   4.183   4.590  0.2061 -0.4530 -1.8375
  136OSM   C15F14868   6.574   4.064   4.441 -0.1700  1.1712 -0.4330
  136OSM   H15F14869   6.643   4.102   4.363  1.9820 -0.2500  0.7362
  136OSM   H15G14870   6.479   4.122   4.443 -1.0711 -0.2830  0.8285
  136OSM   C16F14871   6.523   3.921   4.402  0.5571  0.4351  0.0599
  136OSM   H16F14872   6.435   3.888   4.462  1.0172  3.3032  2.4379
  136OSM   H16G14873   6.611   3.855   4.406 -0.4983 -0.9244  1.2239
  136OSM   C17F14874   6.450   3.936   4.272  0.4026 -0.8206 -0.4658
  136OSM   H17F14875   6.355   3.994   4.282  1.0514  0.0033  1.0765
  136OSM   H17G14876   6.419   3.832   4.250 -0.4943 -1.4301  3.3571
  136OSM   C18F14877   6.517   3.997   4.150  0.4959  0.0485 -0.2231
  136OSM   H18F14878   6.451   3.971   4.064  2.3089  2.1910 -2.3523
  136OSM   H18G14879   6.616   3.950   4.129  1.3562  1.3645  0.8481
  136OSM   H18H14880   6.523   4.107   4.164  0.5176  0.1021 -0.6313
  137OSM      N14881   2.513   1.382   5.810  0.3883 -0.0751  0.1243
  137OSM    C1514882   2.632   1.372   5.719  0.0895  0.5907 -0.0285
  137OSM   H15A14883   2.626   1.318   5.626  2.2181  1.0516 -0.4514
  137OSM   H15B14884   2.713   1.329   5.777 -2.3145 -1.9190  1.6273
  137OSM   H15C14885   2.662   1.472   5.692 -0.1806  0.8571  0.6328
  137OSM    C1414886   2.397   1.451   5.736 -0.4367  0.3219  0.4253
  137OSM   H14A14887   2.430   1.548   5.701  1.0766 -0.7428 -1.2247
  137OSM   H14B14888   2.317   1.458   5.808 -1.9391  1.5287 -1.3337
  137OSM   H14C14889   2.363   1.391   5.652  1.7577 -0.9433  0.3847
  137OSM    C1314890   2.467   1.238   5.841 -0.4447  0.2296 -0.1233
  137OSM   H13A14891   2.462   1.180   5.750  1.1641  1.7800 -1.2205
  137OSM   H13B14892   2.374   1.243   5.894 -1.6648  0.2163 -2.2110
  137OSM   H13C14893   2.537   1.182   5.902  0.7210  0.8523 -0.8713
  137OSM    C1214894   2.555   1.456   5.929 -0.3453 -0.3324  0.4562
  137OSM   H12A14895   2.563   1.559   5.897  4.6971 -0.8893 -0.4978
  137OSM   H12B14896   2.644   1.416   5.976 -0.0733 -0.5479 -0.2399
  137OSM    C1114897   2.452   1.472   6.044  1.3363 -0.3188  0.1544
  137OSM   H11A14898   2.430   1.375   6.095  2.0487  0.1536  1.3678
  137OSM   H11B14899   2.357   1.511   6.001  0.5951  1.7046  3.4721
  137OSM      P14900   2.556   1.697   6.114  0.5113 -0.2377  0.1517
  137OSM    O1314901   2.584   1.758   6.243  0.1012 -0.3288  0.5065
  137OSM    O1414902   2.666   1.700   6.014 -0.0108  0.4076 -0.3696
  137OSM    O1114903   2.432   1.757   6.053  0.2436  0.0701 -0.3244
  137OSM    O1214904   2.510   1.554   6.147  0.2146  0.3142  0.0819
  137OSM    C1S14905   2.432   1.843   5.935  0.7503 -0.2358  0.9482
  137OSM    H1S14906   2.507   1.806   5.861 -0.5412 -2.2252  0.5864
  137OSM    H1T14907   2.455   1.948   5.961 -0.3918  0.1129  0.5618
  137OSM     NF14908   2.310   1.900   5.728  0.3463 -0.0317  0.2072
  137OSM    HNF14909   2.270   1.991   5.727  0.7086  0.1536  1.4325
  137OSM    C2S14910   2.297   1.846   5.862  0.1524 -0.6894  0.7799
  137OSM    H2S14911   2.257   1.745   5.836  2.3357 -1.8048  1.5903
  137OSM    C3S14912   2.193   1.924   5.948  0.4429 -0.1226  0.1271
  137OSM    H3S14913   2.218   2.032   5.939 -2.4057  0.5076 -0.5608
  137OSM     O314914   2.195   1.893   6.084 -0.3436  0.0323  0.0507
  137OSM    HO314915   2.272   1.837   6.098  0.1087  0.7831  0.6541
  137OSM    C4S14916   2.052   1.909   5.894  0.1117 -0.1869  0.2232
  137OSM    H4S14917   2.035   1.981   5.813 -3.2680 -0.5725  0.5060
  137OSM    C5S14918   1.948   1.833   5.927  0.0046 -0.5427 -0.0136
  137OSM    H5S14919   1.968   1.774   6.018  0.9028  0.4513  0.4444
  137OSM    C6S14920   1.811   1.840   5.859 -0.8920  0.2029  0.8818
  137OSM    H6S14921   1.743   1.912   5.910 -2.2602  2.0147 -3.2568
  137OSM    H6T14922   1.758   1.745   5.880 -1.1450  0.2282  0.3641
  137OSM    C7S14923   1.808   1.856   5.706 -0.3039  0.0541  0.2619
  137OSM    H7S14924   1.853   1.950   5.669  1.1335 -0.7790 -0.1677
  137OSM    H7T14925   1.703   1.847   5.673 -0.6507  0.4883  1.2485
  137OSM    C8S14926   1.868   1.743   5.617 -0.7724 -0.4515 -0.4412
  137OSM    H8S14927   1.866   1.768   5.509  1.0311 -1.2407 -0.6687
  137OSM    H8T14928   1.789   1.666   5.631 -1.6418  0.5171  0.0399
  137OSM    C9S14929   2.006   1.695   5.652  0.4832 -0.3313 -0.3510
  137OSM    H9S14930   2.003   1.651   5.754  0.3835  1.6625  0.5240
  137OSM    H9T14931   2.087   1.771   5.653  2.0187 -1.8970 -2.0460
  137OSM   C10S14932   2.063   1.587   5.556  0.6529  0.2956  1.1910
  137OSM   H10S14933   1.984   1.514   5.529 -0.9166  1.6185  2.0631
  137OSM   H10T14934   2.142   1.523   5.600  2.5031  0.8232 -1.2326
  137OSM   C11S14935   2.118   1.650   5.425  0.4728  0.9494  0.6005
  137OSM   H11S14936   2.182   1.733   5.461  2.7032  0.3273 -1.7395
  137OSM   H11T14937   2.037   1.700   5.368  1.2830  1.7015  0.0991
  137OSM   C12S14938   2.186   1.553   5.324 -0.7328  0.0098  0.3113
  137OSM   H12S14939   2.115   1.471   5.299  2.2855 -2.2862 -1.0415
  137OSM   H12T14940   2.273   1.504   5.373 -0.2553 -0.5339 -1.0635
  137OSM   C13S14941   2.242   1.622   5.199 -0.1021  0.9833 -0.2168
  137OSM   H13S14942   2.291   1.543   5.138 -1.5335  1.3864 -1.9251
  137OSM   H13T14943   2.312   1.703   5.225  0.9376  0.6123 -1.7855
  137OSM   C14S14944   2.136   1.659   5.096  0.1007 -0.3101 -0.3992
  137OSM   H14S14945   2.066   1.731   5.145  1.0144  0.2432  0.0923
  137OSM   H14T14946   2.083   1.566   5.065  1.2354  0.2740 -4.3065
  137OSM   C15S14947   2.207   1.721   4.981 -0.4905  0.9097  0.1417
  137OSM   H15S14948   2.294   1.658   4.953 -0.7637  0.5903  0.0178
  137OSM   H15T14949   2.258   1.817   5.007  3.4818  0.3435 -4.6693
  137OSM   C16S14950   2.118   1.744   4.861 -0.4543 -0.2362  0.3582
  137OSM   H16S14951   2.041   1.814   4.901 -0.0639  0.2028  0.3546
  137OSM   H16T14952   2.064   1.651   4.835  0.2685 -0.3608 -0.7072
  137OSM   C17S14953   2.191   1.802   4.737 -0.5341 -0.9816 -0.6596
  137OSM   H17S14954   2.249   1.712   4.708 -0.5164 -0.5323 -2.0519
  137OSM   H17T14955   2.269   1.876   4.765 -1.5759  0.3950 -1.3574
  137OSM   C18S14956   2.101   1.862   4.640 -0.3344  0.3525 -0.3389
  137OSM   H18S14957   2.138   1.887   4.538  0.7968  0.3376  0.0656
  137OSM   H18T14958   2.052   1.954   4.679  0.3408  0.6222 -0.1196
  137OSM   H18U14959   2.019   1.791   4.620 -0.3421  0.6634 -1.4412
  137OSM    C1F14960   2.373   1.856   5.619  0.2544  0.1104 -0.9076
  137OSM     OF14961   2.432   1.750   5.622 -0.7013  0.7703  0.2449
  137OSM    C2F14962   2.364   1.929   5.489  0.1372 -0.3018 -0.4574
  137OSM    H2F14963   2.325   1.863   5.409  1.7617 -2.1866  0.2529
  137OSM    H2G14964   2.466   1.968   5.471  0.3571 -0.0476  1.2306
  137OSM    C3F14965   2.276   2.054   5.487  0.3520  0.4158  0.7971
  137OSM    H3F14966   2.291   2.101   5.387  0.6097  1.2983  1.2484
  137OSM    H3G14967   2.315   2.122   5.565  1.7815  0.7554 -0.1915
  137OSM    C4F14968   2.124   2.023   5.490 -0.7308 -0.1729 -0.1535
  137OSM    H4F14969   2.091   2.020   5.596  2.1428 -1.9683  0.7670
  137OSM    H4G14970   2.111   1.924   5.440  0.5481 -0.5172  0.1662
  137OSM    C5F14971   2.032   2.130   5.422 -0.0187 -0.0542  0.0144
  137OSM    H5F14972   2.092   2.200   5.361 -0.4968  1.5079  1.3082
  137OSM    H5G14973   1.985   2.192   5.502  1.3899 -0.4672  1.1794
  137OSM    C6F14974   1.922   2.070   5.332 -0.1524 -0.0785 -0.3529
  137OSM    H6F14975   1.887   1.985   5.394 -0.1955  1.1215  1.3148
  137OSM    H6G14976   1.968   2.022   5.243  0.5876 -2.3004  1.1828
  137OSM    C7F14977   1.808   2.170   5.312 -0.0377 -0.5627  0.4413
  137OSM    H7F14978   1.767   2.198   5.411  1.1877  0.0222  0.7914
  137OSM    H7G14979   1.720   2.124   5.262 -0.3279  0.3541  0.1002
  137OSM    C8F14980   1.845   2.290   5.219  0.3786 -0.6212  0.4861
  137OSM    H8F14981   1.888   2.254   5.123 -2.9355 -1.9185 -0.5846
  137OSM    H8G14982   1.928   2.349   5.262  0.7231  1.4701 -2.8956
  137OSM    C9F14983   1.720   2.376   5.199  0.2907  0.2139 -0.6230
  137OSM    H9F14984   1.696   2.443   5.283  0.2905 -0.8958  0.2699
  137OSM   C10F14985   1.638   2.384   5.093  0.1468 -0.3971  0.7111
  137OSM   H10F14986   1.548   2.448   5.092  0.5081  0.1252 -1.3556
  137OSM   C11F14987   1.663   2.303   4.969 -0.6544  0.3420 -0.1740
  137OSM   H11F14988   1.569   2.244   4.961  0.2778 -1.1087 -0.7635
  137OSM   H11G14989   1.749   2.233   4.970 -0.6213  0.4069  2.4698
  137OSM   C12F14990   1.679   2.392   4.847  0.2896 -0.5135  0.0447
  137OSM   H12F14991   1.644   2.496   4.868 -4.2319 -1.6357 -1.3106
  137OSM   H12G14992   1.617   2.358   4.761 -0.1854  1.9339 -0.6365
  137OSM   C13F14993   1.822   2.390   4.788 -0.9120 -0.3510 -0.2385
  137OSM   H13F14994   1.826   2.286   4.750  0.9711  0.6426 -2.9158
  137OSM   H13G14995   1.896   2.414   4.868 -2.4856  1.3263  0.7579
  137OSM   C14F14996   1.843   2.486   4.672  0.4009 -0.0135  0.9172
  137OSM   H14F14997   1.812   2.584   4.715  0.1787  0.8757 -1.2043
  137OSM   H14G14998   1.784   2.454   4.583 -1.0569  2.4287  0.9426
  137OSM   C15F14999   1.995   2.498   4.623 -0.0086 -0.7270  0.8087
  137OSM   H15F15000   2.007   2.414   4.551 -0.0957  1.0726 -1.3750
  137OSM   H15G15001   2.064   2.495   4.710  1.2787  1.7453 -0.0689
  137OSM   C16F15002   2.026   2.629   4.549 -0.2107 -0.3106  0.1102
  137OSM   H16F15003   1.935   2.649   4.488 -1.5623 -2.4744  1.3990
  137OSM   H16G15004   2.105   2.621   4.471  0.1785 -0.3147  0.5030
  137OSM   C17F15005   2.051   2.752   4.636  0.7447  0.3884 -0.2360
  137OSM   H17F15006   2.148   2.744   4.689  0.8743  0.4626 -0.4581
  137OSM   H17G15007   1.965   2.758   4.706 -1.1845 -2.0837 -2.3274
  137OSM   C18F15008   2.062   2.873   4.539 -0.1821 -0.2454 -0.5320
  137OSM   H18F15009   2.149   2.865   4.470  1.5606  2.8800  1.1883
  137OSM   H18G15010   2.072   2.966   4.599 -0.7791 -0.8182  0.4684
  137OSM   H18H15011   1.967   2.888   4.484  0.5487  3.9323 -0.8064
  138OSM      N15012   6.142   2.235   6.374  0.2127  0.0698  0.1358
  138OSM    C1515013   6.088   2.114   6.310 -0.0663  0.2980 -0.4435
  138OSM   H15A15014   6.158   2.035   6.287 -0.2202  0.7898 -2.7457
  138OSM   H15B15015   6.050   2.140   6.212  3.3242  1.9392 -1.4269
  138OSM   H15C15016   6.004   2.078   6.367 -0.7052  0.5126 -1.2296
  138OSM    C1415017   6.118   2.232   6.520 -0.0491 -0.2999  0.6064
  138OSM   H14A15018   6.156   2.139   6.560  1.7164  0.1390  0.0134
  138OSM   H14B15019   6.011   2.230   6.538 -0.9481  1.8057 -3.8042
  138OSM   H14C15020   6.163   2.319   6.565 -1.7928  0.9336  0.0300
  138OSM    C1315021   6.290   2.237   6.364 -1.2685 -1.1746  0.2148
  138OSM   H13A15022   6.331   2.204   6.269  0.2546  1.5428 -0.1485
  138OSM   H13B15023   6.340   2.181   6.441  1.5762  0.7147 -0.1527
  138OSM   H13C15024   6.324   2.339   6.369  1.7881 -2.0441 -1.3225
  138OSM    C1215025   6.078   2.357   6.313  0.3598 -0.4205  0.3806
  138OSM   H12A15026   6.102   2.449   6.365  0.7602  0.4064 -1.2055
  138OSM   H12B15027   5.971   2.359   6.327 -0.0191  0.7132 -2.3552
  138OSM    C1115028   6.118   2.388   6.163  0.3021  0.9547 -0.1374
  138OSM   H11A15029   6.228   2.392   6.153  0.2856  0.1757 -0.6048
  138OSM   H11B15030   6.080   2.489   6.137  0.4440  0.3479 -2.8547
  138OSM      P15031   6.143   2.200   5.964 -0.3252  0.2057 -0.3061
  138OSM    O1315032   6.286   2.215   5.981 -0.7955  0.2122  0.5648
  138OSM    O1415033   6.093   2.063   5.962 -0.2360 -0.6625 -0.2619
  138OSM    O1115034   6.109   2.262   5.830 -0.4334 -0.0953  0.4650
  138OSM    O1215035   6.068   2.290   6.071  0.2184 -0.0264 -0.1583
  138OSM    C1S15036   5.996   2.341   5.791  0.9319 -0.2522 -0.4916
  138OSM    H1S15037   6.019   2.449   5.807 -0.2502  0.0304 -0.6785
  138OSM    H1T15038   5.904   2.294   5.830 -0.6773  0.6782 -3.0284
  138OSM     NF15039   5.869   2.426   5.593 -0.4848  0.3016 -1.0344
  138OSM    HNF15040   5.777   2.394   5.575  0.1989 -2.9455  0.8766
  138OSM    C2S15041   5.963   2.325   5.640 -0.1985 -0.5660  0.0460
  138OSM    H2S15042   6.062   2.343   5.594  0.5025  2.2481  2.4864
  138OSM    C3S15043   5.919   2.185   5.606  0.0754 -0.1821  0.0628
  138OSM    H3S15044   5.820   2.168   5.654 -0.0488 -1.3439 -0.5947
  138OSM     O315045   6.017   2.092   5.651  0.2341  0.2364  0.1612
  138OSM    HO315046   6.062   2.150   5.713 -0.8969 -0.0630  1.2919
  138OSM    C4S15047   5.907   2.169   5.456 -0.6867  0.6199 -0.3605
  138OSM    H4S15048   6.000   2.175   5.398  0.1530 -0.3679  0.8525
  138OSM    C5S15049   5.796   2.152   5.393  0.4443 -0.8872  0.3244
  138OSM    H5S15050   5.702   2.149   5.450  0.2918  0.0326  0.1168
  138OSM    C6S15051   5.773   2.137   5.244 -0.6317  0.3302  0.9937
  138OSM    H6S15052   5.728   2.232   5.209 -0.7275  0.1629  0.6609
  138OSM    H6T15053   5.700   2.057   5.216  1.5133 -0.6997 -1.8604
  138OSM    C7S15054   5.900   2.113   5.166 -0.3163  0.3288  0.1343
  138OSM    H7S15055   5.952   2.030   5.220  1.6653  1.9707  0.7897
  138OSM    H7T15056   5.970   2.198   5.175  1.2248 -0.9772  0.7137
  138OSM    C8S15057   5.888   2.051   5.022  0.2076  0.5445 -0.1494
  138OSM    H8S15058   5.950   2.107   4.948  0.8280 -2.5752 -2.1047
  138OSM    H8T15059   5.781   2.039   4.996 -0.9598  0.4511  4.3704
  138OSM    C9S15060   5.947   1.907   5.008 -0.1020  0.6057 -0.4957
  138OSM    H9S15061   5.918   1.843   5.095  2.0389  1.7487  1.1217
  138OSM    H9T15062   6.058   1.902   5.012 -0.2114 -1.8141  1.2303
  138OSM   C10S15063   5.899   1.846   4.877  0.1607  0.5290 -1.2203
  138OSM   H10S15064   5.940   1.894   4.786 -0.3742 -0.5180 -2.0327
  138OSM   H10T15065   5.789   1.856   4.864  0.0744  2.3518  0.7805
  138OSM   C11S15066   5.916   1.689   4.870 -0.1188  0.1647  0.0777
  138OSM   H11S15067   5.889   1.645   4.968 -0.1781 -0.7086 -0.3233
  138OSM   H11T15068   6.023   1.667   4.848 -0.2288  1.7205 -2.2492
  138OSM   C12S15069   5.836   1.625   4.753  0.0588  0.0326  0.8797
  138OSM   H12S15070   5.857   1.685   4.661  0.0294  0.7270  1.3171
  138OSM   H12T15071   5.728   1.637   4.774 -0.2452  1.7640 -1.4641
  138OSM   C13S15072   5.869   1.478   4.717 -0.1242  0.2217  0.5512
  138OSM   H13S15073   5.823   1.418   4.798 -0.3153  0.2921  0.4968
  138OSM   H13T15074   5.979   1.471   4.727 -0.0207  0.4845 -0.3754
  138OSM   C14S15075   5.833   1.435   4.571  0.0796 -0.2817  0.0423
  138OSM   H14S15076   5.853   1.326   4.566 -1.9992 -0.6989  0.4709
  138OSM   H14T15077   5.912   1.479   4.506 -0.9967 -1.0039 -1.7787
  138OSM   C15S15078   5.689   1.455   4.517  0.1539 -0.3528 -0.3677
  138OSM   H15S15079   5.660   1.563   4.518 -2.1796 -0.9143 -2.1180
  138OSM   H15T15080   5.616   1.406   4.584  2.3109 -1.4751  1.2045
  138OSM   C16S15081   5.664   1.404   4.377 -0.1378  0.3172 -0.4652
  138OSM   H16S15082   5.568   1.349   4.373  1.1319 -2.0121  0.4219
  138OSM   H16T15083   5.749   1.340   4.345  0.7531  0.5770  1.3250
  138OSM   C17S15084   5.652   1.521   4.279  0.1074 -0.1024  0.3322
  138OSM   H17S15085   5.592   1.604   4.322 -1.0911 -0.2791 -0.9661
  138OSM   H17T15086   5.599   1.485   4.189  0.6423  2.4592 -1.0364
  138OSM   C18S15087   5.779   1.580   4.223 -0.1855  0.3723 -0.6403
  138OSM   H18S15088   5.769   1.646   4.135  0.0587  0.4587 -0.6030
  138OSM   H18T15089   5.840   1.496   4.182 -0.7404 -0.5229  0.3277
  138OSM   H18U15090   5.841   1.618   4.307 -0.6459 -1.9519  0.7974
  138OSM    C1F15091   5.897   2.550   5.569 -0.6235  0.0945 -0.0118
  138OSM     OF15092   5.979   2.614   5.627 -0.0242  0.0793  0.0784
  138OSM    C2F15093   5.808   2.625   5.468 -0.6838  0.3998 -0.2355
  138OSM    H2F15094   5.833   2.733   5.477 -0.6904  0.3595  0.2828
  138OSM    H2G15095   5.703   2.625   5.504 -0.5124 -0.1448  0.2621
  138OSM    C3F15096   5.835   2.582   5.323  1.1346 -0.0355  0.1215
  138OSM    H3F15097   5.800   2.478   5.307 -2.3922  1.2180 -0.8636
  138OSM    H3G15098   5.943   2.602   5.308  0.9562 -1.3911 -3.6596
  138OSM    C4F15099   5.778   2.681   5.221  0.1303  0.0731 -0.2636
  138OSM    H4F15100   5.820   2.782   5.240 -2.8792  1.0629  1.4799
  138OSM    H4G15101   5.671   2.674   5.248 -0.1287  2.3510 -0.6480
  138OSM    C5F15102   5.813   2.629   5.077 -0.0582 -0.2611 -0.6421
  138OSM    H5F15103   5.921   2.654   5.062 -0.5434 -0.0818 -4.5289
  138OSM    H5G15104   5.750   2.685   5.004 -0.3285  1.8462  1.1484
  138OSM    C6F15105   5.803   2.475   5.073 -0.3978 -0.0300 -0.1811
  138OSM    H6F15106   5.722   2.427   5.130 -1.3544 -0.7069 -2.0813
  138OSM    H6G15107   5.901   2.433   5.104  0.2790  0.3174 -1.7759
  138OSM    C7F15108   5.785   2.419   4.926  0.1819 -0.8024  0.2030
  138OSM    H7F15109   5.680   2.443   4.901  0.6781  1.0810 -0.1109
  138OSM    H7G15110   5.798   2.309   4.918  2.3469 -0.5911  0.5029
  138OSM    C8F15111   5.877   2.489   4.823  0.5963  0.1884  0.5544
  138OSM    H8F15112   5.875   2.599   4.838  0.8186  0.3923 -0.8197
  138OSM    H8G15113   5.837   2.474   4.720  0.8850 -2.8232  0.8248
  138OSM    C9F15114   6.018   2.430   4.846  0.4202  0.2800  0.7987
  138OSM    H9F15115   6.061   2.469   4.939  0.6028 -0.0897  0.8706
  138OSM   C10F15116   6.086   2.343   4.772 -0.3223  0.1731  0.4597
  138OSM   H10F15117   6.167   2.288   4.823  0.0758 -0.2632 -0.6305
  138OSM   C11F15118   6.051   2.284   4.646 -0.1394  0.4697 -0.6259
  138OSM   H11F15119   5.950   2.237   4.643 -0.5865  1.4198 -0.5203
  138OSM   H11G15120   6.128   2.206   4.629 -1.0472 -0.0127 -2.6739
  138OSM   C12F15121   6.056   2.391   4.532 -0.4080 -0.5312 -0.2907
  138OSM   H12F15122   6.004   2.479   4.575 -0.8315 -1.5893  1.3784
  138OSM   H12G15123   5.997   2.353   4.445  0.4992  0.2337 -1.2605
  138OSM   C13F15124   6.199   2.413   4.479  0.3470 -0.7278  0.2800
  138OSM   H13F15125   6.222   2.322   4.420 -1.6435 -0.2748 -1.2774
  138OSM   H13G15126   6.267   2.434   4.565  1.2248  1.3687 -0.8813
  138OSM   C14F15127   6.210   2.530   4.382 -0.1267  0.2714 -0.3364
  138OSM   H14F15128   6.260   2.608   4.444  0.6831  0.3162 -1.0307
  138OSM   H14G15129   6.111   2.574   4.361  0.7153  2.6398  0.4925
  138OSM   C15F15130   6.284   2.490   4.258 -0.7589 -0.5067  0.3443
  138OSM   H15F15131   6.236   2.409   4.199  1.1852 -1.7797  0.4439
  138OSM   H15G15132   6.377   2.438   4.291 -1.1025 -0.5541  1.2473
  138OSM   C16F15133   6.334   2.612   4.180  0.6829 -0.4213 -0.5013
  138OSM   H16F15134   6.369   2.687   4.254  0.8096 -1.3538  0.3869
  138OSM   H16G15135   6.246   2.659   4.130  0.6514 -1.8686 -1.8466
  138OSM   C17F15136   6.446   2.572   4.081 -0.0177 -0.7809 -0.3751
  138OSM   H17F15137   6.407   2.518   3.991 -0.7378  3.6488 -2.8811
  138OSM   H17G15138   6.514   2.509   4.142  0.8176 -1.8654 -2.3846
  138OSM   C18F15139   6.529   2.700   4.055  0.0908  0.7385 -0.0194
  138OSM   H18F15140   6.559   2.752   4.148  0.4150  1.6087 -0.6069
  138OSM   H18G15141   6.458   2.776   4.016 -0.7485  2.4292  4.4787
  138OSM   H18H15142   6.616   2.681   3.989  0.5425  0.9484  0.5103
  139OSM      N15143   5.896   5.441   6.275 -0.0680  0.0418  0.0307
  139OSM    C1515144   5.773   5.455   6.362 -0.8231 -0.3960  0.3603
  139OSM   H15A15145   5.754   5.556   6.395 -2.3117  0.0852 -1.8614
  139OSM   H15B15146   5.797   5.398   6.450  0.2962  2.0753  1.7216
  139OSM   H15C15147   5.686   5.401   6.328  0.2227 -0.2919 -2.6373
  139OSM    C1415148   6.031   5.479   6.347  0.7978  0.4306 -0.3114
  139OSM   H14A15149   6.044   5.421   6.437 -0.1518  2.8270  1.3892
  139OSM   H14B15150   6.033   5.583   6.374 -2.4487 -0.2212  2.8981
  139OSM   H14C15151   6.112   5.443   6.286 -0.1260 -1.7195 -0.3315
  139OSM    C1315152   5.905   5.302   6.246  1.0864  0.2072  0.1572
  139OSM   H13A15153   5.809   5.254   6.232  0.3110  0.8111  2.9375
  139OSM   H13B15154   5.946   5.246   6.329  3.7132  2.2171  0.2672
  139OSM   H13C15155   5.972   5.298   6.162  0.5089 -1.5895 -0.2401
  139OSM    C1215156   5.870   5.533   6.158  0.2490  0.4738 -0.0200
  139OSM   H12A15157   5.878   5.636   6.191  1.0938 -0.4896  2.8570
  139OSM   H12B15158   5.771   5.522   6.116  0.5967  0.2970 -0.7982
  139OSM    C1115159   5.969   5.515   6.038 -0.0004 -0.1643 -0.1329
  139OSM   H11A15160   5.925   5.574   5.954  0.8552  0.1208 -0.3871
  139OSM   H11B15161   5.958   5.409   6.007 -3.1073 -0.3364  1.4184
  139OSM      P15162   6.229   5.467   6.049 -0.2994 -0.3292 -0.1188
  139OSM    O1315163   6.341   5.560   6.022 -0.3712 -0.2471  0.7854
  139OSM    O1415164   6.242   5.377   6.167  0.2774  0.5103 -0.2249
  139OSM    O1115165   6.202   5.376   5.919  0.2317 -0.3102 -0.7134
  139OSM    O1215166   6.104   5.557   6.061  0.2571  0.4075 -0.4283
  139OSM    C1S15167   6.186   5.443   5.792 -0.2598  0.7230 -0.1176
  139OSM    H1S15168   6.216   5.550   5.800  0.1121  0.6535 -0.5858
  139OSM    H1T15169   6.080   5.446   5.759  0.2281  3.6876 -1.6437
  139OSM     NF15170   6.245   5.441   5.560  0.3146 -0.4562  0.0272
  139OSM    HNF15171   6.167   5.408   5.508  0.1093  1.1295 -0.6778
  139OSM    C2S15172   6.264   5.363   5.677  0.4951  0.4940 -0.0326
  139OSM    H2S15173   6.370   5.356   5.708  0.1938  0.9707  1.1089
  139OSM    C3S15174   6.204   5.220   5.671  0.0135 -0.2341 -0.1679
  139OSM    H3S15175   6.094   5.215   5.680  0.2571 -1.4880  2.6225
  139OSM     O315176   6.241   5.141   5.787  0.1643  0.0105 -0.3381
  139OSM    HO315177   6.271   5.205   5.852  0.0474  0.4597 -0.7210
  139OSM    C4S15178   6.237   5.154   5.543 -0.0975 -0.3229 -0.5682
  139OSM    H4S15179   6.337   5.166   5.499  0.3512 -2.7570 -0.3118
  139OSM    C5S15180   6.155   5.073   5.478 -0.5100  0.0845  0.4201
  139OSM    H5S15181   6.063   5.049   5.533  1.6492 -0.8948  3.7515
  139OSM    C6S15182   6.187   5.000   5.351  0.3311  0.0934 -0.9418
  139OSM    H6S15183   6.103   4.928   5.338  1.7273 -1.9344  0.7998
  139OSM    H6T15184   6.275   4.932   5.360  0.2592 -0.0127 -1.0473
  139OSM    C7S15185   6.207   5.086   5.226  0.7769  0.6072 -0.3469
  139OSM    H7S15186   6.270   5.046   5.144 -0.8834 -0.8030 -0.9569
  139OSM    H7T15187   6.267   5.168   5.270 -0.2514  1.5729 -0.7161
  139OSM    C8S15188   6.079   5.137   5.175  0.3799  0.4385  0.1033
  139OSM    H8S15189   6.029   5.191   5.258  2.5179  1.8623  0.5116
  139OSM    H8T15190   6.030   5.046   5.135  2.2601 -0.8596  0.6651
  139OSM    C9S15191   6.082   5.226   5.044 -0.0464 -0.1246 -0.0704
  139OSM    H9S15192   6.127   5.175   4.956  0.3532  1.9222 -1.0957
  139OSM    H9T15193   6.145   5.317   5.060 -0.4824  0.6305 -2.5267
  139OSM   C10S15194   5.943   5.281   5.003  0.4470 -0.7386  0.7622
  139OSM   H10S15195   5.899   5.316   5.099  1.5653 -0.4320  1.1741
  139OSM   H10T15196   5.870   5.208   4.962  0.1201  0.4042 -0.7116
  139OSM   C11S15197   5.955   5.402   4.914  0.4335  0.6631 -0.5127
  139OSM   H11S15198   5.853   5.415   4.873  0.3856  2.0735 -0.0062
  139OSM   H11T15199   6.031   5.384   4.835  1.5788 -3.3640  1.3924
  139OSM   C12S15200   5.981   5.526   4.997  0.4009 -0.8452 -0.0652
  139OSM   H12S15201   5.991   5.506   5.106 -0.2255 -0.0056  0.1455
  139OSM   H12T15202   5.909   5.607   4.976  0.5938 -0.2757  1.3848
  139OSM   C13S15203   6.121   5.583   4.961 -0.5314  0.3928  0.4069
  139OSM   H13S15204   6.198   5.504   4.945 -0.9084  0.6425 -3.1347
  139OSM   H13T15205   6.165   5.644   5.042  2.4614 -3.0828  1.5611
  139OSM   C14S15206   6.126   5.670   4.832 -0.2924 -0.1992  0.1163
  139OSM   H14S15207   6.043   5.744   4.828 -0.1752 -0.1657 -2.5643
  139OSM   H14T15208   6.105   5.602   4.747  0.6431 -0.7479  0.3140
  139OSM   C15S15209   6.254   5.747   4.799 -0.0971  0.6958  0.7186
  139OSM   H15S15210   6.331   5.668   4.807 -0.9969 -0.3705 -0.7979
  139OSM   H15T15211   6.277   5.829   4.871  1.4708  0.1437  0.8617
  139OSM   C16S15212   6.255   5.813   4.660  0.0219 -0.5248 -0.2263
  139OSM   H16S15213   6.362   5.841   4.647 -0.1196  0.0311 -0.2216
  139OSM   H16T15214   6.203   5.911   4.654  1.6472  0.2638 -1.7444
  139OSM   C17S15215   6.215   5.716   4.545  0.5044  0.2422  0.3678
  139OSM   H17S15216   6.207   5.773   4.450  1.8650  0.3065  0.2860
  139OSM   H17T15217   6.119   5.665   4.567  1.3459 -1.4525  0.1980
  139OSM   C18S15218   6.311   5.597   4.533  0.3835 -0.4643  0.3322
  139OSM   H18S15219   6.412   5.637   4.510 -1.0427  1.1825 -3.2995
  139OSM   H18T15220   6.289   5.526   4.451 -1.8629  0.7792 -0.1708
  139OSM   H18U15221   6.304   5.541   4.629  3.3065  0.9050  1.4281
  139OSM    C1F15222   6.319   5.543   5.513 -0.0173 -0.3481  0.4567
  139OSM     OF15223   6.414   5.586   5.581 -0.2255 -0.4446  0.7169
  139OSM    C2F15224   6.271   5.612   5.390 -0.4543 -0.4760 -0.1683
  139OSM    H2F15225   6.204   5.699   5.412 -2.6602 -1.1642 -3.7722
  139OSM    H2G15226   6.195   5.546   5.343 -1.0617  0.4595 -0.5408
  139OSM    C3F15227   6.374   5.659   5.292  0.1568  0.7216 -0.2632
  139OSM    H3F15228   6.449   5.725   5.341  0.7633  0.5833 -0.9975
  139OSM    H3G15229   6.328   5.728   5.219 -0.2311  2.0143  1.1658
  139OSM    C4F15230   6.448   5.541   5.218 -0.0968 -0.2646 -0.5308
  139OSM    H4F15231   6.366   5.470   5.195 -1.7369  0.0809  3.8015
  139OSM    H4G15232   6.505   5.491   5.300  0.6933 -0.4959 -1.2151
  139OSM    C5F15233   6.529   5.588   5.103 -0.2370 -0.2302 -0.0760
  139OSM    H5F15234   6.594   5.671   5.137 -1.0756  0.7841 -0.8890
  139OSM    H5G15235   6.453   5.632   5.035 -0.0029  2.7725  1.5394
  139OSM    C6F15236   6.604   5.467   5.039  0.2906 -0.7742  0.1734
  139OSM    H6F15237   6.675   5.421   5.110  0.2136 -0.5881  0.3740
  139OSM    H6G15238   6.663   5.498   4.950 -0.0467 -1.5759 -0.3277
  139OSM    C7F15239   6.503   5.364   4.995 -0.9310  0.0909 -0.3326
  139OSM    H7F15240   6.425   5.414   4.933 -0.8917 -2.1124 -2.2308
  139OSM    H7G15241   6.453   5.321   5.084 -3.2288  0.1271 -1.5635
  139OSM    C8F15242   6.562   5.259   4.909 -0.6474  0.0543 -0.6594
  139OSM    H8F15243   6.620   5.194   4.978  0.1494 -0.5805 -1.9098
  139OSM    H8G15244   6.636   5.290   4.832 -0.3401  0.7758 -0.0757
  139OSM    C9F15245   6.453   5.165   4.861  0.2441 -0.8147  0.1308
  139OSM    H9F15246   6.411   5.095   4.935  0.2414  0.2311  1.1426
  139OSM   C10F15247   6.410   5.160   4.732 -0.6686  0.1176  0.2205
  139OSM   H10F15248   6.342   5.080   4.703 -2.4915  1.8771 -0.4867
  139OSM   C11F15249   6.453   5.231   4.606  0.1251  1.1343  0.6433
  139OSM   H11F15250   6.548   5.286   4.621  1.2064  0.1412 -2.1722
  139OSM   H11G15251   6.374   5.307   4.587  0.3687  0.8349 -1.7711
  139OSM   C12F15252   6.454   5.147   4.478 -0.2476  0.3734 -0.7714
  139OSM   H12F15253   6.484   5.215   4.395 -1.7033  0.4210 -1.2648
  139OSM   H12G15254   6.357   5.098   4.458  0.4972 -1.3104 -0.3350
  139OSM   C13F15255   6.542   5.021   4.478 -0.0974  0.0494  0.3889
  139OSM   H13F15256   6.498   4.941   4.541  1.8245  1.7127  3.9402
  139OSM   H13G15257   6.645   5.045   4.512 -0.3260  3.8611 -1.2975
  139OSM   C14F15258   6.547   4.974   4.330  0.4638  0.0622  0.1219
  139OSM   H14F15259   6.587   5.061   4.274  1.2162  1.2952  2.5256
  139OSM   H14G15260   6.444   4.951   4.294  0.9061 -0.6482 -0.7335
  139OSM   C15F15261   6.633   4.850   4.304  0.3276  0.3719  0.3216
  139OSM   H15F15262   6.575   4.765   4.346 -1.4255 -0.1156 -2.8965
  139OSM   H15G15263   6.727   4.859   4.362  1.4244 -1.3103 -1.1088
  139OSM   C16F15264   6.650   4.795   4.161 -0.1134  0.2742 -0.3524
  139OSM   H16F15265   6.736   4.725   4.172 -0.6283  0.0263  2.3541
  139OSM   H16G15266   6.677   4.883   4.099  0.5702 -1.1632 -2.1662
  139OSM   C17F15267   6.526   4.731   4.095 -0.0159  0.2873  0.1796
  139OSM   H17F15268   6.455   4.817   4.086  0.0510  0.2774 -0.4091
  139OSM   H17G15269   6.485   4.661   4.171  0.4032 -0.6810 -0.4794
  139OSM   C18F15270   6.553   4.656   3.969 -0.0730  0.4834  0.0134
  139OSM   H18F15271   6.466   4.586   3.966 -0.4331  0.9496 -0.4283
  139OSM   H18G15272   6.646   4.596   3.976 -0.5648 -0.4840 -1.5187
  139OSM   H18H15273   6.565   4.729   3.887  2.4059  1.3471  1.1022
  140OSM      N15274   1.141   1.254   6.106  1.1705  1.0828  0.6488
  140OSM    C1515275   1.075   1.166   6.004 -1.0634  0.3747  0.0950
  140OSM   H15A15276   1.039   1.075   6.051 -0.6311  0.4116  0.4942
  140OSM   H15B15277   1.143   1.133   5.927 -1.1540  0.1114  0.1254
  140OSM   H15C15278   0.990   1.214   5.959 -0.4156  1.1171 -0.3461
  140OSM    C1415279   1.054   1.291   6.214  0.5763  0.2483  0.0664
  140OSM   H14A15280   0.967   1.335   6.168 -0.4572  0.9478  2.5869
  140OSM   H14B15281   1.105   1.347   6.291  0.7119  1.3203 -0.7965
  140OSM   H14C15282   1.003   1.212   6.266 -2.0772  0.5590 -1.9742
  140OSM    C1315283   1.261   1.195   6.170  0.5483  0.2890 -0.6893
  140OSM   H13A15284   1.349   1.181   6.108  1.7475  0.3826  0.9494
  140OSM   H13B15285   1.243   1.101   6.219  1.6681  1.2138  1.5639
  140OSM   H13C15286   1.313   1.262   6.236 -0.0420 -1.2386  1.3764
  140OSM    C1215287   1.182   1.377   6.032 -0.0811 -0.0392  0.3564
  140OSM   H12A15288   1.098   1.414   5.976  0.2753 -2.4839 -1.8946
  140OSM   H12B15289   1.238   1.348   5.944  1.1801  1.9197  0.4884
  140OSM    C1115290   1.261   1.495   6.099 -0.5653  0.1357  0.6686
  140OSM   H11A15291   1.189   1.550   6.163  0.0351  1.6468  0.0725
  140OSM   H11B15292   1.285   1.569   6.020  1.0027  0.5432  1.5053
  140OSM      P15293   1.511   1.528   6.174  0.3167  0.0314  0.2596
  140OSM    O1315294   1.485   1.677   6.169  0.9282  0.0714 -0.1509
  140OSM    O1415295   1.608   1.479   6.277 -0.1072 -0.0183  0.1134
  140OSM    O1115296   1.564   1.477   6.038 -0.4695  0.0198  0.2869
  140OSM    O1215297   1.374   1.455   6.184  0.0952 -0.4258  0.6286
  140OSM    C1S15298   1.567   1.337   6.018  0.0409  0.1486  0.0201
  140OSM    H1S15299   1.481   1.275   6.052  2.1982 -1.9763  1.8106
  140OSM    H1T15300   1.653   1.295   6.074  0.5927  1.7099  0.3423
  140OSM     NF15301   1.533   1.170   5.835  0.1177 -0.0133  0.1831
  140OSM    HNF15302   1.590   1.090   5.849  0.8865  0.2598 -1.3310
  140OSM    C2S15303   1.585   1.301   5.864 -0.2362 -0.2071  0.3847
  140OSM    H2S15304   1.523   1.372   5.805  1.1219  2.0190  1.5625
  140OSM    C3S15305   1.734   1.319   5.814 -0.4921  0.4019  0.7912
  140OSM    H3S15306   1.797   1.250   5.874 -0.8982 -0.4502  0.2545
  140OSM     O315307   1.789   1.448   5.843  0.1185 -0.1855  0.0145
  140OSM    HO315308   1.718   1.496   5.887  0.4604  1.0635 -0.7459
  140OSM    C4S15309   1.761   1.288   5.669 -0.0278  0.8463  0.6576
  140OSM    H4S15310   1.816   1.194   5.652 -1.1832  0.6047 -1.9131
  140OSM    C5S15311   1.747   1.366   5.565  0.0681  0.3101 -0.0811
  140OSM    H5S15312   1.708   1.469   5.567 -0.8842 -0.0375 -0.4756
  140OSM    C6S15313   1.777   1.321   5.420 -0.1437 -0.4161  0.0509
  140OSM    H6S15314   1.697   1.249   5.392 -0.8205 -0.3021  1.6260
  140OSM    H6T15315   1.875   1.270   5.419 -0.8268 -1.7598  0.0761
  140OSM    C7S15316   1.784   1.444   5.316  0.1223  0.6519  0.3647
  140OSM    H7S15317   1.864   1.512   5.354  0.1574 -0.3207  2.0844
  140OSM    H7T15318   1.684   1.492   5.319 -0.9427 -1.5260  0.5235
  140OSM    C8S15319   1.808   1.402   5.168  0.2014  0.0265  0.3326
  140OSM    H8S15320   1.728   1.333   5.133 -1.4926  2.1188 -0.0955
  140OSM    H8T15321   1.905   1.349   5.170  0.2389  0.0172 -1.3516
  140OSM    C9S15322   1.805   1.523   5.075  0.6268  0.1619 -0.6753
  140OSM    H9S15323   1.866   1.603   5.123 -2.8609  1.5173  1.7428
  140OSM    H9T15324   1.699   1.557   5.078  0.2826 -0.9621  0.3154
  140OSM   C10S15325   1.842   1.493   4.931 -0.5183  0.7108  0.0478
  140OSM   H10S15326   1.945   1.453   4.936 -1.8496 -2.8166  0.3028
  140OSM   H10T15327   1.853   1.596   4.889 -2.4257  1.0819  0.3985
  140OSM   C11S15328   1.747   1.406   4.853  0.3658  0.8503  0.5276
  140OSM   H11S15329   1.646   1.450   4.865  0.5069  1.3295 -0.0249
  140OSM   H11T15330   1.743   1.299   4.885  1.7176  0.9384  1.0249
  140OSM   C12S15331   1.780   1.390   4.706 -0.5257  0.5771  0.1384
  140OSM   H12S15332   1.704   1.320   4.665  0.1904 -0.7299  1.0074
  140OSM   H12T15333   1.878   1.344   4.684 -1.6323 -0.9134 -1.8940
  140OSM   C13S15334   1.775   1.526   4.626 -0.7555 -0.2828 -0.4058
  140OSM   H13S15335   1.855   1.595   4.661 -0.9317  0.1236 -0.8097
  140OSM   H13T15336   1.680   1.584   4.635 -0.3478  0.4463 -0.7555
  140OSM   C14S15337   1.810   1.513   4.481  0.8659  0.3343 -0.2109
  140OSM   H14S15338   1.919   1.494   4.469  0.7109  0.5767 -2.1288
  140OSM   H14T15339   1.798   1.609   4.425 -0.2813 -0.0579 -0.6465
  140OSM   C15S15340   1.726   1.409   4.411  0.0124  0.6428 -0.7072
  140OSM   H15S15341   1.618   1.433   4.422 -0.1772 -0.7292  0.6150
  140OSM   H15T15342   1.735   1.305   4.451 -0.5195  1.2095  0.9259
  140OSM   C16S15343   1.756   1.405   4.259  0.3241 -0.1086 -0.1385
  140OSM   H16S15344   1.854   1.355   4.246  0.4475 -0.4985  2.1462
  140OSM   H16T15345   1.765   1.510   4.224  0.5175  0.1285  0.6115
  140OSM   C17S15346   1.657   1.326   4.180  1.3570 -0.0457  1.0228
  140OSM   H17S15347   1.618   1.243   4.244  1.3137 -0.7119  0.1452
  140OSM   H17T15348   1.704   1.276   4.093 -0.2864  0.6599 -0.2971
  140OSM   C18S15349   1.543   1.416   4.126  0.1370  0.0724  0.4494
  140OSM   H18S15350   1.466   1.368   4.063  1.4100  0.9051 -1.7755
  140OSM   H18T15351   1.590   1.496   4.066 -2.1657 -1.1048 -3.0656
  140OSM   H18U15352   1.496   1.475   4.208 -0.7076  1.5834 -1.1091
  140OSM    C1F15353   1.410   1.147   5.808 -0.5582  0.5930 -0.0725
  140OSM     OF15354   1.325   1.234   5.830 -0.5159  0.4335  0.1466
  140OSM    C2F15355   1.363   1.016   5.755  0.5735 -1.2916  0.3324
  140OSM    H2F15356   1.252   1.012   5.765  0.4108 -2.1068 -1.6090
  140OSM    H2G15357   1.410   0.932   5.811  0.0365 -2.3011 -0.7279
  140OSM    C3F15358   1.405   1.010   5.613  0.5295 -1.2960  0.0614
  140OSM    H3F15359   1.391   0.903   5.587  1.0529 -0.7896 -2.4142
  140OSM    H3G15360   1.513   1.036   5.614  0.0928  0.5719  0.9504
  140OSM    C4F15361   1.333   1.105   5.515 -0.5356  1.0639 -0.7024
  140OSM    H4F15362   1.320   1.210   5.549 -1.3042  0.5636  0.5807
  140OSM    H4G15363   1.226   1.077   5.501 -1.2167  2.0813  2.1962
  140OSM    C5F15364   1.405   1.098   5.384 -0.2553  0.5702  0.0901
  140OSM    H5F15365   1.415   0.993   5.350 -1.1490 -0.2987  2.4386
  140OSM    H5G15366   1.512   1.126   5.380  0.1177 -0.7425  0.7394
  140OSM    C6F15367   1.335   1.166   5.268 -1.0374  0.5144 -0.7595
  140OSM    H6F15368   1.332   1.275   5.289 -1.9352  0.0405  1.7786
  140OSM    H6G15369   1.230   1.127   5.271 -1.1305  0.8817  0.9177
  140OSM    C7F15370   1.402   1.136   5.129  0.8436  0.6691 -0.5682
  140OSM    H7F15371   1.376   1.035   5.093 -1.9628  1.4171 -0.7027
  140OSM    H7G15372   1.512   1.148   5.145  1.1915  0.2224 -2.5663
  140OSM    C8F15373   1.362   1.243   5.022  0.2158  0.3151  0.2065
  140OSM    H8F15374   1.391   1.344   5.060  3.0622 -0.2170 -0.4476
  140OSM    H8G15375   1.251   1.247   5.024  0.1733  0.4297 -1.5243
  140OSM    C9F15376   1.415   1.211   4.879 -0.4248 -0.7815 -0.4754
  140OSM    H9F15377   1.524   1.220   4.866 -0.2863  0.8921  1.6497
  140OSM   C10F15378   1.340   1.165   4.781 -0.1757 -0.5534 -0.4974
  140OSM   H10F15379   1.388   1.143   4.684  2.3611 -0.8054  0.7708
  140OSM   C11F15380   1.191   1.134   4.778 -0.2797  0.9032  0.2912
  140OSM   H11F15381   1.133   1.175   4.863 -2.4269  2.7181 -1.9490
  140OSM   H11G15382   1.192   1.023   4.775  2.2410  0.9048  0.1952
  140OSM   C12F15383   1.114   1.192   4.651 -0.0766  0.7757 -0.3810
  140OSM   H12F15384   1.004   1.200   4.665 -0.0477  1.3301 -0.4730
  140OSM   H12G15385   1.130   1.126   4.563 -1.7833 -1.2578  0.7894
  140OSM   C13F15386   1.162   1.324   4.602  0.1210  0.0382  0.7900
  140OSM   H13F15387   1.272   1.324   4.586 -0.3104 -0.1847 -2.6998
  140OSM   H13G15388   1.130   1.397   4.679 -0.6180 -0.0484  0.5737
  140OSM   C14F15389   1.106   1.361   4.466 -0.0699  0.1934 -0.5044
  140OSM   H14F15390   0.997   1.381   4.477  0.0126  0.3466  0.0438
  140OSM   H14G15391   1.126   1.284   4.388 -1.3261 -0.0725 -0.5756
  140OSM   C15F15392   1.167   1.492   4.419  0.3003  0.5339  0.2651
  140OSM   H15F15393   1.274   1.476   4.393 -0.2691  0.0263 -1.9107
  140OSM   H15G15394   1.139   1.571   4.492 -0.0835 -0.6439  1.4015
  140OSM   C16F15395   1.105   1.535   4.286  0.3690 -0.2308 -0.1132
  140OSM   H16F15396   1.000   1.567   4.297 -0.3151 -1.3399 -2.9198
  140OSM   H16G15397   1.104   1.455   4.209  1.8816  0.9177 -1.3655
  140OSM   C17F15398   1.173   1.659   4.228 -0.2882 -0.6647 -0.0963
  140OSM   H17F15399   1.134   1.669   4.125 -1.3064  2.1391  0.5477
  140OSM   H17G15400   1.279   1.623   4.231  0.7509  2.3229  0.8452
  140OSM   C18F15401   1.154   1.788   4.299  0.1219  0.7696 -0.5212
  140OSM   H18F15402   1.195   1.880   4.254  1.9159 -0.2506 -1.0144
  140OSM   H18G15403   1.190   1.780   4.404 -2.0173 -1.2330  0.1222
  140OSM   H18H15404   1.044   1.801   4.303 -0.1330 -1.5767  1.1334
  141OSM      N15405   0.193   3.487   6.160  0.4394  0.7263  0.5463
  141OSM    C1515406   0.065   3.532   6.102 -0.3480  0.1740  0.5942
  141OSM   H15A15407  -0.016   3.532   6.173 -1.6615  0.6972 -0.8822
  141OSM   H15B15408   0.029   3.463   6.028  0.5537 -1.0357  1.2727
  141OSM   H15C15409   0.068   3.635   6.068  0.3689  0.7525  2.3433
  141OSM    C1415410   0.233   3.592   6.253 -0.7612  0.1573 -0.3587
  141OSM   H14A15411   0.333   3.579   6.293 -1.0803  0.7015  0.6181
  141OSM   H14B15412   0.166   3.601   6.337 -0.1548 -2.6601  0.4822
  141OSM   H14C15413   0.231   3.688   6.204 -0.7954  0.2042 -0.2646
  141OSM    C1315414   0.164   3.358   6.246 -0.1130 -0.1427  0.3323
  141OSM   H13A15415   0.113   3.289   6.181 -4.1825  2.5577  0.4857
  141OSM   H13B15416   0.120   3.375   6.343  2.8193  1.2981  1.4666
  141OSM   H13C15417   0.264   3.320   6.261 -0.2703 -0.8330 -0.3584
  141OSM    C1215418   0.301   3.458   6.063 -0.5818  0.1738  0.2287
  141OSM   H12A15419   0.390   3.435   6.118 -0.1879  0.0095 -0.4707
  141OSM   H12B15420   0.332   3.546   6.008  0.4806 -2.2702 -3.2951
  141OSM    C1115421   0.274   3.348   5.957 -0.2954  0.5062  0.3735
  141OSM   H11A15422   0.353   3.351   5.879 -2.3030  0.7313 -1.7020
  141OSM   H11B15423   0.176   3.365   5.907  0.8113  0.5197 -1.8636
  141OSM      P15424   0.394   3.148   6.073  0.0536 -0.0236  0.2488
  141OSM    O1315425   0.435   3.225   6.189  0.6053  0.3144 -0.0784
  141OSM    O1415426   0.356   3.001   6.099 -0.2631 -0.0056  0.1792
  141OSM    O1115427   0.508   3.152   5.951 -0.0119 -0.0658 -0.1197
  141OSM    O1215428   0.264   3.219   6.017 -0.1689  0.1368 -0.0298
  141OSM    C1S15429   0.469   3.071   5.837  0.4795  0.3458  0.0138
  141OSM    H1S15430   0.363   3.088   5.812  0.5401 -0.4554 -0.8085
  141OSM    H1T15431   0.476   2.962   5.858 -4.1335 -0.2997 -1.4029
  141OSM     NF15432   0.487   3.036   5.596  0.2830 -0.1966  0.5999
  141OSM    HNF15433   0.534   2.970   5.537 -0.1536 -1.2758  1.4507
  141OSM    C2S15434   0.550   3.092   5.707 -0.6092  0.2982 -0.2110
  141OSM    H2S15435   0.549   3.200   5.684  1.3253  0.1336 -1.1507
  141OSM    C3S15436   0.696   3.047   5.719  0.4316  0.5981 -0.1211
  141OSM    H3S15437   0.706   2.939   5.741  3.3464  0.8492  0.0809
  141OSM     O315438   0.754   3.088   5.844 -1.0579  0.2981 -0.0276
  141OSM    HO315439   0.679   3.120   5.894  0.9984  3.8760  0.9262
  141OSM    C4S15440   0.778   3.084   5.600 -0.4020 -0.2813  0.0762
  141OSM    H4S15441   0.795   3.192   5.591 -0.0718 -0.2417  1.0717
  141OSM    C5S15442   0.842   3.001   5.509 -0.2287 -0.0159 -0.7178
  141OSM    H5S15443   0.822   2.893   5.498 -0.7776  0.0844 -0.7262
  141OSM    C6S15444   0.914   3.075   5.397  0.0954 -0.1177 -0.3256
  141OSM    H6S15445   1.018   3.036   5.403  0.4814  1.0712  0.9551
  141OSM    H6T15446   0.909   3.185   5.410 -2.5454 -0.3016  0.4422
  141OSM    C7S15447   0.852   3.042   5.265 -0.1053  0.3239 -0.0641
  141OSM    H7S15448   0.857   2.932   5.252 -2.1440  0.1522  0.4556
  141OSM    H7T15449   0.908   3.090   5.182  0.8730  1.4472  1.2172
  141OSM    C8S15450   0.708   3.085   5.246  0.0440  0.6875  0.1950
  141OSM    H8S15451   0.703   3.195   5.253 -1.6667  0.5256  2.1519
  141OSM    H8T15452   0.646   3.042   5.329  1.1151 -2.1602 -0.4096
  141OSM    C9S15453   0.658   3.063   5.104  0.6656 -0.5880 -0.8576
  141OSM    H9S15454   0.662   2.956   5.072  0.8802 -1.0043  0.5586
  141OSM    H9T15455   0.716   3.117   5.026  0.9600  0.8285  0.3258
  141OSM   C10S15456   0.512   3.103   5.105  0.6261 -0.3852 -1.0798
  141OSM   H10S15457   0.499   3.197   5.162  0.5792  0.2603 -2.1503
  141OSM   H10T15458   0.451   3.024   5.155 -1.0110  0.3342 -1.9210
  141OSM   C11S15459   0.449   3.112   4.973  0.5972  0.3519 -0.0304
  141OSM   H11S15460   0.493   3.187   4.903  1.0780 -1.3801 -1.6492
  141OSM   H11T15461   0.344   3.144   4.988  0.8447  0.6354  1.1675
  141OSM   C12S15462   0.453   2.966   4.908 -0.2335 -0.3593  0.1387
  141OSM   H12S15463   0.426   2.880   4.974  1.8355 -0.9611  0.2395
  141OSM   H12T15464   0.550   2.943   4.859  1.1271  0.3475  2.4583
  141OSM   C13S15465   0.346   2.954   4.803  0.3494  1.4028  0.0869
  141OSM   H13S15466   0.336   3.045   4.739  2.3991  2.1197  0.7605
  141OSM   H13T15467   0.251   2.938   4.857 -0.7203  1.5939 -1.6832
  141OSM   C14S15468   0.366   2.836   4.700  0.7546 -0.1407 -0.7507
  141OSM   H14S15469   0.373   2.739   4.754  2.6162  0.2060 -0.3259
  141OSM   H14T15470   0.457   2.858   4.640  0.8092  1.3795 -0.1372
  141OSM   C15S15471   0.237   2.827   4.610  0.1595 -0.5324  0.1163
  141OSM   H15S15472   0.210   2.931   4.580 -2.8936 -0.9094  1.3006
  141OSM   H15T15473   0.148   2.798   4.671 -0.3252 -1.3384 -0.9744
  141OSM   C16S15474   0.240   2.732   4.490 -0.6728  0.3461  0.4343
  141OSM   H16S15475   0.247   2.631   4.534  0.3328  0.2146  0.0092
  141OSM   H16T15476   0.337   2.752   4.438  0.0397 -1.0447  1.2154
  141OSM   C17S15477   0.134   2.740   4.383  0.3882 -0.1808  0.3588
  141OSM   H17S15478   0.166   2.822   4.316 -0.5230  0.2557  0.4446
  141OSM   H17T15479   0.038   2.768   4.431  1.6291  0.3454  2.5984
  141OSM   C18S15480   0.110   2.614   4.289 -0.1581  0.3003 -0.5667
  141OSM   H18S15481   0.195   2.592   4.220  0.9702  3.3641 -0.2245
  141OSM   H18T15482   0.024   2.631   4.220  1.3767  0.5542 -2.4659
  141OSM   H18U15483   0.088   2.517   4.338  4.2297  0.3638  1.7832
  141OSM    C1F15484   0.361   3.068   5.553 -0.1022  0.3646  0.0180
  141OSM     OF15485   0.298   3.159   5.605 -0.1022 -0.2296  0.2843
  141OSM    C2F15486   0.304   2.991   5.447  0.2000  0.1136  0.1249
  141OSM    H2F15487   0.256   2.898   5.486  3.9867 -1.8662  0.2891
  141OSM    H2G15488   0.376   2.956   5.370  1.3848  0.0037  1.2855
  141OSM    C3F15489   0.201   3.069   5.359 -0.6734 -0.3375 -0.1824
  141OSM    H3F15490   0.254   3.161   5.325 -1.5358 -0.4594 -1.8887
  141OSM    H3G15491   0.118   3.101   5.426  1.4824  0.2832  2.2788
  141OSM    C4F15492   0.146   3.003   5.238  0.3262  0.0581 -0.4748
  141OSM    H4F15493   0.216   2.925   5.202  0.6223 -0.1573  0.5502
  141OSM    H4G15494   0.125   3.081   5.161 -1.3646  0.7219  0.6267
  141OSM    C5F15495   0.015   2.926   5.268 -0.0234 -0.3258 -0.4591
  141OSM    H5F15496  -0.070   2.996   5.286 -0.0474 -0.5149  0.1940
  141OSM    H5G15497   0.029   2.876   5.366 -0.3793  2.3773  1.0129
  141OSM    C6F15498  -0.032   2.823   5.160  0.1096 -0.8874 -1.0504
  141OSM    H6F15499  -0.092   2.749   5.218  0.5617 -1.2237 -1.0089
  141OSM    H6G15500   0.061   2.782   5.115  1.6675 -1.4250  2.5658
  141OSM    C7F15501  -0.111   2.885   5.034  0.3504 -0.4273 -0.0872
  141OSM    H7F15502  -0.039   2.903   4.951 -0.4205 -0.8395 -0.8462
  141OSM    H7G15503  -0.166   2.974   5.072 -0.3038 -1.1706  0.7317
  141OSM    C8F15504  -0.223   2.796   4.968  0.2347  0.0953 -0.1019
  141OSM    H8F15505  -0.232   2.826   4.861  1.4913  0.9802  0.0265
  141OSM    H8G15506  -0.320   2.800   5.022  0.0397  1.5721 -0.5557
  141OSM    C9F15507  -0.178   2.654   4.959 -0.1471 -0.7144 -0.1523
  141OSM    H9F15508  -0.084   2.633   4.905 -0.7174 -1.8307 -0.7319
  141OSM   C10F15509  -0.247   2.549   4.998 -0.0447  0.0436 -0.4818
  141OSM   H10F15510  -0.209   2.448   4.976 -1.1657 -0.8050  1.3247
  141OSM   C11F15511  -0.383   2.554   5.069  0.2180 -0.7785  0.1528
  141OSM   H11F15512  -0.418   2.650   5.114  0.6435 -1.8539  2.8314
  141OSM   H11G15513  -0.373   2.480   5.151  0.7271 -1.7043 -0.7374
  141OSM   C12F15514  -0.487   2.520   4.964 -0.1325  0.0938  0.1476
  141OSM   H12F15515  -0.581   2.503   5.019 -0.6818  1.7642 -0.2474
  141OSM   H12G15516  -0.461   2.429   4.906  0.3186 -0.1554  0.7399
  141OSM   C13F15517  -0.510   2.622   4.853 -0.2198 -0.5325 -0.3904
  141OSM   H13F15518  -0.419   2.637   4.791 -1.5102 -2.4236 -2.8416
  141OSM   H13G15519  -0.518   2.719   4.907  0.2263  0.0471 -1.3521
  141OSM   C14F15520  -0.635   2.591   4.776  0.4081 -0.0191  0.2647
  141OSM   H14F15521  -0.723   2.572   4.840  1.3251  0.5292  1.6968
  141OSM   H14G15522  -0.624   2.489   4.732 -0.1939 -0.9980  2.3485
  141OSM   C15F15523  -0.665   2.687   4.660 -0.2772 -0.2129  0.6212
  141OSM   H15F15524  -0.598   2.775   4.673 -1.3053  0.5978  0.4054
  141OSM   H15G15525  -0.773   2.711   4.664 -0.1568  0.4531 -0.1274
  141OSM   C16F15526  -0.619   2.640   4.517 -0.6758  0.0311 -0.6887
  141OSM   H16F15527  -0.647   2.719   4.443  4.6696 -0.3827 -3.3765
  141OSM   H16G15528  -0.676   2.549   4.487 -0.6093  0.2903 -1.6188
  141OSM   C17F15529  -0.466   2.607   4.504  0.7871  0.5716 -0.1247
  141OSM   H17F15530  -0.446   2.534   4.585 -0.1832  0.5912  0.1415
  141OSM   H17G15531  -0.411   2.702   4.525 -2.2657  2.2038  0.7591
  141OSM   C18F15532  -0.433   2.551   4.363  0.7293 -0.5219  0.6803
  141OSM   H18F15533  -0.426   2.638   4.295 -0.6957 -1.0503 -0.1648
  141OSM   H18G15534  -0.509   2.482   4.322  2.1700 -2.4944  1.2264
  141OSM   H18H15535  -0.331   2.506   4.367  1.3265  0.6294 -1.2650
  142OSM      N15536   6.099   1.299   6.282  0.4939 -0.2765 -0.0093
  142OSM    C1515537   6.004   1.285   6.170 -0.0186 -1.1357  0.1986
  142OSM   H15A15538   6.043   1.341   6.086  0.0957 -2.3500 -0.5715
  142OSM   H15B15539   5.906   1.311   6.207 -0.8976 -1.8897 -1.5543
  142OSM   H15C15540   5.999   1.178   6.154  0.5043 -1.2945  1.0598
  142OSM    C1415541   6.054   1.238   6.405 -0.3197 -0.3900 -0.1335
  142OSM   H14A15542   6.021   1.136   6.391  1.6093 -0.9719 -0.6345
  142OSM   H14B15543   5.977   1.302   6.444  0.8216  2.1380 -1.8391
  142OSM   H14C15544   6.129   1.247   6.481 -0.6924  3.4564 -0.1430
  142OSM    C1315545   6.237   1.247   6.245  0.2270  0.0112  0.0423
  142OSM   H13A15546   6.238   1.139   6.247  3.2157 -0.0011 -0.3754
  142OSM   H13B15547   6.306   1.277   6.323 -0.6043  0.6362  0.5457
  142OSM   H13C15548   6.270   1.281   6.147 -1.1847 -0.7024 -0.6910
  142OSM    C1215549   6.116   1.449   6.308 -0.4323 -0.0178  0.3872
  142OSM   H12A15550   6.182   1.469   6.391 -2.5432  1.9513  1.6503
  142OSM   H12B15551   6.019   1.488   6.335 -1.9897 -4.0374  0.9697
  142OSM    C1115552   6.156   1.535   6.185  0.3369  0.2061 -0.2897
  142OSM   H11A15553   6.200   1.632   6.219 -0.5507 -0.4353  2.7839
  142OSM   H11B15554   6.061   1.566   6.137  0.0046  0.1916  0.3549
  142OSM      P15555   6.217   1.494   5.939  0.2164  0.3085 -0.2529
  142OSM    O1315556   6.154   1.628   5.930 -0.4887  0.1361 -0.5153
  142OSM    O1415557   6.339   1.463   5.861  0.0444  0.5020  0.0205
  142OSM    O1115558   6.103   1.394   5.897 -0.3070  0.4094  0.7527
  142OSM    O1215559   6.247   1.470   6.091 -0.4942  0.0075  0.5444
  142OSM    C1S15560   6.135   1.254   5.861  0.5722  0.9213  0.2863
  142OSM    H1S15561   6.056   1.188   5.902 -0.2046  1.6405 -0.0449
  142OSM    H1T15562   6.228   1.213   5.905 -1.4482 -1.5926  2.3490
  142OSM     NF15563   6.262   1.198   5.644 -0.8529  0.3834 -0.3434
  142OSM    HNF15564   6.317   1.267   5.597 -1.0682  0.0990 -1.0202
  142OSM    C2S15565   6.129   1.225   5.703 -0.1365  0.2408 -0.2035
  142OSM    H2S15566   6.076   1.128   5.694  2.1058 -0.9394 -0.9519
  142OSM    C3S15567   6.054   1.332   5.629  0.4222  0.6173  0.3528
  142OSM    H3S15568   6.112   1.426   5.641  0.3856  0.9772 -2.1813
  142OSM     O315569   5.924   1.364   5.668 -0.4656 -0.5695 -0.2929
  142OSM    HO315570   5.922   1.351   5.763 -5.5805 -2.8863 -0.5610
  142OSM    C4S15571   6.043   1.291   5.486 -0.1508 -0.4827  0.0988
  142OSM    H4S15572   6.013   1.186   5.471  0.7723 -0.7512  0.1420
  142OSM    C5S15573   6.081   1.358   5.372 -0.5511  0.1701 -0.2393
  142OSM    H5S15574   6.114   1.462   5.383 -0.7478  0.0369  1.8538
  142OSM    C6S15575   6.081   1.314   5.229  0.1987  0.4486  0.1572
  142OSM    H6S15576   6.182   1.313   5.184  0.2800  1.5597  0.2990
  142OSM    H6T15577   6.032   1.391   5.165  2.8307  1.2450 -0.9572
  142OSM    C7S15578   6.008   1.183   5.208  0.0897 -0.9501  0.1726
  142OSM    H7S15579   5.907   1.174   5.256 -0.2666 -0.2330 -0.4289
  142OSM    H7T15580   6.068   1.100   5.251  0.9741  0.3098  1.4060
  142OSM    C8S15581   5.981   1.154   5.056 -0.6303  0.3120  0.1016
  142OSM    H8S15582   5.933   1.233   4.993 -0.5891 -0.2955 -0.7029
  142OSM    H8T15583   5.914   1.068   5.037 -0.4154 -0.2512  1.8253
  142OSM    C9S15584   6.113   1.109   4.983  0.1753 -0.1719  0.2105
  142OSM    H9S15585   6.122   0.998   4.990  4.3115  0.0947 -0.2278
  142OSM    H9T15586   6.199   1.152   5.038 -1.5231  2.1364  1.1978
  142OSM   C10S15587   6.122   1.151   4.839  0.1360  0.6299  0.3555
  142OSM   H10S15588   6.154   1.257   4.826 -2.5616  1.4033 -0.1572
  142OSM   H10T15589   6.020   1.140   4.797 -1.0297  4.3730  2.0487
  142OSM   C11S15590   6.211   1.048   4.772  0.1716  0.8527 -0.2691
  142OSM   H11S15591   6.167   0.946   4.778 -0.1855  0.9692 -0.8257
  142OSM   H11T15592   6.304   1.046   4.834  0.4782  0.0242 -0.7496
  142OSM   C12S15593   6.231   1.090   4.624  0.0862 -0.2269 -0.0974
  142OSM   H12S15594   6.257   1.198   4.619  1.2974 -0.3066  3.0422
  142OSM   H12T15595   6.134   1.073   4.572  0.3715  0.1519 -0.7520
  142OSM   C13S15596   6.342   1.013   4.562  0.4597  0.2329 -0.2712
  142OSM   H13S15597   6.433   0.992   4.622  0.7159 -1.5705 -1.2667
  142OSM   H13T15598   6.379   1.064   4.470 -1.2206 -1.9067 -2.2107
  142OSM   C14S15599   6.294   0.890   4.487 -0.6755  0.5223  0.3853
  142OSM   H14S15600   6.233   0.918   4.398 -0.8504 -1.9047 -0.3002
  142OSM   H14T15601   6.229   0.839   4.560 -0.7164  0.8734  0.5969
  142OSM   C15S15602   6.411   0.805   4.435 -0.2177 -0.1079 -0.7205
  142OSM   H15S15603   6.373   0.702   4.420  0.8036 -0.4792 -0.7905
  142OSM   H15T15604   6.496   0.801   4.507 -0.9471  0.9810  0.2144
  142OSM   C16S15605   6.464   0.849   4.293  0.2156 -0.1111 -0.0792
  142OSM   H16S15606   6.532   0.934   4.318 -0.8152  0.2639  1.5586
  142OSM   H16T15607   6.378   0.890   4.237  2.4437  3.0350 -1.3729
  142OSM   C17S15608   6.550   0.741   4.223 -0.2845 -0.0063  0.2332
  142OSM   H17S15609   6.490   0.648   4.217 -0.4083  0.1918 -2.0828
  142OSM   H17T15610   6.646   0.722   4.275  1.0469  0.7491 -1.8735
  142OSM   C18S15611   6.581   0.773   4.072  0.3107  0.5628 -0.0676
  142OSM   H18S15612   6.647   0.861   4.053  0.8255  0.0992 -0.4137
  142OSM   H18T15613   6.490   0.787   4.010 -0.0436  0.0431  0.3305
  142OSM   H18U15614   6.632   0.683   4.034 -1.2893 -0.6738  0.6599
  142OSM    C1F15615   6.326   1.083   5.661 -0.3353 -0.5472 -0.3125
  142OSM     OF15616   6.293   1.000   5.746  0.8672 -0.5312 -0.1460
  142OSM    C2F15617   6.447   1.054   5.582 -0.6292 -0.1941  0.6149
  142OSM    H2F15618   6.473   0.946   5.590  2.0732  0.5248  1.9857
  142OSM    H2G15619   6.531   1.120   5.612 -0.0258 -0.8982  0.4719
  142OSM    C3F15620   6.407   1.057   5.434 -0.0425  0.8765 -0.3249
  142OSM    H3F15621   6.377   1.153   5.387 -1.0124 -0.0431 -1.5946
  142OSM    H3G15622   6.320   0.990   5.418 -0.2555  1.1253 -0.2047
  142OSM    C4F15623   6.521   1.006   5.343 -0.1493  0.1860  0.4550
  142OSM    H4F15624   6.542   0.902   5.375 -0.9346 -0.0499  0.2367
  142OSM    H4G15625   6.606   1.077   5.353  0.3000 -0.1323 -0.9865
  142OSM    C5F15626   6.484   0.997   5.190  0.0973 -0.5613  0.2558
  142OSM    H5F15627   6.483   1.096   5.140  3.4259 -0.6773 -0.1726
  142OSM    H5G15628   6.379   0.964   5.177 -0.6714  1.3742  1.4199
  142OSM    C6F15629   6.583   0.897   5.120 -0.1488 -1.0071 -0.6064
  142OSM    H6F15630   6.577   0.800   5.173  0.5966 -1.1704 -0.8288
  142OSM    H6G15631   6.686   0.938   5.122 -2.5019  5.5264  0.4041
  142OSM    C7F15632   6.539   0.882   4.980 -0.3576  0.3896  0.0777
  142OSM    H7F15633   6.517   0.979   4.930  0.7502  1.4774  1.6377
  142OSM    H7G15634   6.440   0.831   4.978 -0.2599  0.1849  0.4457
  142OSM    C8F15635   6.649   0.817   4.887  0.2968  0.0319  0.9776
  142OSM    H8F15636   6.748   0.863   4.909 -0.0549  1.2901 -0.0241
  142OSM    H8G15637   6.629   0.829   4.779 -0.6445  1.3843  1.2959
  142OSM    C9F15638   6.667   0.667   4.910  0.1226 -0.8989  0.0490
  142OSM    H9F15639   6.666   0.643   5.018  0.4954 -1.5903 -0.0972
  142OSM   C10F15640   6.669   0.570   4.820 -0.4683  0.3656  0.7579
  142OSM   H10F15641   6.675   0.467   4.860  0.7899 -0.6255 -1.9251
  142OSM   C11F15642   6.657   0.571   4.665 -0.2020  0.3293  0.3530
  142OSM   H11F15643   6.745   0.522   4.618  1.3678  1.4231  2.0991
  142OSM   H11G15644   6.634   0.676   4.637 -0.4140  0.0739 -0.4458
  142OSM   C12F15645   6.537   0.491   4.625  1.0864 -0.3236 -0.0967
  142OSM   H12F15646   6.439   0.533   4.656  0.5774 -0.2147 -1.7800
  142OSM   H12G15647   6.542   0.388   4.667  0.8036 -0.4787 -0.4393
  142OSM   C13F15648   6.519   0.484   4.468  0.2796  0.2553 -0.1841
  142OSM   H13F15649   6.544   0.580   4.417 -1.6290  0.8797  0.0194
  142OSM   H13G15650   6.410   0.482   4.451  0.0956  0.2191  0.9633
  142OSM   C14F15651   6.583   0.362   4.398  0.1007  0.2759 -0.3867
  142OSM   H14F15652   6.559   0.277   4.466  1.5942  2.4990  3.0952
  142OSM   H14G15653   6.692   0.378   4.389  0.1040 -0.7655 -2.4383
  142OSM   C15F15654   6.526   0.329   4.265  0.0972 -0.2364 -0.5275
  142OSM   H15F15655   6.553   0.407   4.191 -1.8097 -1.7218 -2.8636
  142OSM   H15G15656   6.416   0.345   4.266  0.0650 -0.4134  1.9349
  142OSM   C16F15657   6.566   0.195   4.200  0.5246  0.4084 -0.0159
  142OSM   H16F15658   6.517   0.185   4.101 -0.1034  0.0025  0.3340
  142OSM   H16G15659   6.536   0.114   4.271  0.9054  1.3389  1.2296
  142OSM   C17F15660   6.716   0.184   4.185 -0.0240  0.2394 -0.4588
  142OSM   H17F15661   6.770   0.200   4.281 -0.5671 -0.7403  0.0278
  142OSM   H17G15662   6.767   0.247   4.110  2.4181 -0.4388  0.5913
  142OSM   C18F15663   6.750   0.042   4.134  0.3584  0.1382  0.1593
  142OSM   H18F15664   6.857   0.013   4.141  1.1666  3.3566  2.4058
  142OSM   H18G15665   6.732   0.041   4.025  0.7497 -0.7897  0.0941
  142OSM   H18H15666   6.691  -0.039   4.182 -0.4677  1.5908  1.6365
  143OSM      N15667   0.095   4.973   6.183  0.3573 -0.3647  0.6475
  143OSM    C1515668  -0.015   4.879   6.185 -0.9431  0.2538 -0.0444
  143OSM   H15A15669  -0.110   4.931   6.189  0.0588  2.1452 -0.3196
  143OSM   H15B15670  -0.005   4.821   6.275  1.6918  1.1765  0.2966
  143OSM   H15C15671  -0.022   4.817   6.096 -0.7515 -1.6191  1.2203
  143OSM    C1415672   0.108   5.035   6.318 -0.1573 -0.3643 -0.1015
  143OSM   H14A15673   0.048   5.124   6.317  0.5726  0.1363 -0.0680
  143OSM   H14B15674   0.208   5.072   6.332 -1.4919  2.4267  2.5396
  143OSM   H14C15675   0.064   4.969   6.392  0.2423 -1.6738 -0.9996
  143OSM    C1315676   0.230   4.896   6.158 -0.3427  0.6072  0.3232
  143OSM   H13A15677   0.244   4.823   6.236  0.0292  1.4019  0.9978
  143OSM   H13B15678   0.311   4.967   6.163 -0.7686  1.1301 -0.0711
  143OSM   H13C15679   0.228   4.848   6.061 -0.3176 -0.6371  0.9329
  143OSM    C1215680   0.078   5.079   6.073  0.2214  0.0417 -0.3883
  143OSM   H12A15681   0.102   5.029   5.981  0.2953 -2.1153  0.7626
  143OSM   H12B15682   0.162   5.144   6.092  2.0570 -1.8190 -1.8757
  143OSM    C1115683  -0.051   5.161   6.071 -0.1083  0.1607  0.2652
  143OSM   H11A15684  -0.141   5.098   6.088  0.7054 -1.4209 -1.1490
  143OSM   H11B15685  -0.066   5.211   5.973 -0.9213  0.7395  0.6745
  143OSM      P15686  -0.007   5.388   6.178  0.6519  0.0919 -0.1425
  143OSM    O1315687  -0.084   5.467   6.276 -0.3416  0.7456  0.9399
  143OSM    O1415688   0.136   5.385   6.191  0.1724 -0.6779 -0.4575
  143OSM    O1115689  -0.046   5.438   6.034  0.7256  0.1564 -0.0022
  143OSM    O1215690  -0.061   5.239   6.181  0.7736 -0.7648 -0.2222
  143OSM    C1S15691   0.057   5.505   5.959 -0.0359 -0.8451 -0.0369
  143OSM    H1S15692   0.158   5.459   5.969 -0.0854 -0.9807 -0.1683
  143OSM    H1T15693   0.064   5.611   5.991  0.1649 -1.7084  2.9127
  143OSM     NF15694   0.125   5.498   5.723 -0.0609  0.2180 -0.3988
  143OSM    HNF15695   0.149   5.585   5.680  2.1818 -0.6235 -0.9218
  143OSM    C2S15696   0.009   5.491   5.811 -0.0235 -0.1349 -0.0907
  143OSM    H2S15697  -0.043   5.394   5.797  0.2957 -0.3919  0.4761
  143OSM    C3S15698  -0.094   5.601   5.788  0.8989  0.4464  0.0926
  143OSM    H3S15699  -0.053   5.701   5.815 -0.6979  1.5109 -1.3774
  143OSM     O315700  -0.205   5.578   5.876  0.2316 -0.0973  0.4428
  143OSM    HO315701  -0.167   5.515   5.938 -2.1016 -1.3040  0.6845
  143OSM    C4S15702  -0.156   5.602   5.653 -0.0991 -0.2964  0.1177
  143OSM    H4S15703  -0.253   5.554   5.634 -0.9799  1.7397 -0.6355
  143OSM    C5S15704  -0.107   5.675   5.553 -0.1474 -0.1684  0.0181
  143OSM    H5S15705  -0.012   5.728   5.571  0.5324 -2.0266  2.1484
  143OSM    C6S15706  -0.169   5.701   5.415  0.4518 -0.0355 -0.9487
  143OSM    H6S15707  -0.141   5.800   5.374  0.0345  0.4433 -0.0951
  143OSM    H6T15708  -0.277   5.678   5.413  0.5176 -0.5460  0.5595
  143OSM    C7S15709  -0.118   5.587   5.325  0.3818 -0.4740 -0.1734
  143OSM    H7S15710  -0.125   5.490   5.378 -1.7427 -0.8663 -1.1541
  143OSM    H7T15711  -0.008   5.595   5.309  0.2018  2.0732 -0.4243
  143OSM    C8S15712  -0.182   5.601   5.182 -0.4959 -0.3592 -0.0761
  143OSM    H8S15713  -0.293   5.590   5.188 -0.7122  0.8130 -1.6192
  143OSM    H8T15714  -0.145   5.531   5.105 -0.8471 -0.3686 -0.2379
  143OSM    C9S15715  -0.153   5.741   5.125 -0.0860 -0.0017 -0.1635
  143OSM    H9S15716  -0.052   5.777   5.155 -0.4110 -1.5789  3.0110
  143OSM    H9T15717  -0.229   5.805   5.174 -0.1909 -1.0752  1.1057
  143OSM   C10S15718  -0.172   5.770   4.972 -0.0734  0.5161 -0.2159
  143OSM   H10S15719  -0.156   5.876   4.941  2.0816  0.2106 -0.2376
  143OSM   H10T15720  -0.276   5.751   4.938  0.9000  0.5654 -3.4221
  143OSM   C11S15721  -0.086   5.688   4.878  0.2700 -0.7091 -0.9667
  143OSM   H11S15722  -0.108   5.711   4.771 -0.2602 -0.9454 -0.9098
  143OSM   H11T15723  -0.136   5.589   4.882  0.1119 -0.6006 -0.1687
  143OSM   C12S15724   0.070   5.705   4.904  0.1684 -0.5372  0.4506
  143OSM   H12S15725   0.084   5.661   5.005 -2.4882 -0.9966  0.6642
  143OSM   H12T15726   0.089   5.814   4.896  0.1432 -0.6366 -1.2893
  143OSM   C13S15727   0.174   5.633   4.808 -0.3744 -0.3110 -0.3743
  143OSM   H13S15728   0.126   5.541   4.767  1.2487 -0.9822 -0.8037
  143OSM   H13T15729   0.266   5.609   4.864 -0.0673  1.5797 -0.0368
  143OSM   C14S15730   0.235   5.695   4.680 -0.3171  0.0854 -0.9449
  143OSM   H14S15731   0.280   5.619   4.613 -0.8826  1.5028 -2.9670
  143OSM   H14T15732   0.309   5.773   4.707  0.7358 -1.3331  0.2818
  143OSM   C15S15733   0.114   5.764   4.597  0.0151  0.5612 -0.5268
  143OSM   H15S15734   0.061   5.847   4.649 -0.5880 -0.4671  0.5264
  143OSM   H15T15735   0.035   5.690   4.571  0.8657 -0.5090 -0.0970
  143OSM   C16S15736   0.156   5.834   4.462  0.3615 -0.4168 -0.6695
  143OSM   H16S15737   0.181   5.747   4.397 -1.2407 -1.3413 -0.1022
  143OSM   H16T15738   0.247   5.896   4.478  0.1813 -0.4631  0.5920
  143OSM   C17S15739   0.060   5.919   4.382  0.3261 -0.0238  0.7547
  143OSM   H17S15740   0.086   5.941   4.276 -1.7071 -1.7360 -0.1197
  143OSM   H17T15741   0.057   6.022   4.423 -2.6316 -1.0041  3.1262
  143OSM   C18S15742  -0.089   5.872   4.384  0.2327  0.2187  0.1503
  143OSM   H18S15743  -0.137   5.873   4.484 -1.7640 -0.8735 -0.7482
  143OSM   H18T15744  -0.089   5.771   4.339  0.3606  1.5175 -2.9196
  143OSM   H18U15745  -0.152   5.941   4.323 -0.6335 -2.6379 -2.2870
  143OSM    C1F15746   0.214   5.396   5.704 -0.0592 -0.1689 -1.2812
  143OSM     OF15747   0.199   5.293   5.767  0.5582  0.0723  0.5516
  143OSM    C2F15748   0.336   5.426   5.624 -0.6495  0.3637 -0.0059
  143OSM    H2F15749   0.421   5.457   5.688  1.0909  2.2918 -3.0832
  143OSM    H2G15750   0.318   5.513   5.558  5.0163 -0.6906 -3.3034
  143OSM    C3F15751   0.371   5.309   5.527 -0.4405  0.0773  0.8248
  143OSM    H3F15752   0.394   5.214   5.580  2.1885  0.0386 -0.2734
  143OSM    H3G15753   0.463   5.342   5.474  0.8561 -1.9620  1.6941
  143OSM    C4F15754   0.285   5.287   5.400 -0.9382  0.0153 -0.7800
  143OSM    H4F15755   0.184   5.252   5.430 -0.1556 -1.6065  0.0271
  143OSM    H4G15756   0.325   5.197   5.349  2.5088  0.6398  0.6635
  143OSM    C5F15757   0.280   5.404   5.301  0.3778  0.0078  0.3510
  143OSM    H5F15758   0.369   5.416   5.236 -1.1565 -0.7186 -1.9643
  143OSM    H5G15759   0.282   5.494   5.365  3.8680 -1.7408  2.8066
  143OSM    C6F15760   0.154   5.405   5.224 -0.1000  0.2909 -0.5485
  143OSM    H6F15761   0.139   5.509   5.189 -1.5678  0.0301 -0.7355
  143OSM    H6G15762   0.071   5.369   5.288 -0.4552 -1.9930 -2.2134
  143OSM    C7F15763   0.157   5.304   5.102 -0.1072 -0.1914 -0.7943
  143OSM    H7F15764   0.176   5.201   5.138  1.1284  0.5583  0.7570
  143OSM    H7G15765   0.238   5.333   5.032  2.3683 -0.4000  1.9470
  143OSM    C8F15766   0.034   5.308   5.005 -0.0840 -0.3815  0.1786
  143OSM    H8F15767   0.055   5.228   4.930 -0.4537 -0.3926  0.0860
  143OSM    H8G15768   0.026   5.402   4.946 -1.6463 -0.5687  0.0631
  143OSM    C9F15769  -0.101   5.283   5.070  0.1155  0.8801 -0.6027
  143OSM    H9F15770  -0.111   5.313   5.176 -2.4458  3.2868 -1.4673
  143OSM   C10F15771  -0.208   5.226   5.013  0.1882 -0.1469  0.0189
  143OSM   H10F15772  -0.301   5.238   5.070 -0.0847  1.6062 -0.7612
  143OSM   C11F15773  -0.219   5.174   4.872 -0.2400 -0.3882  0.1497
  143OSM   H11F15774  -0.117   5.164   4.829 -1.3455  1.9343 -3.2251
  143OSM   H11G15775  -0.269   5.254   4.815  2.4960  0.8267 -0.6232
  143OSM   C12F15776  -0.293   5.040   4.847  0.0485 -0.5582  0.6698
  143OSM   H12F15777  -0.393   5.048   4.896 -0.3771 -1.0427 -0.1129
  143OSM   H12G15778  -0.245   4.959   4.906  0.2806 -1.3507 -0.5885
  143OSM   C13F15779  -0.312   5.023   4.693 -0.5866 -0.3968  0.0226
  143OSM   H13F15780  -0.349   5.115   4.644 -2.0971 -0.4616  1.0000
  143OSM   H13G15781  -0.375   4.940   4.657  0.2296 -1.1378  0.2890
  143OSM   C14F15782  -0.176   4.990   4.624 -0.3658  0.3346  0.3795
  143OSM   H14F15783  -0.125   4.908   4.678 -0.7144 -0.1087  0.0397
  143OSM   H14G15784  -0.109   5.079   4.619  0.1907 -0.0541  0.8365
  143OSM   C15F15785  -0.204   4.942   4.478  0.5007  0.9102 -0.0472
  143OSM   H15F15786  -0.268   5.016   4.424 -1.6628 -1.2741 -0.5791
  143OSM   H15G15787  -0.259   4.846   4.483 -1.2042  1.8712  0.3083
  143OSM   C16F15788  -0.077   4.921   4.384  0.0086  0.0587  0.7350
  143OSM   H16F15789  -0.044   5.026   4.373 -1.0507  0.3000 -0.2797
  143OSM   H16G15790  -0.103   4.877   4.285  0.2647 -2.6326  1.8011
  143OSM   C17F15791   0.033   4.832   4.447  0.4222 -0.4090  0.0239
  143OSM   H17F15792   0.059   4.885   4.541  0.2301  0.5521 -0.4513
  143OSM   H17G15793   0.130   4.831   4.394  0.3973  2.3581 -0.1817
  143OSM   C18F15794  -0.019   4.684   4.475 -0.0764 -0.2262 -0.4234
  143OSM   H18F15795  -0.114   4.668   4.530 -1.3122  1.5388 -1.9461
  143OSM   H18G15796   0.051   4.622   4.534 -0.9955 -0.5173  0.3805
  143OSM   H18H15797  -0.023   4.645   4.371  1.3948 -1.5764  0.0060
  144OSM      N15798   0.636   4.355   6.056  0.0510 -0.3589 -0.4181
  144OSM    C1515799   0.763   4.288   6.096  0.3758  0.0873 -0.8790
  144OSM   H15A15800   0.779   4.287   6.203 -1.4398 -0.0685 -0.6088
  144OSM   H15B15801   0.843   4.352   6.059  1.7393 -1.3114 -0.3956
  144OSM   H15C15802   0.773   4.190   6.053 -1.5978  0.0726 -1.3180
  144OSM    C1415803   0.632   4.355   5.905 -0.1836  0.4754  0.6486
  144OSM   H14A15804   0.703   4.427   5.867 -0.2181  0.8155  1.2201
  144OSM   H14B15805   0.532   4.376   5.870 -0.7065 -1.3189  1.0150
  144OSM   H14C15806   0.638   4.256   5.861  0.4924  0.7682  0.0632
  144OSM    C1315807   0.515   4.285   6.106  0.3714 -0.0890 -0.0324
  144OSM   H13A15808   0.426   4.344   6.086 -1.0623 -1.1619  2.8675
  144OSM   H13B15809   0.520   4.280   6.214 -1.8679  2.5227  0.2661
  144OSM   H13C15810   0.493   4.187   6.068 -0.0680  0.7684 -2.0637
  144OSM    C1215811   0.628   4.500   6.109  0.8974 -0.1100  0.6512
  144OSM   H12A15812   0.721   4.550   6.085 -0.0268  1.6164  0.5974
  144OSM   H12B15813   0.625   4.484   6.216  0.7550  0.5360  0.7468
  144OSM    C1115814   0.505   4.594   6.066 -0.1710  0.2140 -0.8877
  144OSM   H11A15815   0.509   4.604   5.956  0.5401  1.9368 -0.7258
  144OSM   H11B15816   0.518   4.697   6.106  0.4390 -0.3305  0.3447
  144OSM      P15817   0.250   4.535   6.026  0.0680  0.3666  0.0327
  144OSM    O1315818   0.279   4.434   5.915  0.6257  0.2573  0.2336
  144OSM    O1415819   0.136   4.507   6.117 -0.0832  0.4823  0.4884
  144OSM    O1115820   0.231   4.676   5.955  0.4167 -0.6138 -0.0696
  144OSM    O1215821   0.381   4.553   6.115 -0.0880 -0.7027 -0.2989
  144OSM    C1S15822   0.305   4.729   5.843  0.0498  0.2006  0.4837
  144OSM    H1S15823   0.377   4.655   5.803  0.7639  0.1659  1.8247
  144OSM    H1T15824   0.368   4.815   5.876 -0.6971 -0.0942  2.7190
  144OSM     NF15825   0.304   4.825   5.622  0.4757 -0.7360 -0.5228
  144OSM    HNF15826   0.323   4.923   5.624 -1.4042 -0.3722  1.6176
  144OSM    C2S15827   0.216   4.774   5.725 -1.0885 -0.1272  0.3556
  144OSM    H2S15828   0.162   4.684   5.688 -0.3057 -1.3403  2.1304
  144OSM    C3S15829   0.108   4.880   5.768 -0.1565 -0.3540 -0.9590
  144OSM    H3S15830   0.142   4.980   5.803 -0.4463  0.7025 -3.6102
  144OSM     O315831   0.016   4.834   5.865 -0.7264 -0.1996 -0.2158
  144OSM    HO315832   0.045   4.744   5.882  0.3284  0.4537  1.5268
  144OSM    C4S15833   0.022   4.919   5.648 -0.3340 -1.1228  0.0713
  144OSM    H4S15834  -0.024   4.832   5.599 -1.2992 -1.3207  1.3061
  144OSM    C5S15835  -0.016   5.045   5.607  0.8443 -0.6383  0.2580
  144OSM    H5S15836   0.028   5.122   5.672  1.1392 -0.1288 -0.5459
  144OSM    C6S15837  -0.113   5.087   5.498 -0.4369  0.6232 -0.0011
  144OSM    H6S15838  -0.134   5.196   5.506 -0.1555  0.6470  0.3964
  144OSM    H6T15839  -0.205   5.031   5.526  0.8684 -0.6934  1.7524
  144OSM    C7S15840  -0.066   5.059   5.349  0.2776  0.1617 -0.7171
  144OSM    H7S15841   0.011   5.135   5.328  1.0891 -0.5677 -0.4286
  144OSM    H7T15842  -0.153   5.082   5.284 -0.8365  1.7228  1.2747
  144OSM    C8S15843  -0.020   4.922   5.318  0.2815  0.2486 -0.8463
  144OSM    H8S15844  -0.096   4.845   5.339 -1.1003  1.8693  0.2580
  144OSM    H8T15845   0.070   4.894   5.377 -0.0175  2.3927  0.7205
  144OSM    C9S15846   0.028   4.918   5.169  0.3964 -0.3616 -0.2122
  144OSM    H9S15847   0.066   5.018   5.141  1.2932 -0.8674 -0.8530
  144OSM    H9T15848  -0.065   4.905   5.111 -0.4254  0.3865  0.9276
  144OSM   C10S15849   0.126   4.810   5.124  0.3999  0.1794 -0.0126
  144OSM   H10S15850   0.068   4.725   5.166 -0.8970  2.0514  2.0924
  144OSM   H10T15851   0.217   4.816   5.188  1.4681  1.7877 -1.6099
  144OSM   C11S15852   0.164   4.785   4.971  0.6315  0.2694  0.2861
  144OSM   H11S15853   0.075   4.779   4.905 -0.2044  0.4232  1.3876
  144OSM   H11T15854   0.215   4.687   4.962 -2.0576 -1.0152 -1.8140
  144OSM   C12S15855   0.253   4.908   4.924 -0.2447  0.5003 -0.1066
  144OSM   H12S15856   0.360   4.877   4.921 -0.5604 -0.9381  2.0125
  144OSM   H12T15857   0.256   4.991   4.999 -0.2381  1.3604 -1.0419
  144OSM   C13S15858   0.204   4.978   4.800 -0.1150 -0.4149  0.2920
  144OSM   H13S15859   0.093   4.982   4.805 -0.0212  1.2392  1.3837
  144OSM   H13T15860   0.231   4.905   4.720 -0.5913 -0.3199  0.0417
  144OSM   C14S15861   0.276   5.113   4.766  0.8406 -0.3140  0.0940
  144OSM   H14S15862   0.385   5.101   4.748  1.0506 -2.2868  2.3908
  144OSM   H14T15863   0.266   5.178   4.856 -1.0586 -0.3285 -0.0811
  144OSM   C15S15864   0.202   5.186   4.651  0.4663 -0.4582 -0.4607
  144OSM   H15S15865   0.097   5.205   4.684 -0.5041 -1.2369 -3.0323
  144OSM   H15T15866   0.199   5.123   4.560  1.3400 -1.6864  0.3532
  144OSM   C16S15867   0.270   5.315   4.602  0.4518  0.5462 -0.1655
  144OSM   H16S15868   0.380   5.300   4.602  0.0288 -3.0701  0.6859
  144OSM   H16T15869   0.270   5.392   4.681  1.8542  0.2291  0.1652
  144OSM   C17S15870   0.218   5.366   4.466 -0.3717 -0.0253  0.2378
  144OSM   H17S15871   0.241   5.282   4.398 -0.0826 -0.8952  1.3802
  144OSM   H17T15872   0.278   5.457   4.445 -0.2473  0.0906  1.0543
  144OSM   C18S15873   0.069   5.391   4.458  0.0277  0.6962  0.7966
  144OSM   H18S15874   0.035   5.444   4.550  2.5931 -0.2222  2.3125
  144OSM   H18T15875   0.013   5.296   4.470 -0.1379  0.7192  0.2187
  144OSM   H18U15876   0.047   5.449   4.366  5.1392  1.8899  0.2016
  144OSM    C1F15877   0.365   4.756   5.534  0.3756  0.5678 -0.2745
  144OSM     OF15878   0.347   4.635   5.527  0.2216 -0.4490  0.0291
  144OSM    C2F15879   0.453   4.826   5.435  0.0710 -0.3694  0.3895
  144OSM    H2F15880   0.522   4.886   5.499  0.4285 -1.2027  0.8016
  144OSM    H2G15881   0.397   4.901   5.375  2.1429  1.4332  0.6463
  144OSM    C3F15882   0.542   4.739   5.345  0.8611  0.1844  0.8281
  144OSM    H3F15883   0.593   4.656   5.398 -1.6399 -0.7597  1.8306
  144OSM    H3G15884   0.621   4.807   5.306  0.1060  0.8847  0.5121
  144OSM    C4F15885   0.463   4.679   5.224 -0.0968  0.4767 -0.8661
  144OSM    H4F15886   0.420   4.747   5.147 -0.3732 -0.4764 -1.5558
  144OSM    H4G15887   0.370   4.641   5.270  1.3205 -2.3747 -0.2179
  144OSM    C5F15888   0.535   4.557   5.160  0.4776 -0.2238 -0.4979
  144OSM    H5F15889   0.478   4.506   5.079  0.5974 -1.6149  0.2789
  144OSM    H5G15890   0.556   4.476   5.233 -0.6237 -1.4688 -1.5286
  144OSM    C6F15891   0.678   4.594   5.114  1.0445 -0.0935 -0.5723
  144OSM    H6F15892   0.718   4.505   5.060 -0.3375 -1.5877  0.7885
  144OSM    H6G15893   0.753   4.603   5.196  0.0793 -2.2467  0.5889
  144OSM    C7F15894   0.687   4.722   5.023  0.1328 -0.6768 -0.4500
  144OSM    H7F15895   0.791   4.730   4.987 -0.4830 -1.1948 -2.4029
  144OSM    H7G15896   0.662   4.813   5.081  0.5230 -2.3982  2.5494
  144OSM    C8F15897   0.596   4.722   4.900  0.3314 -0.3506  0.5443
  144OSM    H8F15898   0.597   4.816   4.839 -1.4640 -0.7648 -0.1493
  144OSM    H8G15899   0.490   4.709   4.929  0.8066 -1.4175  1.8307
  144OSM    C9F15900   0.644   4.614   4.809  0.1340  0.2175  0.5540
  144OSM    H9F15901   0.754   4.608   4.810  0.0274 -2.3559 -0.6419
  144OSM   C10F15902   0.569   4.534   4.725 -0.4230  0.8995  0.2845
  144OSM   H10F15903   0.620   4.452   4.672 -1.0969 -1.3413  2.9767
  144OSM   C11F15904   0.427   4.533   4.709 -0.0227  0.0306  0.0004
  144OSM   H11F15905   0.381   4.581   4.798 -2.9328  0.9657 -1.9457
  144OSM   H11G15906   0.399   4.426   4.697  0.3905  0.0205 -0.8792
  144OSM   C12F15907   0.367   4.615   4.587 -0.3492 -0.3637  0.5086
  144OSM   H12F15908   0.411   4.716   4.593 -0.7491 -0.1687  0.1479
  144OSM   H12G15909   0.256   4.614   4.589 -0.4462 -1.2951 -2.5598
  144OSM   C13F15910   0.404   4.557   4.449 -0.5301  0.6702 -0.2078
  144OSM   H13F15911   0.381   4.449   4.442  0.1461  0.3715  1.9084
  144OSM   H13G15912   0.515   4.569   4.443 -0.8317  2.8472 -2.3633
  144OSM   C14F15913   0.350   4.628   4.322  0.0633  0.4787  0.3850
  144OSM   H14F15914   0.367   4.737   4.326  0.9390  0.3567  0.2099
  144OSM   H14G15915   0.239   4.629   4.328  0.0531  0.5319  0.1825
  144OSM   C15F15916   0.403   4.562   4.192  0.2649 -0.4557 -0.1332
  144OSM   H15F15917   0.343   4.470   4.177  0.3811 -0.1886 -2.5124
  144OSM   H15G15918   0.512   4.539   4.193  0.7204  1.4513 -1.7428
  144OSM   C16F15919   0.401   4.668   4.073  0.1288  0.2422  0.3204
  144OSM   H16F15920   0.458   4.763   4.074  0.1477  0.2400 -0.4490
  144OSM   H16G15921   0.295   4.697   4.060  1.1708  3.5169 -1.3887
  144OSM   C17F15922   0.433   4.603   3.930 -0.1948  0.2935 -0.0744
  144OSM   H17F15923   0.363   4.517   3.921 -0.7245  0.4918  2.1172
  144OSM   H17G15924   0.537   4.564   3.927 -0.0337  0.7741 -1.0616
  144OSM   C18F15925   0.400   4.691   3.801  0.2256 -0.5636  0.8380
  144OSM   H18F15926   0.454   4.788   3.802  0.0500 -0.4679  1.3597
  144OSM   H18G15927   0.290   4.707   3.791  0.6707  1.8091 -0.5460
  144OSM   H18H15928   0.428   4.636   3.709 -2.0081 -0.8181  0.2732
  145OSM      N15929   0.735   6.680   6.069 -0.3782  0.0509 -0.2269
  145OSM    C1515930   0.812   6.578   6.147 -0.0995 -0.3196 -0.4004
  145OSM   H15A15931   0.813   6.483   6.096 -1.2450 -0.7462  0.3388
  145OSM   H15B15932   0.756   6.553   6.236  0.7878  0.2845  0.3263
  145OSM   H15C15933   0.909   6.615   6.176 -0.5494  2.4990 -2.2915
  145OSM    C1415934   0.603   6.627   6.028 -0.2454  0.6511 -0.0212
  145OSM   H14A15935   0.543   6.710   5.994  1.9140  1.9852 -0.6705
  145OSM   H14B15936   0.542   6.586   6.108 -0.5297  0.9646 -0.0759
  145OSM   H14C15937   0.618   6.552   5.951 -1.3858 -0.8948  1.2288
  145OSM    C1315938   0.703   6.788   6.165 -0.1472 -0.6337  0.0860
  145OSM   H13A15939   0.789   6.832   6.214 -0.4441 -2.2584  2.1185
  145OSM   H13B15940   0.637   6.758   6.245 -0.5832  2.0013  0.7644
  145OSM   H13C15941   0.646   6.858   6.106 -0.4436 -1.0596 -0.1309
  145OSM    C1215942   0.810   6.735   5.944  0.2982  0.1835  0.3839
  145OSM   H12A15943   0.849   6.648   5.895 -1.8098 -1.6086  1.7646
  145OSM   H12B15944   0.893   6.786   5.990 -1.3966  1.8381  1.7434
  145OSM    C1115945   0.735   6.821   5.838  0.5162 -0.8430  0.2293
  145OSM   H11A15946   0.648   6.770   5.793  0.1998 -0.8407  0.8372
  145OSM   H11B15947   0.806   6.833   5.753  0.0934  1.0809  0.1139
  145OSM      P15948   0.636   7.062   5.817 -0.4374 -0.1180 -0.2562
  145OSM    O1315949   0.501   7.012   5.786  0.2191  0.8579 -0.2876
  145OSM    O1415950   0.647   7.194   5.882 -0.0925  0.0566  0.3714
  145OSM    O1115951   0.712   7.074   5.688 -0.0171 -0.1001  0.3641
  145OSM    O1215952   0.712   6.948   5.891 -0.5616  0.1299  0.0402
  145OSM    C1S15953   0.655   7.163   5.585  0.5984 -0.4042 -0.0218
  145OSM    H1S15954   0.645   7.265   5.626  0.8402 -1.1264  1.8498
  145OSM    H1T15955   0.553   7.132   5.551 -1.2381  2.8235  2.2690
  145OSM     NF15956   0.704   7.264   5.361  0.6645  0.2281  0.8914
  145OSM    HNF15957   0.686   7.227   5.270  1.1597 -0.1280  0.9365
  145OSM    C2S15958   0.750   7.166   5.466 -0.1859 -0.5778  0.5418
  145OSM    H2S15959   0.842   7.215   5.503 -0.5370 -0.9168  1.8950
  145OSM    C3S15960   0.783   7.023   5.400  0.3370  0.3967  0.1019
  145OSM    H3S15961   0.689   6.977   5.361  0.3835  1.7093 -1.6366
  145OSM     O315962   0.834   6.920   5.488 -0.2107 -0.1124  0.1161
  145OSM    HO315963   0.815   6.953   5.576 -1.9651 -1.8606  0.4290
  145OSM    C4S15964   0.887   7.032   5.279  0.4767  0.1273 -0.5936
  145OSM    H4S15965   0.848   7.002   5.181 -0.2954  1.1668 -0.6155
  145OSM    C5S15966   1.014   7.073   5.289 -0.0093  0.3451  0.1957
  145OSM    H5S15967   1.044   7.119   5.385  1.8820  0.5918 -0.4908
  145OSM    C6S15968   1.117   7.087   5.178  0.8760  0.5324 -0.1829
  145OSM    H6S15969   1.221   7.076   5.217  0.3996 -0.8239  0.7442
  145OSM    H6T15970   1.109   7.192   5.143  0.5241 -0.3945 -2.9374
  145OSM    C7S15971   1.080   7.007   5.047  0.5897  0.5524  0.2354
  145OSM    H7S15972   0.986   7.046   5.002  1.3734  2.9320  0.5652
  145OSM    H7T15973   1.066   6.899   5.068 -2.2356  0.6820 -0.8473
  145OSM    C8S15974   1.185   7.036   4.939 -0.5411 -0.3758  0.6748
  145OSM    H8S15975   1.291   7.015   4.965  0.3643  2.0430 -0.8651
  145OSM    H8T15976   1.180   7.144   4.914 -1.9774 -0.3579  1.0209
  145OSM    C9S15977   1.147   6.970   4.807 -0.5468  0.3180 -1.0557
  145OSM    H9S15978   1.036   6.959   4.799 -0.4861 -0.9955 -0.2556
  145OSM    H9T15979   1.179   6.864   4.808 -1.9006 -0.1443  2.5786
  145OSM   C10S15980   1.189   7.045   4.688  0.3650  0.2264 -0.3152
  145OSM   H10S15981   1.287   7.092   4.714  0.8465 -1.8916  1.8966
  145OSM   H10T15982   1.128   7.132   4.654 -0.2705  0.0919  0.4556
  145OSM   C11S15983   1.215   6.955   4.564  0.2850  0.2708  0.1263
  145OSM   H11S15984   1.121   6.942   4.507  0.0371  0.2557  0.5379
  145OSM   H11T15985   1.260   6.855   4.582 -0.0684  0.1427  0.3099
  145OSM   C12S15986   1.326   7.030   4.483 -1.1336  0.6927  0.4843
  145OSM   H12S15987   1.422   7.024   4.539 -1.8039 -3.9314  1.3476
  145OSM   H12T15988   1.291   7.135   4.478  0.7871  1.3242 -0.5346
  145OSM   C13S15989   1.323   6.975   4.336 -0.3676  0.3835  0.4255
  145OSM   H13S15990   1.221   6.988   4.295 -0.1774 -1.8049 -0.8385
  145OSM   H13T15991   1.357   6.869   4.340 -2.0388 -0.1411  1.0473
  145OSM   C14S15992   1.413   7.060   4.244 -0.5348  0.3140  0.4333
  145OSM   H14S15993   1.370   7.162   4.237 -1.6695  0.1592  4.0425
  145OSM   H14T15994   1.404   7.009   4.146  2.1268  0.7683 -0.0849
  145OSM   C15S15995   1.559   7.069   4.297 -0.0542  0.3853  0.3296
  145OSM   H15S15996   1.605   6.982   4.347  1.4173  0.6717 -0.4916
  145OSM   H15T15997   1.559   7.145   4.378 -0.5347 -1.9452  2.5594
  145OSM   C16S15998   1.666   7.111   4.188  0.2335  0.0351  0.3195
  145OSM   H16S15999   1.633   7.208   4.145 -0.9790 -0.6286 -0.2673
  145OSM   H16T16000   1.650   7.045   4.100  0.1189  0.0754  0.3100
  145OSM   C17S16001   1.818   7.097   4.231  0.1034  0.5231  0.3581
  145OSM   H17S16002   1.872   7.097   4.134 -1.7559 -0.4830 -0.7140
  145OSM   H17T16003   1.847   6.997   4.271 -0.5821  0.6254  1.1254
  145OSM   C18S16004   1.880   7.204   4.316 -0.5597  0.4134 -0.1513
  145OSM   H18S16005   1.990   7.203   4.328 -0.6733 -3.5161  1.1778
  145OSM   H18T16006   1.827   7.196   4.413 -0.6964 -2.0727 -0.4183
  145OSM   H18U16007   1.847   7.306   4.284 -0.1550  1.0877  1.5198
  145OSM    C1F16008   0.703   7.395   5.381 -0.3594  0.3606  0.7622
  145OSM     OF16009   0.736   7.445   5.489 -0.2649 -0.2837 -0.1296
  145OSM    C2F16010   0.671   7.475   5.258  0.5954  0.9220  0.5654
  145OSM    H2F16011   0.580   7.535   5.277  1.1602  1.0111  3.0963
  145OSM    H2G16012   0.641   7.408   5.174 -0.5001  2.7097 -0.4924
  145OSM    C3F16013   0.791   7.565   5.222 -0.4605  0.0615  0.0128
  145OSM    H3F16014   0.820   7.623   5.313  0.3882  0.3950 -0.4676
  145OSM    H3G16015   0.762   7.644   5.150 -0.2863 -0.2802 -0.4284
  145OSM    C4F16016   0.906   7.483   5.161  0.0909 -0.0209  0.3835
  145OSM    H4F16017   0.949   7.417   5.239 -0.3897 -1.1165 -0.2711
  145OSM    H4G16018   0.994   7.550   5.148  0.5389 -0.5506  0.6740
  145OSM    C5F16019   0.879   7.400   5.038 -0.0283  0.0101  0.5489
  145OSM    H5F16020   0.796   7.328   5.059  0.6997 -1.1617 -0.4741
  145OSM    H5G16021   0.971   7.338   5.031 -0.2930 -0.3500  0.2193
  145OSM    C6F16022   0.844   7.484   4.920 -0.2137 -0.1230 -0.1495
  145OSM    H6F16023   0.930   7.553   4.906  1.1664 -1.7970 -0.0302
  145OSM    H6G16024   0.752   7.541   4.944 -1.3081 -1.3056 -1.4920
  145OSM    C7F16025   0.839   7.412   4.788 -0.3767 -0.0641  0.7575
  145OSM    H7F16026   0.825   7.482   4.703  0.5477  1.3554  1.7644
  145OSM    H7G16027   0.748   7.348   4.796 -2.5619  2.5695 -1.7265
  145OSM    C8F16028   0.956   7.324   4.744  0.0220  0.3322 -0.3886
  145OSM    H8F16029   0.928   7.268   4.652  0.4741 -0.6519  0.0573
  145OSM    H8G16030   0.971   7.247   4.823  2.5092  1.9043  0.7460
  145OSM    C9F16031   1.079   7.414   4.739  0.0016 -0.7482 -0.3952
  145OSM    H9F16032   1.120   7.447   4.835 -0.3576  2.0182 -1.1480
  145OSM   C10F16033   1.126   7.460   4.624 -0.2903 -0.4716  0.7209
  145OSM   H10F16034   1.215   7.525   4.626 -0.9329  0.4344  0.1842
  145OSM   C11F16035   1.081   7.431   4.488  0.0245  0.2038  0.0397
  145OSM   H11F16036   0.983   7.388   4.461  1.6047 -1.5914 -3.1400
  145OSM   H11G16037   1.159   7.364   4.445  0.6052 -0.2959  1.8343
  145OSM   C12F16038   1.097   7.564   4.403  0.3968 -0.1623 -0.3517
  145OSM   H12F16039   1.086   7.531   4.297 -0.8754 -0.7593 -0.0344
  145OSM   H12G16040   1.197   7.610   4.420  0.5018 -0.0351 -1.2554
  145OSM   C13F16041   0.998   7.674   4.434  0.8966 -0.4111  0.0720
  145OSM   H13F16042   1.006   7.706   4.540  0.7207 -2.4774  0.7369
  145OSM   H13G16043   0.909   7.608   4.434  1.9076 -1.8052  2.0757
  145OSM   C14F16044   0.980   7.774   4.316  0.2194  0.4967 -0.0952
  145OSM   H14F16045   0.960   7.711   4.227  1.4073 -0.8721  0.5749
  145OSM   H14G16046   1.078   7.823   4.296 -0.7600  2.1758 -0.8024
  145OSM   C15F16047   0.875   7.879   4.328 -0.0881  0.5704  0.4724
  145OSM   H15F16048   0.776   7.831   4.347 -0.5442  1.3248  0.0567
  145OSM   H15G16049   0.867   7.929   4.229 -1.4675  1.4280  0.9902
  145OSM   C16F16050   0.906   7.998   4.418 -0.0703  0.7135 -0.3452
  145OSM   H16F16051   1.005   8.040   4.389  0.0149  0.4924 -0.3731
  145OSM   H16G16052   0.912   7.981   4.527  0.5343  2.8023 -0.0314
  145OSM   C17F16053   0.799   8.101   4.388 -0.0726  0.9868 -0.7051
  145OSM   H17F16054   0.699   8.055   4.403  0.1605  0.8178  0.3399
  145OSM   H17G16055   0.792   8.127   4.280 -2.6889  1.0139 -0.5546
  145OSM   C18F16056   0.805   8.225   4.466 -0.2505  0.0803  0.2022
  145OSM   H18F16057   0.719   8.292   4.445  0.9058  1.3558 -0.4896
  145OSM   H18G16058   0.903   8.276   4.463 -0.8087  1.1062 -0.9096
  145OSM   H18H16059   0.790   8.210   4.575 -0.4912  0.8158  0.2742
  146OSM      N16060   6.853   0.240   6.252 -0.3798 -0.5936  0.4607
  146OSM    C1516061   6.718   0.293   6.275  0.0749 -0.0463 -0.6949
  146OSM   H15A16062   6.643   0.221   6.245  0.0901 -0.6541  0.6894
  146OSM   H15B16063   6.705   0.387   6.223 -0.6112  0.3869  0.2414
  146OSM   H15C16064   6.709   0.313   6.381 -3.1429 -0.1084 -0.8983
  146OSM    C1416065   6.952   0.337   6.317  0.1493  0.2955 -0.0351
  146OSM   H14A16066   7.048   0.289   6.307  0.6015  0.9931  0.9487
  146OSM   H14B16067   6.933   0.352   6.422 -3.4854  0.0975 -0.5764
  146OSM   H14C16068   6.961   0.431   6.265  0.8453  1.0293  1.3892
  146OSM    C1316069   6.879   0.115   6.326  0.1315  0.1887 -0.2160
  146OSM   H13A16070   6.978   0.088   6.292 -0.3739 -0.7484 -0.9778
  146OSM   H13B16071   6.815   0.031   6.304  1.8741 -0.7849 -1.7747
  146OSM   H13C16072   6.882   0.123   6.433  0.2129  0.6614 -0.2548
  146OSM    C1216073   6.878   0.208   6.108 -0.2985  0.3886 -0.0871
  146OSM   H12A16074   6.830   0.282   6.045  0.6543  0.7155 -0.4302
  146OSM   H12B16075   6.828   0.118   6.076 -0.3505  0.1663  0.6021
  146OSM    C1116076   7.022   0.204   6.058 -0.4854 -0.1655  0.2843
  146OSM   H11A16077   7.070   0.305   6.062  0.4659 -0.6654  1.8313
  146OSM   H11B16078   7.011   0.187   5.949 -1.2699  0.5451  0.2452
  146OSM      P16079   7.119  -0.035   6.079  0.3386  0.0647  0.1473
  146OSM    O1316080   7.232  -0.095   6.153 -0.0807 -0.3814  0.2034
  146OSM    O1416081   6.992  -0.108   6.083  0.0834 -0.4735 -0.2529
  146OSM    O1116082   7.158  -0.007   5.930  0.1597 -0.1172  0.2878
  146OSM    O1216083   7.103   0.114   6.128  0.4539 -0.4460 -1.0661
  146OSM    C1S16084   7.271  -0.069   5.865 -0.7765 -0.5586  0.0415
  146OSM    H1S16085   7.242  -0.165   5.818 -1.0042 -0.2519 -0.4380
  146OSM    H1T16086   7.349  -0.096   5.940 -0.4752  1.4357  0.4806
  146OSM     NF16087   7.424  -0.058   5.672 -0.4293 -0.2992  0.4787
  146OSM    HNF16088   7.520  -0.084   5.683  0.1087  0.3102 -2.4158
  146OSM    C2S16089   7.341   0.023   5.763 -0.1603 -0.4546 -0.7310
  146OSM    H2S16090   7.268   0.079   5.701  1.4201  1.4723 -0.9233
  146OSM    C3S16091   7.424   0.128   5.839 -0.2396 -0.0114  0.2485
  146OSM    H3S16092   7.503   0.089   5.907 -1.3639 -0.8314  1.1060
  146OSM     O316093   7.354   0.214   5.938  0.0326  0.4741 -0.2875
  146OSM    HO316094   7.269   0.169   5.938  1.3836 -2.2280 -0.2221
  146OSM    C4S16095   7.506   0.211   5.738 -0.5408  1.1378  0.1534
  146OSM    H4S16096   7.599   0.170   5.695  0.0315  2.2403  0.3313
  146OSM    C5S16097   7.457   0.322   5.681 -0.1250 -0.6955  0.0992
  146OSM    H5S16098   7.366   0.363   5.726 -0.6184 -2.1257  0.4343
  146OSM    C6S16099   7.530   0.386   5.575  0.2002 -0.1488  0.9888
  146OSM    H6S16100   7.639   0.364   5.579  0.6474  1.4021 -1.3117
  146OSM    H6T16101   7.531   0.492   5.608 -2.3934  0.0052  0.6681
  146OSM    C7S16102   7.479   0.372   5.433 -0.2482  0.3452 -0.4106
  146OSM    H7S16103   7.551   0.405   5.354  0.6722 -1.1394 -0.2073
  146OSM    H7T16104   7.384   0.428   5.419 -0.7591 -0.7596 -1.4429
  146OSM    C8S16105   7.429   0.225   5.408 -0.5403 -0.5955 -0.0359
  146OSM    H8S16106   7.325   0.207   5.443 -0.2147 -1.6556  0.3992
  146OSM    H8T16107   7.503   0.161   5.460  1.3126  3.0100  1.9526
  146OSM    C9S16108   7.427   0.190   5.259  0.6146 -0.0425  0.1595
  146OSM    H9S16109   7.373   0.095   5.242 -1.9942  1.7568 -2.1551
  146OSM    H9T16110   7.533   0.187   5.226  0.2385  0.2138 -1.1014
  146OSM   C10S16111   7.345   0.286   5.169 -0.0559 -0.2690  0.1228
  146OSM   H10S16112   7.340   0.388   5.213  0.6749  0.4956 -1.5095
  146OSM   H10T16113   7.242   0.247   5.183  0.2432 -0.6505  1.2918
  146OSM   C11S16114   7.391   0.299   5.024 -0.1405  0.1994  0.4287
  146OSM   H11S16115   7.345   0.379   4.961 -0.1623 -0.5227 -0.4931
  146OSM   H11T16116   7.379   0.201   4.974  0.6324  0.1792  0.2757
  146OSM   C12S16117   7.544   0.337   5.011 -0.2629  0.5702  0.2884
  146OSM   H12S16118   7.606   0.253   5.050  0.8843  2.4394  2.6494
  146OSM   H12T16119   7.564   0.416   5.087 -0.7822  0.4534  0.5513
  146OSM   C13S16120   7.588   0.379   4.871  0.5263 -0.0005 -0.0182
  146OSM   H13S16121   7.695   0.404   4.889  0.4407 -1.1158  2.2528
  146OSM   H13T16122   7.528   0.469   4.844 -0.3742 -0.4852  0.3544
  146OSM   C14S16123   7.569   0.275   4.763 -0.0766 -0.1523 -0.4486
  146OSM   H14S16124   7.471   0.222   4.772  1.4355 -2.8999  0.5567
  146OSM   H14T16125   7.643   0.195   4.784  1.1677  0.7856 -1.2021
  146OSM   C15S16126   7.587   0.341   4.625  0.5701 -0.8871  0.3270
  146OSM   H15S16127   7.667   0.417   4.639 -1.7808  2.0068 -1.4535
  146OSM   H15T16128   7.496   0.404   4.614 -0.1503 -2.0920 -0.7084
  146OSM   C16S16129   7.602   0.239   4.510 -0.5601 -0.0877  0.1522
  146OSM   H16S16130   7.502   0.196   4.492 -1.0262  1.6664 -1.5263
  146OSM   H16T16131   7.659   0.150   4.543  1.2881  1.8041  2.3240
  146OSM   C17S16132   7.660   0.300   4.381 -0.4502  0.1952 -0.3040
  146OSM   H17S16133   7.593   0.379   4.342 -2.1607 -0.8700  0.3907
  146OSM   H17T16134   7.680   0.220   4.307  0.8916 -2.0400  2.3488
  146OSM   C18S16135   7.804   0.360   4.406  0.4456 -0.2141  0.5014
  146OSM   H18S16136   7.816   0.412   4.504  1.7337 -1.9970  1.3039
  146OSM   H18T16137   7.831   0.426   4.320  0.1654  0.2455  0.7617
  146OSM   H18U16138   7.882   0.281   4.408 -0.6501 -1.3068  0.4768
  146OSM    C1F16139   7.376  -0.148   5.590  0.0603  0.4684 -0.4739
  146OSM     OF16140   7.257  -0.169   5.590  0.2289 -0.0416 -0.2062
  146OSM    C2F16141   7.470  -0.220   5.502  0.6250 -0.7329  0.6035
  146OSM    H2F16142   7.432  -0.321   5.473 -0.5022  0.3972 -1.9374
  146OSM    H2G16143   7.574  -0.233   5.538  1.5636  2.1433 -1.0182
  146OSM    C3F16144   7.488  -0.155   5.373  0.2819 -0.1507  0.7214
  146OSM    H3F16145   7.545  -0.060   5.383 -1.0209  1.0097 -2.2673
  146OSM    H3G16146   7.390  -0.126   5.330  0.7599  1.2723  0.5716
  146OSM    C4F16147   7.575  -0.233   5.263 -0.9534 -0.1945 -0.8008
  146OSM    H4F16148   7.531  -0.329   5.229  2.1671 -0.8984 -3.0609
  146OSM    H4G16149   7.674  -0.256   5.307 -2.8522 -1.9582  2.7902
  146OSM    C5F16150   7.588  -0.145   5.137 -0.3233  0.0225  0.5759
  146OSM    H5F16151   7.619  -0.044   5.170 -1.0186  0.9923 -1.6238
  146OSM    H5G16152   7.493  -0.133   5.080  1.6196  3.1608 -2.2293
  146OSM    C6F16153   7.677  -0.206   5.027  0.8125  0.4995 -0.4633
  146OSM    H6F16154   7.625  -0.289   4.974  1.1319  0.9607 -1.5161
  146OSM    H6G16155   7.766  -0.248   5.079 -2.0863 -0.9986  3.4729
  146OSM    C7F16156   7.709  -0.089   4.935 -0.4260 -0.4364 -0.1071
  146OSM    H7F16157   7.759  -0.012   4.996 -1.3542  0.1803 -0.1187
  146OSM    H7G16158   7.620  -0.046   4.884  0.2702 -0.8208 -1.6680
  146OSM    C8F16159   7.816  -0.132   4.828 -0.8832 -0.3028  0.2785
  146OSM    H8F16160   7.914  -0.155   4.876 -0.2033  1.5101 -0.2155
  146OSM    H8G16161   7.833  -0.040   4.768  2.3501 -1.0825 -0.0945
  146OSM    C9F16162   7.789  -0.243   4.727  0.0496  0.2359  1.0728
  146OSM    H9F16163   7.709  -0.303   4.771 -0.5711  1.1932  1.2624
  146OSM   C10F16164   7.851  -0.262   4.605  0.5636  0.3159 -0.0099
  146OSM   H10F16165   7.836  -0.349   4.539  0.5931 -0.0956  0.5176
  146OSM   C11F16166   7.971  -0.182   4.556  0.6172 -0.4124  0.2282
  146OSM   H11F16167   8.063  -0.240   4.534  0.5800  0.0355 -1.1653
  146OSM   H11G16168   8.013  -0.113   4.633  1.2464 -0.9248  0.3505
  146OSM   C12F16169   7.936  -0.109   4.425 -0.3236  0.5896  0.0298
  146OSM   H12F16170   7.877  -0.017   4.444 -2.2396 -0.4720 -0.5568
  146OSM   H12G16171   7.864  -0.167   4.363 -3.8549  1.7878  2.7881
  146OSM   C13F16172   8.064  -0.094   4.341  0.0547  0.4425 -0.2134
  146OSM   H13F16173   8.102  -0.196   4.316  0.9825  0.3323  1.5583
  146OSM   H13G16174   8.136  -0.052   4.414  1.4576 -1.2831 -0.5625
  146OSM   C14F16175   8.035  -0.023   4.217  0.6278  0.9032  0.3917
  146OSM   H14F16176   7.968  -0.084   4.153  0.1783  1.5589  0.2273
  146OSM   H14G16177   7.981   0.072   4.234  1.6335  1.4846  0.3961
  146OSM   C15F16178   8.165   0.031   4.164 -0.2854  0.0136  0.0573
  146OSM   H15F16179   8.238  -0.051   4.178 -1.4525 -0.9003  0.9117
  146OSM   H15G16180   8.196   0.109   4.238 -0.9986  0.9044 -0.5767
  146OSM   C16F16181   8.149   0.077   4.023  0.2060  0.4205 -0.3291
  146OSM   H16F16182   8.099  -0.003   3.965  1.1879 -0.6663  0.3118
  146OSM   H16G16183   8.249   0.092   3.978  0.0108 -0.5954 -1.1206
  146OSM   C17F16184   8.071   0.213   3.996  0.2655  0.9165  0.6269
  146OSM   H17F16185   8.124   0.302   4.037 -0.4348 -0.2330  4.2005
  146OSM   H17G16186   7.975   0.212   4.052 -1.1352  2.0325 -1.6559
  146OSM   C18F16187   8.059   0.236   3.845 -0.2802 -0.0756 -0.5481
  146OSM   H18F16188   7.999   0.329   3.839  1.9806  1.3336 -2.0800
  146OSM   H18G16189   8.002   0.154   3.798  1.7533 -1.5531 -0.4983
  146OSM   H18H16190   8.150   0.261   3.786  0.3999 -2.1434 -0.4075
  147OSM      N16191   3.577   4.365   1.988  0.2851  0.4855 -0.6802
  147OSM    C1516192   3.472   4.285   1.917 -0.4803 -0.2150  0.7493
  147OSM   H15A16193   3.426   4.340   1.836  1.4986 -0.2824 -0.4546
  147OSM   H15B16194   3.404   4.243   1.990 -1.7489  1.2771  0.4459
  147OSM   H15C16195   3.516   4.201   1.865 -0.9765 -1.1011  1.7433
  147OSM    C1416196   3.680   4.420   1.896 -1.1956 -0.3304 -0.4519
  147OSM   H14A16197   3.735   4.345   1.840 -0.1113  0.7572 -0.8642
  147OSM   H14B16198   3.753   4.480   1.948 -1.7376 -1.2655  1.4275
  147OSM   H14C16199   3.640   4.479   1.815  2.3693  2.3554 -0.3787
  147OSM    C1316200   3.509   4.479   2.056 -0.0240  0.2940 -0.5088
  147OSM   H13A16201   3.473   4.552   1.985 -2.2328 -1.9423 -1.7720
  147OSM   H13B16202   3.569   4.532   2.129  0.0636  0.8297 -0.9632
  147OSM   H13C16203   3.425   4.438   2.109  0.5538 -0.3780 -0.1016
  147OSM    C1216204   3.641   4.274   2.099  0.4900 -0.1740 -0.3253
  147OSM   H12A16205   3.567   4.249   2.175 -0.8392  0.8712 -1.2538
  147OSM   H12B16206   3.704   4.342   2.154 -3.6216  2.5667  1.2836
  147OSM    C1116207   3.730   4.158   2.052  0.9457  0.7166 -0.3779
  147OSM   H11A16208   3.781   4.108   2.137 -1.6387  0.7348  1.2603
  147OSM   H11B16209   3.811   4.201   1.989  2.4557  0.7548  1.5500
  147OSM      P16210   3.576   3.943   2.030 -0.5237  0.3942  0.4930
  147OSM    O1316211   3.459   3.929   1.941  0.3001  0.4592  0.1210
  147OSM    O1416212   3.664   3.828   2.050 -0.4306 -0.2295 -0.5212
  147OSM    O1116213   3.525   3.995   2.172  0.8481 -0.6150  0.6727
  147OSM    O1216214   3.660   4.065   1.966  0.1551  0.5678 -0.0234
  147OSM    C1S16215   3.440   3.899   2.247  0.4690  0.2279  0.0387
  147OSM    H1S16216   3.482   3.796   2.250  0.6428  0.3150  0.9964
  147OSM    H1T16217   3.342   3.892   2.196  0.9200  0.1695 -0.8134
  147OSM     NF16218   3.383   3.844   2.473  0.7729  0.0513 -0.1170
  147OSM    HNF16219   3.285   3.836   2.485  0.9871 -1.3685  0.8642
  147OSM    C2S16220   3.435   3.955   2.387 -0.3946 -0.1841  0.4177
  147OSM    H2S16221   3.539   3.984   2.411 -0.3542 -1.1057  1.4208
  147OSM    C3S16222   3.358   4.091   2.387 -0.3939  0.2073 -0.1588
  147OSM    H3S16223   3.267   4.071   2.327  0.9556  0.3111 -2.2821
  147OSM     O316224   3.427   4.187   2.309  0.3689  0.0393 -0.1033
  147OSM    HO316225   3.485   4.135   2.253  0.8326 -0.1347  0.5350
  147OSM    C4S16226   3.335   4.155   2.524  0.1606 -1.2930  0.0057
  147OSM    H4S16227   3.408   4.230   2.559 -2.9400  0.8547  2.2575
  147OSM    C5S16228   3.227   4.122   2.605 -0.0567 -0.0014 -0.1838
  147OSM    H5S16229   3.147   4.058   2.566  0.3054 -0.0842 -0.8005
  147OSM    C6S16230   3.201   4.189   2.739  0.0290  0.2833  0.2297
  147OSM    H6S16231   3.100   4.155   2.770  0.5418 -0.6615  0.8546
  147OSM    H6T16232   3.194   4.300   2.734 -0.9210  0.3363  2.4858
  147OSM    C7S16233   3.293   4.135   2.842  0.0535 -0.1818  0.3370
  147OSM    H7S16234   3.393   4.133   2.795 -0.8988 -1.4811 -1.6802
  147OSM    H7T16235   3.255   4.033   2.864 -1.9801  0.3518 -0.5570
  147OSM    C8S16236   3.286   4.206   2.980 -0.6704  0.1465 -0.3246
  147OSM    H8S16237   3.190   4.198   3.035 -0.8807  0.8124 -0.5833
  147OSM    H8T16238   3.307   4.315   2.969  0.4037 -0.0921 -0.6285
  147OSM    C9S16239   3.393   4.145   3.077 -0.0113  0.4535 -0.3038
  147OSM    H9S16240   3.494   4.172   3.041  0.6187 -1.5240 -0.0307
  147OSM    H9T16241   3.381   4.035   3.086  1.0305  0.0366 -3.4815
  147OSM   C10S16242   3.377   4.207   3.214 -0.4855 -0.0936 -0.3456
  147OSM   H10S16243   3.272   4.201   3.248 -0.0326 -0.0701  1.1097
  147OSM   H10T16244   3.390   4.317   3.205 -1.0794 -0.0367 -0.4917
  147OSM   C11S16245   3.470   4.143   3.323  0.7237  0.7840 -0.2246
  147OSM   H11S16246   3.578   4.168   3.312  0.9021  0.5711  1.0399
  147OSM   H11T16247   3.458   4.033   3.332 -1.6690  0.8681 -1.8961
  147OSM   C12S16248   3.430   4.198   3.464  0.1742 -0.5444 -0.4696
  147OSM   H12S16249   3.324   4.176   3.487  0.2918 -0.1414  0.5062
  147OSM   H12T16250   3.439   4.308   3.455 -1.4502 -0.2930  0.8515
  147OSM   C13S16251   3.521   4.140   3.569  0.4314 -0.0104 -0.2183
  147OSM   H13S16252   3.549   4.212   3.650 -0.7266 -3.2153  3.1873
  147OSM   H13T16253   3.613   4.099   3.524  1.4847 -0.9963  2.6839
  147OSM   C14S16254   3.467   4.016   3.651  0.7941  0.1361  0.3795
  147OSM   H14S16255   3.418   3.956   3.571 -0.1085 -1.4159  2.0819
  147OSM   H14T16256   3.384   4.048   3.717  1.3230  2.2275  0.0681
  147OSM   C15S16257   3.564   3.927   3.724  0.5164 -0.2388  0.2833
  147OSM   H15S16258   3.632   3.892   3.643 -1.2947 -0.5410 -1.1246
  147OSM   H15T16259   3.508   3.842   3.768  1.5526 -1.2158 -0.2537
  147OSM   C16S16260   3.639   4.000   3.839 -0.2095  0.6025  0.0926
  147OSM   H16S16261   3.691   4.086   3.790  2.2464 -0.6295  0.4618
  147OSM   H16T16262   3.715   3.928   3.876 -2.5158 -0.3977  3.0125
  147OSM   C17S16263   3.561   4.046   3.959  0.4847 -0.2535  0.4902
  147OSM   H17S16264   3.515   3.963   4.017  0.7318 -0.2105  0.7498
  147OSM   H17T16265   3.480   4.108   3.916  1.3464  0.1566 -0.5640
  147OSM   C18S16266   3.639   4.133   4.055 -0.0277 -0.3897  0.0564
  147OSM   H18S16267   3.675   4.229   4.010 -0.8593 -0.1171 -0.0263
  147OSM   H18T16268   3.735   4.085   4.083 -1.5638 -2.8625  1.2138
  147OSM   H18U16269   3.581   4.163   4.145  1.0842  0.7304  0.4171
  147OSM    C1F16270   3.457   3.734   2.498  0.4187 -0.7079 -0.1793
  147OSM     OF16271   3.571   3.721   2.468  0.7444 -0.4606  0.5069
  147OSM    C2F16272   3.390   3.620   2.566 -0.7508 -0.3002  0.1250
  147OSM    H2F16273   3.413   3.529   2.505  2.3498  0.8929 -0.5581
  147OSM    H2G16274   3.281   3.642   2.561 -1.0400 -1.8078 -0.6111
  147OSM    C3F16275   3.424   3.587   2.706  0.0606  0.0107 -1.1222
  147OSM    H3F16276   3.379   3.653   2.783 -2.8946  1.3142 -3.8337
  147OSM    H3G16277   3.535   3.596   2.717  0.3732 -4.3573  0.2155
  147OSM    C4F16278   3.384   3.448   2.754  0.2694 -0.4530 -0.7219
  147OSM    H4F16279   3.429   3.380   2.679 -0.6750 -0.2500 -1.4721
  147OSM    H4G16280   3.274   3.434   2.747  0.0726 -0.3421  1.8437
  147OSM    C5F16281   3.439   3.420   2.899  0.1379 -0.6845 -0.2868
  147OSM    H5F16282   3.550   3.422   2.898  0.1627 -1.3686 -2.3361
  147OSM    H5G16283   3.417   3.318   2.936  0.6134 -0.3518  0.9358
  147OSM    C6F16284   3.395   3.526   2.998  0.2987  0.9990 -0.2408
  147OSM    H6F16285   3.284   3.521   2.993  0.0517 -0.5841  4.7546
  147OSM    H6G16286   3.435   3.629   2.988 -0.5285  1.2771 -0.7403
  147OSM    C7F16287   3.418   3.492   3.142 -0.2177  0.2376 -0.2910
  147OSM    H7F16288   3.527   3.482   3.161 -0.3472 -4.0454 -1.3157
  147OSM    H7G16289   3.372   3.392   3.157  0.5667 -0.0698  0.0994
  147OSM    C8F16290   3.341   3.575   3.250 -0.2896  0.4981  0.0491
  147OSM    H8F16291   3.373   3.680   3.232 -0.1189  0.3276 -0.6737
  147OSM    H8G16292   3.382   3.527   3.341  2.2735  0.0401 -1.2809
  147OSM    C9F16293   3.196   3.553   3.260 -0.3296 -0.4096  0.0196
  147OSM    H9F16294   3.163   3.449   3.274  1.0855 -1.0718 -1.3549
  147OSM   C10F16295   3.101   3.648   3.256 -0.5544  0.1398 -0.1968
  147OSM   H10F16296   2.996   3.619   3.267 -0.6014  1.1202  2.3629
  147OSM   C11F16297   3.126   3.793   3.244 -0.2710  0.4124  0.3610
  147OSM   H11F16298   3.152   3.814   3.138  2.3752 -0.2312  0.8362
  147OSM   H11G16299   3.224   3.829   3.282  0.9737 -0.0370 -2.3017
  147OSM   C12F16300   3.018   3.894   3.290  0.2716 -0.3257 -0.3625
  147OSM   H12F16301   2.917   3.870   3.252  0.9862  1.1746 -3.3329
  147OSM   H12G16302   3.040   3.991   3.242 -0.4392 -0.4716 -0.9994
  147OSM   C13F16303   3.008   3.894   3.441  0.0740 -0.3723  0.1955
  147OSM   H13F16304   3.105   3.928   3.483  0.7630  0.7195 -2.2283
  147OSM   H13G16305   2.984   3.796   3.488 -1.2201 -0.7339 -1.1669
  147OSM   C14F16306   2.900   3.991   3.479  0.0689  0.4823  0.2238
  147OSM   H14F16307   2.805   3.967   3.425  0.6206 -0.9364 -0.1561
  147OSM   H14G16308   2.924   4.093   3.443  0.9532 -0.5562 -2.2441
  147OSM   C15F16309   2.880   3.980   3.634  0.3352 -0.0547 -0.4515
  147OSM   H15F16310   2.841   3.882   3.672 -1.3821  0.5457 -0.6022
  147OSM   H15G16311   2.801   4.055   3.659 -0.7430 -0.8568 -1.4071
  147OSM   C16F16312   2.998   4.011   3.724 -0.5427 -0.0875 -0.5670
  147OSM   H16F16313   3.088   3.952   3.697  0.6265  1.2639  0.2907
  147OSM   H16G16314   2.970   3.986   3.829  1.7501 -2.2597 -0.4385
  147OSM   C17F16315   3.053   4.155   3.710 -0.6875 -0.6480 -0.0985
  147OSM   H17F16316   2.977   4.236   3.709  1.9203  1.8773  0.4795
  147OSM   H17G16317   3.097   4.164   3.608 -1.4783  0.4113 -0.3587
  147OSM   C18F16318   3.149   4.195   3.818  0.4381 -1.3318 -0.4613
  147OSM   H18F16319   3.211   4.285   3.800  0.3117 -0.5891  2.4205
  147OSM   H18G16320   3.216   4.107   3.834 -0.3022 -1.6092  1.2248
  147OSM   H18H16321   3.105   4.211   3.919  2.2288 -0.1405  0.1456
  148OSM      N16322   3.317   2.388   1.715  0.1240 -0.0113  0.6032
  148OSM    C1516323   3.353   2.245   1.705 -0.0330 -0.0280  0.2046
  148OSM   H15A16324   3.273   2.172   1.705  0.7594 -0.9006 -0.1596
  148OSM   H15B16325   3.430   2.228   1.779  1.7798 -0.0406 -1.6213
  148OSM   H15C16326   3.411   2.225   1.616  0.2387 -3.4241  1.0761
  148OSM    C1416327   3.437   2.478   1.709  0.5720  0.0661  0.3181
  148OSM   H14A16328   3.510   2.439   1.779  1.0381  0.5041  0.0789
  148OSM   H14B16329   3.418   2.580   1.737  0.1472 -0.1777  0.9525
  148OSM   H14C16330   3.485   2.474   1.613  0.5754 -0.2506  0.3318
  148OSM    C1316331   3.238   2.416   1.588 -0.1349  0.2727 -0.2705
  148OSM   H13A16332   3.307   2.435   1.507 -1.1595 -2.4558 -1.8300
  148OSM   H13B16333   3.181   2.505   1.613  0.0918  0.6142 -0.9563
  148OSM   H13C16334   3.166   2.339   1.566 -0.8456  0.3419  1.7049
  148OSM    C1216335   3.233   2.399   1.840 -0.1092  0.4786  0.0804
  148OSM   H12A16336   3.288   2.384   1.932 -0.0317 -1.1446 -0.2250
  148OSM   H12B16337   3.154   2.326   1.847  0.4307 -0.0320  0.9503
  148OSM    C1116338   3.172   2.540   1.865  0.1110 -0.0800 -0.6782
  148OSM   H11A16339   3.132   2.532   1.968  0.7215  1.4418 -0.3104
  148OSM   H11B16340   3.095   2.552   1.785 -0.8612 -1.5167  0.0214
  148OSM      P16341   3.268   2.767   1.947 -0.3657 -0.0249 -0.5787
  148OSM    O1316342   3.369   2.757   2.056 -0.3597  0.2922 -0.0142
  148OSM    O1416343   3.274   2.886   1.859 -0.5925  0.2137 -0.0190
  148OSM    O1116344   3.125   2.765   2.010  0.4000 -0.0728 -0.5509
  148OSM    O1216345   3.273   2.636   1.854 -0.3602  0.8869  0.0718
  148OSM    C1S16346   3.014   2.819   1.938  0.3242 -0.0767 -0.0008
  148OSM    H1S16347   3.011   2.791   1.831 -2.1441 -1.2673  0.3512
  148OSM    H1T16348   3.006   2.928   1.957  2.7613  0.0296  0.5693
  148OSM     NF16349   2.880   2.810   2.142  0.3029  0.0377 -0.1672
  148OSM    HNF16350   2.950   2.774   2.202 -1.0141  1.9621  2.6174
  148OSM    C2S16351   2.881   2.773   2.003  0.1360 -0.4894 -0.4360
  148OSM    H2S16352   2.797   2.823   1.949  0.4454  0.2695 -0.2192
  148OSM    C3S16353   2.852   2.624   1.982  0.0012  0.4818 -0.6302
  148OSM    H3S16354   2.938   2.561   2.011  0.0088  0.9541  0.3701
  148OSM     O316355   2.824   2.582   1.845 -0.0572 -0.3911  0.3768
  148OSM    HO316356   2.843   2.668   1.806  1.3276  0.0050  1.8605
  148OSM    C4S16357   2.727   2.577   2.049  0.1048 -0.3413 -0.8937
  148OSM    H4S16358   2.634   2.628   2.021 -1.2848 -2.2937  0.0437
  148OSM    C5S16359   2.734   2.474   2.146 -0.7741 -0.1939  0.3730
  148OSM    H5S16360   2.830   2.435   2.182 -0.2824  0.9596  0.3124
  148OSM    C6S16361   2.614   2.427   2.223 -0.4722  0.5490 -0.1863
  148OSM    H6S16362   2.604   2.318   2.203  2.5827  0.4493 -1.3099
  148OSM    H6T16363   2.525   2.482   2.184 -0.3418  1.1266  0.3296
  148OSM    C7S16364   2.640   2.457   2.376  0.7149  0.1457 -0.0060
  148OSM    H7S16365   2.638   2.567   2.392  0.7139  0.2317 -0.5581
  148OSM    H7T16366   2.743   2.420   2.397  0.5974 -0.5365 -0.5975
  148OSM    C8S16367   2.533   2.388   2.462  0.0713 -0.4599 -0.1090
  148OSM    H8S16368   2.538   2.277   2.454  1.7433 -0.2124 -3.1184
  148OSM    H8T16369   2.437   2.431   2.424  0.9696  1.7755  0.0788
  148OSM    C9S16370   2.562   2.410   2.611 -0.1843  0.1565  0.3911
  148OSM    H9S16371   2.481   2.369   2.674 -0.7760  0.3310 -0.2539
  148OSM    H9T16372   2.571   2.521   2.623  0.6250  0.3729 -1.8244
  148OSM   C10S16373   2.686   2.336   2.666  0.5445  0.1653  1.2838
  148OSM   H10S16374   2.771   2.359   2.598 -0.8372 -1.2807 -0.9793
  148OSM   H10T16375   2.656   2.231   2.648 -2.1038  1.0721  0.2670
  148OSM   C11S16376   2.716   2.365   2.809 -0.3228  0.1807  0.4578
  148OSM   H11S16377   2.785   2.452   2.817  2.0091 -1.7117  1.7608
  148OSM   H11T16378   2.780   2.283   2.850 -1.8202 -1.7617 -0.9983
  148OSM   C12S16379   2.603   2.380   2.918 -0.3721 -0.1713  0.3456
  148OSM   H12S16380   2.535   2.296   2.894  1.9002 -2.4412  1.5746
  148OSM   H12T16381   2.560   2.482   2.917 -0.1887 -0.1051 -0.8338
  148OSM   C13S16382   2.661   2.362   3.062  0.0649 -0.0045  0.1320
  148OSM   H13S16383   2.746   2.431   3.078  0.1748  0.1344 -1.0188
  148OSM   H13T16384   2.702   2.260   3.080 -0.6242 -0.2736  0.2165
  148OSM   C14S16385   2.550   2.386   3.164  0.6857  0.0689  0.4496
  148OSM   H14S16386   2.487   2.294   3.156  0.7321 -0.0051  0.8954
  148OSM   H14T16387   2.474   2.464   3.141  2.5942  1.2100 -2.2695
  148OSM   C15S16388   2.597   2.420   3.309 -0.6554  0.1746 -0.0174
  148OSM   H15S16389   2.642   2.522   3.311  0.3351 -0.2755  0.8978
  148OSM   H15T16390   2.676   2.345   3.329 -0.3279  0.7541  0.8703
  148OSM   C16S16391   2.479   2.407   3.408  0.5267  0.0400 -0.2423
  148OSM   H16S16392   2.417   2.315   3.398 -1.5237  1.2756  0.7796
  148OSM   H16T16393   2.410   2.482   3.365  1.6082  0.4513 -1.2982
  148OSM   C17S16394   2.530   2.422   3.554  0.2814 -1.0900  0.9209
  148OSM   H17S16395   2.608   2.501   3.553 -1.0951  0.3164 -1.1890
  148OSM   H17T16396   2.582   2.328   3.582 -1.4639 -1.8372  1.7106
  148OSM   C18S16397   2.426   2.457   3.661  0.6101  0.6220 -0.3522
  148OSM   H18S16398   2.379   2.358   3.684 -0.8314  0.9507 -1.8148
  148OSM   H18T16399   2.352   2.530   3.622 -1.4691 -1.4889 -0.4666
  148OSM   H18U16400   2.468   2.505   3.752  0.4997 -0.0200  0.0455
  148OSM    C1F16401   2.851   2.936   2.178 -0.5452 -0.0890 -0.0521
  148OSM     OF16402   2.796   3.014   2.099 -0.0105 -0.3878 -0.2437
  148OSM    C2F16403   2.885   2.981   2.311 -0.9692  0.1309  0.5049
  148OSM    H2F16404   2.843   2.904   2.379 -1.1645 -2.3513 -2.3242
  148OSM    H2G16405   2.826   3.070   2.343 -2.2928 -1.5535  2.9224
  148OSM    C3F16406   3.039   3.002   2.353  1.1514  0.0135 -0.0054
  148OSM    H3F16407   3.095   3.052   2.270  0.7176  0.7195  0.1325
  148OSM    H3G16408   3.082   2.899   2.358  0.9382 -0.0720  0.0448
  148OSM    C4F16409   3.047   3.059   2.493 -0.6748  0.3917 -0.3101
  148OSM    H4F16410   2.994   2.981   2.551 -2.2052  2.0752  0.6018
  148OSM    H4G16411   3.003   3.160   2.508  0.1569  0.8759 -1.0813
  148OSM    C5F16412   3.196   3.074   2.546  0.2550 -0.5289 -0.2724
  148OSM    H5F16413   3.252   3.126   2.465 -1.5956 -0.8183 -1.7689
  148OSM    H5G16414   3.242   2.973   2.554  2.2581  0.1991 -1.8548
  148OSM    C6F16415   3.214   3.142   2.687 -0.2234  0.0535  0.1587
  148OSM    H6F16416   3.178   3.247   2.689  0.1930  0.3219 -3.0499
  148OSM    H6G16417   3.319   3.136   2.721  0.1997  0.2272 -1.0905
  148OSM    C7F16418   3.133   3.066   2.788 -0.1775  0.3211 -0.1063
  148OSM    H7F16419   3.151   2.957   2.778  1.0127  0.4800  0.2371
  148OSM    H7G16420   3.029   3.090   2.757  0.2325  0.4161 -1.4089
  148OSM    C8F16421   3.141   3.118   2.934 -0.3785  0.6511 -0.0965
  148OSM    H8F16422   3.244   3.138   2.969  0.6666 -2.3064 -1.3105
  148OSM    H8G16423   3.108   3.032   2.996  0.2914  0.7561  0.3969
  148OSM    C9F16424   3.059   3.245   2.962 -0.4913  0.1742  0.3097
  148OSM    H9F16425   3.095   3.329   2.901  1.9955 -1.3092 -0.3749
  148OSM   C10F16426   2.958   3.256   3.047  0.4140 -0.0228 -0.8361
  148OSM   H10F16427   2.906   3.353   3.053 -0.1613 -0.2631 -1.8669
  148OSM   C11F16428   2.903   3.149   3.135  0.2702  0.0782  0.0797
  148OSM   H11F16429   2.924   3.044   3.105  0.4821 -0.0722  0.7481
  148OSM   H11G16430   2.792   3.157   3.136  0.0714 -2.0075 -1.4475
  148OSM   C12F16431   2.943   3.172   3.281  0.0008 -0.2393 -0.7314
  148OSM   H12F16432   2.884   3.113   3.355 -0.9352 -1.4169 -2.3823
  148OSM   H12G16433   2.921   3.278   3.307 -0.0306 -0.7176  1.2980
  148OSM   C13F16434   3.094   3.138   3.299  0.0415 -0.8365 -0.4110
  148OSM   H13F16435   3.153   3.189   3.220  0.2990 -0.4183  0.0431
  148OSM   H13G16436   3.108   3.030   3.277  2.5715 -0.3131 -1.5368
  148OSM   C14F16437   3.157   3.167   3.431  0.5263 -0.3966 -0.3633
  148OSM   H14F16438   3.195   3.270   3.449  0.3684  0.2205 -3.3606
  148OSM   H14G16439   3.249   3.106   3.431  0.0408 -1.1455  1.2974
  148OSM   C15F16440   3.074   3.112   3.542 -0.1321  0.3255 -0.1759
  148OSM   H15F16441   3.054   3.009   3.505  2.5944 -0.4743  0.4795
  148OSM   H15G16442   2.974   3.155   3.564  0.9574  2.2025  1.1631
  148OSM   C16F16443   3.153   3.104   3.675 -0.0516  0.3119 -0.5338
  148OSM   H16F16444   3.174   3.205   3.717 -1.6267  0.1043  0.7889
  148OSM   H16G16445   3.250   3.052   3.660 -0.7763 -1.0983 -0.3960
  148OSM   C17F16446   3.070   3.033   3.790 -0.2803 -0.2964  0.1084
  148OSM   H17F16447   3.032   2.934   3.758 -0.2562  0.2003 -1.5259
  148OSM   H17G16448   2.979   3.098   3.792 -0.5170 -0.6658  1.7950
  148OSM   C18F16449   3.144   3.022   3.920  0.4811  0.0577  0.4754
  148OSM   H18F16450   3.202   3.113   3.947  1.5648 -1.3578  3.0768
  148OSM   H18G16451   3.218   2.940   3.920 -0.5466 -0.8951  0.8235
  148OSM   H18H16452   3.071   3.005   4.003  0.1039 -0.2420  0.0861
  149OSM      N16453   4.403   2.155   1.548  0.4816  0.1616  0.1637
  149OSM    C1516454   4.542   2.155   1.490 -0.3627 -0.1170 -0.3766
  149OSM   H15A16455   4.608   2.188   1.569  2.6284 -1.6213 -2.1664
  149OSM   H15B16456   4.548   2.230   1.413  0.6917 -1.3825 -1.5377
  149OSM   H15C16457   4.573   2.057   1.457 -1.5933 -0.5586 -0.2593
  149OSM    C1416458   4.359   2.295   1.569 -0.3840 -0.4882 -0.4641
  149OSM   H14A16459   4.397   2.342   1.659 -0.6326 -0.2804 -0.4693
  149OSM   H14B16460   4.252   2.308   1.577 -0.6062 -2.8434  0.8266
  149OSM   H14C16461   4.392   2.356   1.487 -0.0258 -1.8478 -1.3447
  149OSM    C1316462   4.310   2.094   1.446 -0.4535 -0.4683  0.2586
  149OSM   H13A16463   4.292   2.173   1.374 -0.1785  0.4446  1.1792
  149OSM   H13B16464   4.213   2.075   1.489 -0.0603 -1.5922  0.6518
  149OSM   H13C16465   4.347   2.002   1.404 -0.8017  0.3117 -1.8130
  149OSM    C1216466   4.401   2.073   1.678  0.4821  0.0584 -0.4632
  149OSM   H12A16467   4.420   1.970   1.650 -0.9943 -0.3045 -0.1788
  149OSM   H12B16468   4.300   2.063   1.713  0.4388 -0.1109 -0.6357
  149OSM    C1116469   4.476   2.134   1.799  0.2264 -0.2627  0.2410
  149OSM   H11A16470   4.582   2.148   1.768  0.3546  0.9909  1.2089
  149OSM   H11B16471   4.490   2.056   1.877  2.9249  2.3129  2.4401
  149OSM      P16472   4.329   2.288   1.947  0.0625  0.5638 -0.0902
  149OSM    O1316473   4.319   2.434   1.959 -0.5081  0.1090 -0.0365
  149OSM    O1416474   4.205   2.224   1.911 -0.0954 -0.3052  0.1732
  149OSM    O1116475   4.384   2.228   2.085 -0.1271  0.2438  0.3816
  149OSM    O1216476   4.438   2.263   1.838 -0.5220  0.4360  0.0442
  149OSM    C1S16477   4.483   2.296   2.171 -0.3307  0.2282  0.4196
  149OSM    H1S16478   4.474   2.406   2.165  1.9026  0.3945 -0.3001
  149OSM    H1T16479   4.584   2.286   2.126 -0.5698  1.1510 -0.3439
  149OSM     NF16480   4.526   2.361   2.406  0.3277  0.2123 -0.1773
  149OSM    HNF16481   4.598   2.334   2.469  1.0371 -1.7690 -1.8033
  149OSM    C2S16482   4.460   2.261   2.322 -0.4114  0.1201  0.4093
  149OSM    H2S16483   4.351   2.272   2.342 -0.5261  1.4246 -0.8804
  149OSM    C3S16484   4.492   2.114   2.348  0.0132 -0.7586  0.4250
  149OSM    H3S16485   4.595   2.088   2.313  0.9494  1.9069  1.0465
  149OSM     O316486   4.419   2.023   2.267 -0.2199  0.1650  0.2671
  149OSM    HO316487   4.389   2.072   2.190 -1.6963  0.1299  0.7967
  149OSM    C4S16488   4.486   2.095   2.505  0.5933 -0.8300  0.0990
  149OSM    H4S16489   4.580   2.122   2.556  0.2320 -0.5808  0.6354
  149OSM    C5S16490   4.370   2.065   2.565  0.0347  0.2951 -0.3735
  149OSM    H5S16491   4.287   2.042   2.496  0.6564 -0.8730 -0.7419
  149OSM    C6S16492   4.351   2.036   2.715  0.0085  0.3366 -0.0637
  149OSM    H6S16493   4.264   1.968   2.727 -0.0381  0.5919  1.1670
  149OSM    H6T16494   4.326   2.131   2.766  0.6903  0.4487  0.0764
  149OSM    C7S16495   4.465   1.980   2.789  0.1061 -0.1622 -0.4428
  149OSM    H7S16496   4.536   2.062   2.815 -2.3009  1.4275  1.4060
  149OSM    H7T16497   4.524   1.907   2.729  0.1250 -0.4417 -0.0848
  149OSM    C8S16498   4.439   1.919   2.929 -0.4438 -0.3635  0.3170
  149OSM    H8S16499   4.384   1.995   2.989  0.9229  1.6785 -0.9462
  149OSM    H8T16500   4.534   1.914   2.987 -0.6924  0.2455  0.7783
  149OSM    C9S16501   4.364   1.785   2.927 -0.0375  0.4682  0.5508
  149OSM    H9S16502   4.416   1.709   2.865 -3.3384 -1.2764 -0.1963
  149OSM    H9T16503   4.263   1.794   2.883  0.2183  1.2992  0.1302
  149OSM   C10S16504   4.350   1.722   3.072 -0.5336  0.2690 -0.1428
  149OSM   H10S16505   4.450   1.689   3.109 -0.4952  1.8987  1.2301
  149OSM   H10T16506   4.298   1.625   3.058 -0.1199  0.2076 -1.4148
  149OSM   C11S16507   4.277   1.806   3.174  0.7251 -0.2479  0.4018
  149OSM   H11S16508   4.176   1.817   3.129  0.8459  2.0803  0.6836
  149OSM   H11T16509   4.314   1.910   3.181  0.9582 -0.3841  1.2039
  149OSM   C12S16510   4.272   1.739   3.315  0.0899 -0.6264  0.3389
  149OSM   H12S16511   4.371   1.761   3.360  0.1183 -1.1932  0.5539
  149OSM   H12T16512   4.259   1.630   3.299  2.0454 -0.6950 -1.0438
  149OSM   C13S16513   4.159   1.800   3.393  0.1907  0.1431  0.2521
  149OSM   H13S16514   4.102   1.868   3.326 -0.5758 -1.2762 -0.5581
  149OSM   H13T16515   4.193   1.871   3.471 -2.3097  3.4902 -1.5973
  149OSM   C14S16516   4.075   1.689   3.454  0.7179  0.2914 -0.2665
  149OSM   H14S16517   4.142   1.639   3.526 -1.7297 -1.3233  0.9700
  149OSM   H14T16518   4.046   1.616   3.376  0.3281  0.9005 -0.7028
  149OSM   C15S16519   3.953   1.731   3.547 -0.2358  0.6214  0.1122
  149OSM   H15S16520   3.891   1.804   3.492  0.1095  0.8914  0.0767
  149OSM   H15T16521   3.999   1.779   3.636  1.2341  0.1660 -0.3920
  149OSM   C16S16522   3.864   1.608   3.588 -0.7564  0.2002 -0.2456
  149OSM   H16S16523   3.912   1.552   3.671 -0.9806 -1.0316 -0.9349
  149OSM   H16T16524   3.858   1.537   3.504  0.6451  0.0410 -0.2316
  149OSM   C17S16525   3.724   1.664   3.629 -0.2780  0.0478 -0.0220
  149OSM   H17S16526   3.672   1.698   3.537 -1.0962 -3.3920 -0.9321
  149OSM   H17T16527   3.736   1.756   3.690 -0.4214  2.4832 -3.5007
  149OSM   C18S16528   3.624   1.563   3.690 -0.0901  0.5616 -0.0275
  149OSM   H18S16529   3.601   1.482   3.618  1.3073  1.0599 -1.0477
  149OSM   H18T16530   3.529   1.613   3.718 -0.1956 -0.0577  0.7330
  149OSM   H18U16531   3.656   1.525   3.789 -1.2565  0.1745  0.2082
  149OSM    C1F16532   4.489   2.491   2.411 -0.6600 -0.7645  0.1483
  149OSM     OF16533   4.377   2.523   2.386  1.0068  0.5354  0.6316
  149OSM    C2F16534   4.592   2.585   2.441  0.7007 -0.4172 -0.0698
  149OSM    H2F16535   4.643   2.606   2.345  0.8849  3.1457  0.7351
  149OSM    H2G16536   4.663   2.537   2.512  1.8360  1.0812 -0.1474
  149OSM    C3F16537   4.535   2.718   2.501 -0.0514 -0.3815 -0.4141
  149OSM    H3F16538   4.466   2.767   2.429 -0.2287 -0.1361 -0.0779
  149OSM    H3G16539   4.616   2.793   2.515 -1.8531  1.2079  1.9510
  149OSM    C4F16540   4.456   2.690   2.629  0.2057  0.7736  0.0569
  149OSM    H4F16541   4.366   2.624   2.626  2.3040 -2.3439  2.1008
  149OSM    H4G16542   4.425   2.791   2.661  2.3754  2.1046 -1.8732
  149OSM    C5F16543   4.537   2.645   2.755  0.4636 -0.6519 -0.6574
  149OSM    H5F16544   4.624   2.712   2.771 -1.5786  1.6107  1.2666
  149OSM    H5G16545   4.565   2.539   2.737 -2.5502 -1.3870 -1.3129
  149OSM    C6F16546   4.451   2.652   2.886  0.1822  0.3794  0.1392
  149OSM    H6F16547   4.356   2.597   2.865  0.4377 -0.1449  0.3550
  149OSM    H6G16548   4.414   2.754   2.909 -1.8321 -0.7415  2.2313
  149OSM    C7F16549   4.518   2.638   3.020 -0.1244  0.6180 -0.9508
  149OSM    H7F16550   4.441   2.662   3.097  1.2345  1.6357  0.1225
  149OSM    H7G16551   4.600   2.708   3.047 -1.0117  1.3429 -0.1405
  149OSM    C8F16552   4.570   2.496   3.050  0.3024 -0.0917  0.3624
  149OSM    H8F16553   4.591   2.493   3.160  0.4939 -0.5103  0.3160
  149OSM    H8G16554   4.669   2.482   3.002 -1.2878 -1.9395 -2.5364
  149OSM    C9F16555   4.482   2.386   2.998  0.1066 -0.5392  0.0752
  149OSM    H9F16556   4.481   2.357   2.891  0.3573 -2.9142  0.6768
  149OSM   C10F16557   4.408   2.301   3.077 -0.0386  0.1107 -0.0286
  149OSM   H10F16558   4.346   2.218   3.038 -0.1052 -1.0441  2.4393
  149OSM   C11F16559   4.412   2.305   3.224 -0.8418 -0.4544  0.7305
  149OSM   H11F16560   4.309   2.299   3.265 -0.3549 -1.5044  1.8376
  149OSM   H11G16561   4.461   2.394   3.269  1.9404 -1.0552 -0.9840
  149OSM   C12F16562   4.467   2.178   3.276  0.1725  0.1230 -0.9005
  149OSM   H12F16563   4.556   2.133   3.227 -0.2770 -1.0424 -0.6720
  149OSM   H12G16564   4.392   2.098   3.260  0.8177 -0.6677 -0.0189
  149OSM   C13F16565   4.519   2.171   3.424  0.3634 -0.0164  0.0672
  149OSM   H13F16566   4.441   2.218   3.488  2.0939  0.4291  1.8718
  149OSM   H13G16567   4.606   2.237   3.443  0.2701  0.0125  0.3953
  149OSM   C14F16568   4.561   2.029   3.477 -0.1956  0.2409  0.1208
  149OSM   H14F16569   4.623   1.974   3.403  1.7623  3.5256 -0.7946
  149OSM   H14G16570   4.468   1.968   3.487  0.4965 -1.3265 -2.3730
  149OSM   C15F16571   4.628   2.025   3.613  0.1894  0.2208  0.0798
  149OSM   H15F16572   4.563   2.068   3.692  2.4737  2.5923  0.7763
  149OSM   H15G16573   4.710   2.099   3.602  0.6229 -0.1938  0.5024
  149OSM   C16F16574   4.694   1.889   3.653 -0.0516  1.2284 -1.1484
  149OSM   H16F16575   4.790   1.884   3.598  1.1225 -1.3738  1.0300
  149OSM   H16G16576   4.623   1.813   3.615  0.6398 -0.5612  1.0414
  149OSM   C17F16577   4.714   1.856   3.796  0.4498 -0.5842 -0.0565
  149OSM   H17F16578   4.630   1.799   3.842 -2.0092  1.7981 -1.4396
  149OSM   H17G16579   4.718   1.944   3.864  0.1512 -2.7231  2.8556
  149OSM   C18F16580   4.842   1.778   3.821  0.2650  0.0842  0.0398
  149OSM   H18F16581   4.874   1.792   3.926  0.5685  1.3738 -0.2095
  149OSM   H18G16582   4.925   1.817   3.757  0.8664  0.1032  0.8232
  149OSM   H18H16583   4.825   1.671   3.797  1.5988 -0.2561  0.5984
  150OSM      N16584   2.291   4.303   1.620 -0.0259  0.5353 -0.1676
  150OSM    C1516585   2.319   4.335   1.483 -0.2163 -0.5137  0.3802
  150OSM   H15A16586   2.406   4.281   1.448 -0.1967 -0.9816  1.1465
  150OSM   H15B16587   2.345   4.439   1.490 -0.4126 -0.4675  0.4126
  150OSM   H15C16588   2.237   4.334   1.412  0.5519 -1.3506 -0.5253
  150OSM    C1416589   2.217   4.165   1.613 -0.1592 -0.0048 -0.2787
  150OSM   H14A16590   2.125   4.179   1.558  1.6199  2.7346 -2.6783
  150OSM   H14B16591   2.207   4.128   1.714 -1.1723 -0.8092 -0.6615
  150OSM   H14C16592   2.276   4.095   1.555  1.4879 -1.2141  2.7698
  150OSM    C1316593   2.413   4.288   1.701 -0.0377  0.2853 -0.8435
  150OSM   H13A16594   2.394   4.268   1.806  1.6802  1.1923 -0.3385
  150OSM   H13B16595   2.470   4.380   1.697 -0.4562  0.5726 -0.2847
  150OSM   H13C16596   2.474   4.214   1.653 -0.8425 -0.7387 -0.3046
  150OSM    C1216597   2.198   4.410   1.684 -0.0712 -0.8177  0.1538
  150OSM   H12A16598   2.265   4.491   1.709 -1.0075 -0.1070  0.4097
  150OSM   H12B16599   2.167   4.378   1.782  1.8038  1.6713  1.6134
  150OSM    C1116600   2.077   4.452   1.599 -0.2977  0.1219  0.5087
  150OSM   H11A16601   2.110   4.491   1.501  0.6113 -0.2838  0.6546
  150OSM   H11B16602   2.020   4.538   1.642  1.5039  2.5969 -1.9570
  150OSM      P16603   1.895   4.278   1.687  0.1186 -0.1101  0.0704
  150OSM    O1316604   1.767   4.340   1.650 -0.7955 -0.1624  0.1192
  150OSM    O1416605   1.904   4.132   1.695  0.0693 -0.1707 -0.2392
  150OSM    O1116606   1.940   4.342   1.823 -0.4025 -0.2234 -0.3931
  150OSM    O1216607   1.997   4.334   1.584 -0.3838  0.0539 -0.2278
  150OSM    C1S16608   1.959   4.261   1.948 -0.2250  0.5557  0.4862
  150OSM    H1S16609   2.069   4.245   1.954 -0.0988  0.9186 -0.7402
  150OSM    H1T16610   1.914   4.159   1.952 -0.3138  0.6296  1.5698
  150OSM     NF16611   1.986   4.272   2.197  0.0230 -0.2017 -0.3775
  150OSM    HNF16612   1.944   4.194   2.242 -1.2170  0.2140 -0.7991
  150OSM    C2S16613   1.911   4.328   2.084 -0.6773 -0.0421  0.2904
  150OSM    H2S16614   1.937   4.435   2.068 -1.0964  0.2338  1.4592
  150OSM    C3S16615   1.753   4.321   2.083  0.1325  0.3753 -0.6148
  150OSM    H3S16616   1.706   4.226   2.113  0.3187  0.2866 -0.6053
  150OSM     O316617   1.696   4.370   1.963 -0.4302 -0.0360  0.5998
  150OSM    HO316618   1.770   4.381   1.903 -1.7469 -0.6014 -1.1817
  150OSM    C4S16619   1.708   4.407   2.200 -0.8759  0.0956 -0.7882
  150OSM    H4S16620   1.664   4.351   2.284  1.5674  0.3704  0.6876
  150OSM    C5S16621   1.710   4.546   2.216 -0.0128 -0.3309  0.5150
  150OSM    H5S16622   1.755   4.614   2.141 -1.7782 -2.2241 -2.3630
  150OSM    C6S16623   1.658   4.618   2.332  0.0686  0.0814 -0.2982
  150OSM    H6S16624   1.669   4.725   2.304  2.6051  0.0651  0.5258
  150OSM    H6T16625   1.723   4.598   2.420  1.9918 -0.9231 -1.9114
  150OSM    C7S16626   1.512   4.581   2.372 -0.0310 -0.2700 -0.3565
  150OSM    H7S16627   1.524   4.485   2.426  1.7741 -0.4793 -1.1068
  150OSM    H7T16628   1.437   4.575   2.290 -0.8897 -0.4536  0.4326
  150OSM    C8S16629   1.455   4.677   2.476  0.1582 -0.2174  0.4443
  150OSM    H8S16630   1.350   4.651   2.499 -0.0060  0.1129  0.0637
  150OSM    H8T16631   1.465   4.777   2.429  1.6515 -0.9096 -0.7950
  150OSM    C9S16632   1.530   4.687   2.609  0.6124 -0.5528  0.3694
  150OSM    H9S16633   1.636   4.718   2.599 -0.2149  3.1979  2.2373
  150OSM    H9T16634   1.536   4.579   2.633 -0.5117 -0.9170 -0.9022
  150OSM   C10S16635   1.466   4.794   2.698  0.0199 -0.4074 -0.3300
  150OSM   H10S16636   1.355   4.804   2.700  0.1725  1.1977  2.0672
  150OSM   H10T16637   1.493   4.895   2.663 -0.3827 -0.6316 -1.2817
  150OSM   C11S16638   1.503   4.769   2.847 -0.1077  0.0757 -0.0397
  150OSM   H11S16639   1.611   4.794   2.858 -0.3343  0.9852  0.1550
  150OSM   H11T16640   1.480   4.666   2.881 -0.8571 -0.0678 -0.9512
  150OSM   C12S16641   1.411   4.856   2.937 -0.0092 -0.4105  0.0363
  150OSM   H12S16642   1.304   4.839   2.912  0.1281 -1.4171  0.1058
  150OSM   H12T16643   1.430   4.962   2.911 -0.0151 -0.6491 -0.9631
  150OSM   C13S16644   1.428   4.845   3.089 -0.7915 -0.5214  0.1221
  150OSM   H13S16645   1.383   4.748   3.119 -1.7708  0.5894  2.3695
  150OSM   H13T16646   1.355   4.914   3.137 -1.0585 -0.7246  0.0086
  150OSM   C14S16647   1.577   4.859   3.139 -0.5250  0.4699 -0.1607
  150OSM   H14S16648   1.618   4.952   3.095 -0.5695 -0.1279 -1.4986
  150OSM   H14T16649   1.641   4.774   3.106  0.1106 -0.3619  3.0610
  150OSM   C15S16650   1.596   4.876   3.289  0.7240 -0.6943 -0.0669
  150OSM   H15S16651   1.530   4.810   3.349  0.5301  0.0327  0.5250
  150OSM   H15T16652   1.557   4.979   3.304 -1.3796 -1.5089  0.1794
  150OSM   C16S16653   1.737   4.859   3.334  0.3310  0.1111  0.4257
  150OSM   H16S16654   1.773   4.964   3.337 -0.7704  0.5024  0.3568
  150OSM   H16T16655   1.795   4.810   3.252 -0.1390  1.6442 -0.8468
  150OSM   C17S16656   1.762   4.786   3.464  0.0423  0.1789 -0.1410
  150OSM   H17S16657   1.702   4.694   3.472  0.7249 -0.3809 -1.3487
  150OSM   H17T16658   1.736   4.856   3.547 -1.2475 -0.6308  0.1443
  150OSM   C18S16659   1.910   4.744   3.475  0.1348 -0.2441 -0.2796
  150OSM   H18S16660   1.942   4.710   3.576 -0.9763  0.5327  0.3444
  150OSM   H18T16661   1.977   4.830   3.456  0.7797 -0.0664  2.5599
  150OSM   H18U16662   1.929   4.657   3.407 -0.7497  1.6981 -3.0923
  150OSM    C1F16663   2.107   4.300   2.240 -0.1522 -0.5861 -0.8988
  150OSM     OF16664   2.185   4.378   2.184 -0.1942  0.1379  0.4623
  150OSM    C2F16665   2.159   4.225   2.353  0.1372  0.3475 -0.1170
  150OSM    H2F16666   2.264   4.204   2.323 -0.1960  0.3075 -1.3039
  150OSM    H2G16667   2.107   4.128   2.368  0.6773 -0.3247 -2.3988
  150OSM    C3F16668   2.142   4.307   2.484  0.1833 -0.2223  0.2156
  150OSM    H3F16669   2.152   4.415   2.463 -1.5813 -0.0856  0.0291
  150OSM    H3G16670   2.223   4.263   2.547  0.2855  1.6120  1.4160
  150OSM    C4F16671   2.006   4.306   2.556 -0.0594  0.3147  0.3519
  150OSM    H4F16672   1.999   4.203   2.595  0.3726  0.3346  0.4788
  150OSM    H4G16673   1.924   4.321   2.483 -1.0028 -1.2979  1.0606
  150OSM    C5F16674   2.005   4.399   2.683  0.0170  0.6107  0.1686
  150OSM    H5F16675   2.032   4.502   2.652 -1.0028  1.0038  0.5974
  150OSM    H5G16676   2.075   4.370   2.764  0.0341 -0.7623 -0.3206
  150OSM    C6F16677   1.855   4.401   2.745  0.9986 -0.0830  0.3276
  150OSM    H6F16678   1.816   4.297   2.752  0.0050  0.2395 -0.3351
  150OSM    H6G16679   1.788   4.468   2.687 -0.3560 -1.2555  0.5063
  150OSM    C7F16680   1.871   4.469   2.880  0.3169  0.5704 -0.3665
  150OSM    H7F16681   1.919   4.568   2.863  1.0688 -0.1509 -2.5620
  150OSM    H7G16682   1.938   4.407   2.944 -1.7777 -2.8452 -1.3398
  150OSM    C8F16683   1.743   4.489   2.957 -0.4440  0.7150  0.0693
  150OSM    H8F16684   1.683   4.396   2.946  2.4674 -1.1590 -0.5269
  150OSM    H8G16685   1.690   4.569   2.902 -1.8774 -0.7964 -0.7795
  150OSM    C9F16686   1.765   4.518   3.104  0.1706 -0.3469 -0.2073
  150OSM    H9F16687   1.864   4.557   3.136 -0.4394 -0.3526  1.7460
  150OSM   C10F16688   1.678   4.492   3.203  0.3579  0.2488  0.1153
  150OSM   H10F16689   1.695   4.524   3.307  0.2185  2.1654 -0.4132
  150OSM   C11F16690   1.541   4.432   3.178 -0.6549 -0.5542  0.6977
  150OSM   H11F16691   1.534   4.324   3.205  0.1251 -0.9162 -0.4793
  150OSM   H11G16692   1.516   4.452   3.071  2.3791 -1.4114 -0.2434
  150OSM   C12F16693   1.439   4.496   3.270 -0.0812  0.9198 -0.0749
  150OSM   H12F16694   1.338   4.466   3.235 -0.7819  1.3885  1.5090
  150OSM   H12G16695   1.445   4.606   3.258  2.2044  0.8514  0.1915
  150OSM   C13F16696   1.439   4.445   3.413  0.4002 -0.4470 -0.4120
  150OSM   H13F16697   1.523   4.492   3.468 -1.2430  1.3070  0.6217
  150OSM   H13G16698   1.457   4.335   3.417 -3.1232 -0.9977  2.0362
  150OSM   C14F16699   1.317   4.477   3.493  0.2266 -0.4713 -1.1193
  150OSM   H14F16700   1.268   4.386   3.534 -1.1882  0.7316 -0.0935
  150OSM   H14G16701   1.254   4.518   3.411  1.5579 -1.1030 -2.4877
  150OSM   C15F16702   1.348   4.583   3.598 -0.8772 -0.3311 -0.1474
  150OSM   H15F16703   1.408   4.671   3.566 -1.8797 -0.5249 -2.7721
  150OSM   H15G16704   1.395   4.527   3.682  0.0511  0.7303  0.0460
  150OSM   C16F16705   1.228   4.637   3.676  0.3757 -0.4065  0.1939
  150OSM   H16F16706   1.192   4.723   3.616 -1.1853 -1.7138 -0.7987
  150OSM   H16G16707   1.258   4.682   3.773 -1.3610 -0.7099  0.8961
  150OSM   C17F16708   1.124   4.534   3.712  0.0406  0.7181  0.1969
  150OSM   H17F16709   1.167   4.453   3.775 -1.8241 -0.1321  0.4148
  150OSM   H17G16710   1.082   4.483   3.622 -2.3181 -3.0156  3.2323
  150OSM   C18F16711   1.006   4.579   3.798  0.1497  0.4548  0.4423
  150OSM   H18F16712   0.961   4.677   3.770 -2.5786 -0.7753  0.3325
  150OSM   H18G16713   1.042   4.601   3.901 -0.8489  2.4697  0.3871
  150OSM   H18H16714   0.916   4.516   3.812  1.5603 -1.2673  2.2078
  151OSM      N16715   1.522   4.047   1.703 -0.3291 -0.1404  0.0075
  151OSM    C1516716   1.572   3.947   1.603 -0.2830  0.0304 -0.1107
  151OSM   H15A16717   1.665   3.985   1.563  0.2938 -2.1845 -0.9186
  151OSM   H15B16718   1.492   3.934   1.531  0.1605  1.4940 -0.8980
  151OSM   H15C16719   1.587   3.852   1.651 -0.3127  0.1675  0.1681
  151OSM    C1416720   1.511   4.182   1.628  0.3722 -0.6642  0.0081
  151OSM   H14A16721   1.445   4.170   1.543 -0.8219 -3.8571  1.3059
  151OSM   H14B16722   1.608   4.226   1.607  0.1186  0.7960  1.7651
  151OSM   H14C16723   1.463   4.246   1.700 -1.9660 -2.8419  0.4619
  151OSM    C1316724   1.387   4.012   1.759 -0.1657  0.1823 -0.0917
  151OSM   H13A16725   1.318   3.995   1.678 -0.2298 -1.6553  0.3147
  151OSM   H13B16726   1.342   4.084   1.826  1.4907  0.1422  1.0965
  151OSM   H13C16727   1.399   3.917   1.810  0.4412  1.0353  1.3896
  151OSM    C1216728   1.619   4.057   1.813 -0.1389  0.2688 -0.0966
  151OSM   H12A16729   1.595   4.139   1.878 -1.6014 -0.1289 -0.1248
  151OSM   H12B16730   1.718   4.074   1.772 -0.8197  1.2218 -1.3845
  151OSM    C1116731   1.624   3.936   1.902  0.4126  0.1531 -0.6592
  151OSM   H11A16732   1.537   3.920   1.968  0.0731  2.1932 -0.5819
  151OSM   H11B16733   1.711   3.958   1.969 -1.2841  2.8793  0.7592
  151OSM      P16734   1.682   3.683   1.923  0.1214 -0.3021  0.1191
  151OSM    O1316735   1.620   3.566   1.856 -0.3909  0.0860 -0.1515
  151OSM    O1416736   1.828   3.677   1.954 -0.4902 -0.4429 -0.0264
  151OSM    O1116737   1.589   3.713   2.050 -0.7769 -0.0300  0.4393
  151OSM    O1216738   1.658   3.810   1.833 -0.2192  0.4793 -0.0607
  151OSM    C1S16739   1.552   3.609   2.137  0.1859  0.4856  0.3588
  151OSM    H1S16740   1.544   3.516   2.076  1.4643  0.0033  0.9059
  151OSM    H1T16741   1.450   3.632   2.174  0.7726  2.8613  0.5797
  151OSM     NF16742   1.616   3.464   2.328 -0.3436 -0.5021 -0.5261
  151OSM    HNF16743   1.587   3.482   2.422 -0.0419 -0.2747 -0.4764
  151OSM    C2S16744   1.642   3.590   2.269 -0.4704  0.0218  1.2671
  151OSM    H2S16745   1.746   3.595   2.230  0.2086 -0.7931  2.9557
  151OSM    C3S16746   1.636   3.706   2.373 -0.5848 -0.2677  0.8876
  151OSM    H3S16747   1.529   3.724   2.398 -0.8794  1.1403 -1.3383
  151OSM     O316748   1.684   3.819   2.312 -0.0806 -0.4459  0.1840
  151OSM    HO316749   1.654   3.810   2.221 -0.9665  0.3094  0.3971
  151OSM    C4S16750   1.723   3.679   2.494  0.2972 -0.4781 -0.1405
  151OSM    H4S16751   1.832   3.668   2.480  0.5864  2.2486 -0.4014
  151OSM    C5S16752   1.684   3.666   2.619  0.3288  0.0743 -0.5234
  151OSM    H5S16753   1.578   3.668   2.650  0.5439 -0.3461  0.2692
  151OSM    C6S16754   1.774   3.646   2.736  0.1930 -0.0469 -0.0485
  151OSM    H6S16755   1.747   3.555   2.794  1.3527  1.8361  3.5939
  151OSM    H6T16756   1.759   3.740   2.792 -0.3376  0.4603 -1.0236
  151OSM    C7S16757   1.928   3.643   2.708 -0.2563  0.5503 -0.1160
  151OSM    H7S16758   1.949   3.748   2.676 -1.5920  1.2087  1.1359
  151OSM    H7T16759   1.964   3.577   2.626 -1.7888  1.1753 -1.3011
  151OSM    C8S16760   2.001   3.596   2.837 -0.6811  0.7533  0.1202
  151OSM    H8S16761   2.110   3.586   2.820 -0.5856 -1.5126  1.7319
  151OSM    H8T16762   1.960   3.495   2.862 -0.9027  1.0405  0.9483
  151OSM    C9S16763   1.981   3.680   2.967 -0.1269  0.4149 -0.1360
  151OSM    H9S16764   1.872   3.664   2.977  0.0984 -0.2739  1.4270
  151OSM    H9T16765   2.012   3.784   2.947  0.6821  0.0934 -0.6114
  151OSM   C10S16766   2.045   3.625   3.093  0.0709  0.1478  0.5142
  151OSM   H10S16767   2.155   3.623   3.078 -0.2366  0.8191 -2.1919
  151OSM   H10T16768   2.007   3.521   3.101  2.2861 -1.2273 -4.6457
  151OSM   C11S16769   1.996   3.700   3.212  0.4903  0.4016  0.2194
  151OSM   H11S16770   1.885   3.702   3.211  0.4663 -0.6758  0.7299
  151OSM   H11T16771   2.043   3.801   3.214  0.9680  0.2010 -0.4199
  151OSM   C12S16772   2.034   3.633   3.349  0.4054 -0.0407  0.1429
  151OSM   H12S16773   2.141   3.606   3.343  0.6074  0.4056  1.5545
  151OSM   H12T16774   1.982   3.535   3.347 -1.3755  0.8989 -1.3312
  151OSM   C13S16775   1.990   3.714   3.473 -0.3944 -0.1964 -0.1853
  151OSM   H13S16776   2.010   3.648   3.559  0.3133  0.1985 -0.0426
  151OSM   H13T16777   1.882   3.737   3.464 -0.5732 -1.0710 -0.2261
  151OSM   C14S16778   2.077   3.845   3.481 -0.1191  0.2418  0.1583
  151OSM   H14S16779   2.052   3.914   3.564 -0.2771 -1.5552  1.6352
  151OSM   H14T16780   2.044   3.897   3.389  1.7257 -0.4461 -0.9311
  151OSM   C15S16781   2.235   3.826   3.475  0.1950  0.2516 -0.0700
  151OSM   H15S16782   2.279   3.815   3.373 -1.9498 -2.1809 -0.8047
  151OSM   H15T16783   2.248   3.733   3.535  0.2033 -0.2620 -0.8505
  151OSM   C16S16784   2.311   3.920   3.555 -0.2267  0.5348  0.0387
  151OSM   H16S16785   2.265   3.928   3.656  1.6998  0.0371  0.9745
  151OSM   H16T16786   2.303   4.024   3.517  0.2576  0.5553 -0.0150
  151OSM   C17S16787   2.459   3.885   3.577 -0.4551 -0.3411 -0.4571
  151OSM   H17S16788   2.510   3.872   3.479 -0.4290 -0.7864 -0.3869
  151OSM   H17T16789   2.463   3.782   3.620 -0.1501 -0.6103 -1.1320
  151OSM   C18S16790   2.532   3.992   3.659  0.1621 -0.3643  0.1811
  151OSM   H18S16791   2.532   4.090   3.606  1.0446 -0.6696 -0.3891
  151OSM   H18T16792   2.633   3.953   3.682 -0.3351 -1.0151  1.2772
  151OSM   H18U16793   2.486   4.013   3.758 -1.0291 -0.5536 -0.3305
  151OSM    C1F16794   1.620   3.338   2.270 -0.1926 -0.5762 -0.0102
  151OSM     OF16795   1.666   3.322   2.154 -0.3409 -0.0195  0.5144
  151OSM    C2F16796   1.570   3.222   2.350 -0.0906  0.3174  0.1406
  151OSM    H2F16797   1.626   3.129   2.323 -1.2415 -0.8391  1.6590
  151OSM    H2G16798   1.475   3.200   2.297  1.0336 -2.3200 -0.9273
  151OSM    C3F16799   1.565   3.237   2.501 -0.4675 -0.3786  0.1500
  151OSM    H3F16800   1.492   3.316   2.529  2.0162  1.7281  0.9453
  151OSM    H3G16801   1.666   3.264   2.540  0.1136 -1.9135 -0.2664
  151OSM    C4F16802   1.519   3.106   2.573 -0.0835 -0.2320 -0.1810
  151OSM    H4F16803   1.581   3.021   2.538 -0.9803 -1.0614  0.1949
  151OSM    H4G16804   1.412   3.082   2.555 -0.1923  2.0160 -2.7189
  151OSM    C5F16805   1.528   3.123   2.723 -0.5180 -0.1279  0.3273
  151OSM    H5F16806   1.630   3.165   2.736  0.4109 -1.3405 -2.5626
  151OSM    H5G16807   1.533   3.014   2.746 -1.6003 -0.3089 -0.2932
  151OSM    C6F16808   1.415   3.201   2.795  0.3592 -0.0735  0.3664
  151OSM    H6F16809   1.428   3.303   2.753  1.8342  0.0066  0.9749
  151OSM    H6G16810   1.438   3.216   2.902 -1.6616  0.9595  0.6683
  151OSM    C7F16811   1.274   3.142   2.778 -0.0975  0.4148  0.5765
  151OSM    H7F16812   1.274   3.040   2.822  1.7555 -1.2537 -3.1520
  151OSM    H7G16813   1.264   3.129   2.669  1.2120  0.4549  0.4468
  151OSM    C8F16814   1.155   3.228   2.818 -0.5345  0.4331 -0.2653
  151OSM    H8F16815   1.068   3.183   2.764 -1.1168  1.0003  0.1889
  151OSM    H8G16816   1.176   3.326   2.771  0.6941  0.4129  0.2378
  151OSM    C9F16817   1.123   3.246   2.963  0.1089  0.3928  0.2173
  151OSM    H9F16818   1.194   3.199   3.032 -1.6274 -1.1293  1.0169
  151OSM   C10F16819   1.023   3.307   3.021  0.4146 -0.1961  0.2183
  151OSM   H10F16820   1.009   3.296   3.129 -1.5904  2.1278  0.2322
  151OSM   C11F16821   0.906   3.378   2.956  0.1740  0.6324 -0.0031
  151OSM   H11F16822   0.809   3.354   3.006 -0.2322 -1.9382 -1.9216
  151OSM   H11G16823   0.898   3.351   2.849  0.4555 -1.0858  0.3935
  151OSM   C12F16824   0.925   3.528   2.975  0.2189  0.3434 -0.1755
  151OSM   H12F16825   0.831   3.575   2.940  0.0920  0.3469  0.1730
  151OSM   H12G16826   1.015   3.554   2.916 -0.4115  2.1879 -0.3427
  151OSM   C13F16827   0.964   3.570   3.119  0.3450 -0.2228  0.8872
  151OSM   H13F16828   1.072   3.546   3.132  0.4406  0.0863  0.6614
  151OSM   H13G16829   0.893   3.530   3.194 -1.8641 -0.0264 -1.0455
  151OSM   C14F16830   0.948   3.723   3.126 -0.4049 -0.2505 -0.5615
  151OSM   H14F16831   0.841   3.754   3.136 -1.1342 -2.5658 -0.7681
  151OSM   H14G16832   0.986   3.772   3.034  0.4983 -0.5409 -0.3420
  151OSM   C15F16833   1.015   3.787   3.255  0.3460  0.2819 -0.6522
  151OSM   H15F16834   1.029   3.897   3.247 -0.9666  0.4702 -0.5917
  151OSM   H15G16835   1.119   3.749   3.249  0.2396  0.0407 -0.9923
  151OSM   C16F16836   0.949   3.766   3.396  0.3868  0.5408  0.7681
  151OSM   H16F16837   1.018   3.816   3.467  0.6205 -0.7493  1.4582
  151OSM   H16G16838   0.929   3.658   3.412  2.2649  0.2981  1.5626
  151OSM   C17F16839   0.824   3.851   3.428 -0.2697 -0.1533  0.6800
  151OSM   H17F16840   0.741   3.809   3.367  0.5028 -1.4624  0.5255
  151OSM   H17G16841   0.842   3.958   3.404 -0.3309  0.2346  2.3504
  151OSM   C18F16842   0.779   3.844   3.576  0.0468 -0.5417 -0.0627
  151OSM   H18F16843   0.690   3.910   3.576  0.8862  0.6236 -3.2248
  151OSM   H18G16844   0.860   3.881   3.643  1.3617 -1.7279 -0.9814
  151OSM   H18H16845   0.751   3.741   3.608 -0.3831 -0.3586  0.1578
  152OSM      N16846   3.037   5.635   2.019 -0.3712 -0.2677  0.2923
  152OSM    C1516847   2.984   5.555   2.129  0.0874 -0.6382 -0.2127
  152OSM   H15A16848   3.055   5.558   2.210  0.9053 -0.9610 -0.9056
  152OSM   H15B16849   2.984   5.452   2.095  0.2902 -0.8900  0.5310
  152OSM   H15C16850   2.888   5.580   2.170  0.9591 -0.0221  1.5024
  152OSM    C1416851   3.171   5.584   2.002 -0.2327  0.0686 -0.3426
  152OSM   H14A16852   3.221   5.572   2.097 -0.0671  0.4870 -0.3749
  152OSM   H14B16853   3.246   5.645   1.952  1.8625 -1.9839  0.1931
  152OSM   H14C16854   3.163   5.484   1.961 -0.6851 -0.5398  1.2298
  152OSM    C1316855   2.955   5.617   1.897 -0.0203 -0.2067 -0.1278
  152OSM   H13A16856   2.855   5.655   1.911 -0.3259  0.1701 -3.1833
  152OSM   H13B16857   2.941   5.516   1.863 -0.3667  0.7156 -2.8150
  152OSM   H13C16858   2.998   5.676   1.818  0.6199 -0.3403  0.1113
  152OSM    C1216859   3.029   5.782   2.057  0.2674  0.7449  0.1836
  152OSM   H12A16860   2.923   5.804   2.065 -0.3804 -2.6464  1.6815
  152OSM   H12B16861   3.074   5.843   1.981 -0.8892  2.5186  0.8759
  152OSM    C1116862   3.093   5.829   2.190 -0.2111  0.6414  0.6935
  152OSM   H11A16863   3.194   5.789   2.165 -0.9587  0.1227 -1.6068
  152OSM   H11B16864   3.053   5.779   2.281  0.3606 -0.9167  0.1068
  152OSM      P16865   3.196   6.068   2.138 -0.1890  0.1137  0.0237
  152OSM    O1316866   3.233   6.011   2.006 -0.3483 -0.1756 -0.2567
  152OSM    O1416867   3.150   6.210   2.129 -0.0351  0.0901  0.1354
  152OSM    O1116868   3.316   6.061   2.238  0.2825 -0.2858 -0.1524
  152OSM    O1216869   3.084   5.968   2.200  0.4842 -0.8164 -1.3109
  152OSM    C1S16870   3.296   6.026   2.376 -0.3191 -0.6098 -0.1498
  152OSM    H1S16871   3.242   5.930   2.392 -0.4484 -0.3482  1.0296
  152OSM    H1T16872   3.250   6.117   2.420  0.2668  0.6403 -2.0364
  152OSM     NF16873   3.376   5.948   2.596 -0.3875  0.3797  0.0816
  152OSM    HNF16874   3.380   6.015   2.670  0.4994  2.5289 -1.8539
  152OSM    C2S16875   3.421   5.994   2.467  0.1209 -0.2455 -0.0735
  152OSM    H2S16876   3.467   5.905   2.420  0.7557  1.8531 -3.6214
  152OSM    C3S16877   3.530   6.111   2.473  0.7715  0.0435  0.0777
  152OSM    H3S16878   3.490   6.186   2.544 -1.2228 -0.1858 -0.7526
  152OSM     O316879   3.553   6.177   2.350  0.3653  0.4355 -0.4313
  152OSM    HO316880   3.471   6.178   2.301  0.0390 -1.4058  0.0654
  152OSM    C4S16881   3.646   6.042   2.521  0.6470 -0.6501  0.0418
  152OSM    H4S16882   3.667   5.954   2.459  0.4973 -1.4246  1.0861
  152OSM    C5S16883   3.717   6.066   2.623  0.1572  0.3213  0.5752
  152OSM    H5S16884   3.707   6.164   2.671  0.5032 -0.5720  2.5407
  152OSM    C6S16885   3.832   5.984   2.680  0.0808  0.8652 -0.3754
  152OSM    H6S16886   3.930   6.034   2.693  0.5088 -0.9174  4.3166
  152OSM    H6T16887   3.848   5.890   2.623  1.4223  0.4558  0.6485
  152OSM    C7S16888   3.805   5.931   2.820 -0.0680 -0.2164 -0.5022
  152OSM    H7S16889   3.712   5.871   2.816  0.3572 -0.8121 -1.8261
  152OSM    H7T16890   3.797   6.022   2.882  0.5699  0.5942 -1.5804
  152OSM    C8S16891   3.916   5.837   2.861  0.2616  0.1323 -0.6209
  152OSM    H8S16892   4.018   5.881   2.871  1.2769 -1.9619 -1.2520
  152OSM    H8T16893   3.940   5.764   2.780 -0.0118 -0.4839 -0.1572
  152OSM    C9S16894   3.887   5.759   2.994 -0.7842 -0.0917  0.4336
  152OSM    H9S16895   3.901   5.821   3.085  1.7584 -1.1121  0.7753
  152OSM    H9T16896   3.959   5.679   3.018 -1.3187  0.0394  2.5706
  152OSM   C10S16897   3.749   5.693   2.996 -0.3746 -0.1207  0.3420
  152OSM   H10S16898   3.741   5.645   2.896  1.8007  2.7553 -1.2980
  152OSM   H10T16899   3.662   5.762   2.994 -0.3812 -0.1367  0.0287
  152OSM   C11S16900   3.725   5.584   3.095 -0.9043  0.2602  0.1081
  152OSM   H11S16901   3.809   5.512   3.094 -1.8794 -0.8627 -2.0003
  152OSM   H11T16902   3.641   5.516   3.072 -0.1854  0.0095 -1.7923
  152OSM   C12S16903   3.698   5.643   3.236  0.3889  0.6267  0.2632
  152OSM   H12S16904   3.644   5.739   3.229  1.5072  1.2152 -0.5370
  152OSM   H12T16905   3.791   5.673   3.290  0.8646  1.1544 -0.8350
  152OSM   C13S16906   3.623   5.541   3.324  0.1342 -0.2366  0.5515
  152OSM   H13S16907   3.688   5.451   3.330 -0.0104 -0.5844 -2.3445
  152OSM   H13T16908   3.528   5.516   3.273 -0.6586 -0.0934  1.9273
  152OSM   C14S16909   3.584   5.610   3.454 -0.5863 -0.3025  0.1016
  152OSM   H14S16910   3.513   5.694   3.439 -1.7042 -1.0072  1.2755
  152OSM   H14T16911   3.669   5.651   3.511  0.4374 -1.8041 -0.3083
  152OSM   C15S16912   3.506   5.507   3.532 -1.0947  0.0057  0.8522
  152OSM   H15S16913   3.574   5.426   3.565  1.1909  0.6728 -2.0340
  152OSM   H15T16914   3.425   5.460   3.472 -0.8436 -0.5243  0.9259
  152OSM   C16S16915   3.443   5.557   3.656  0.4362 -0.0627  0.1890
  152OSM   H16S16916   3.368   5.632   3.623  1.4262  1.4327  1.2105
  152OSM   H16T16917   3.526   5.610   3.708 -0.5873 -0.0556  1.8602
  152OSM   C17S16918   3.372   5.447   3.733 -0.1929  0.1094  0.5550
  152OSM   H17S16919   3.447   5.366   3.740  0.7154  0.9683  0.7813
  152OSM   H17T16920   3.279   5.416   3.680 -0.6067  0.5993  0.9833
  152OSM   C18S16921   3.323   5.495   3.868 -0.6623  0.0599  0.1893
  152OSM   H18S16922   3.402   5.562   3.907 -0.4714  1.3515 -2.3081
  152OSM   H18T16923   3.312   5.411   3.939 -1.2542 -0.6168 -0.6883
  152OSM   H18U16924   3.233   5.559   3.861  0.1826  1.2721  0.2172
  152OSM    C1F16925   3.316   5.831   2.621 -0.9380  0.0802  1.1178
  152OSM     OF16926   3.304   5.740   2.542  1.2902 -0.1644  0.1557
  152OSM    C2F16927   3.274   5.802   2.759  0.0318  0.1750  0.3878
  152OSM    H2F16928   3.324   5.865   2.836 -0.5173 -1.3707  2.0428
  152OSM    H2G16929   3.305   5.697   2.779  0.6616 -0.0455 -1.6628
  152OSM    C3F16930   3.125   5.825   2.771 -0.6040  0.5246 -0.1020
  152OSM    H3F16931   3.065   5.771   2.695  0.1719  1.0486 -1.1049
  152OSM    H3G16932   3.100   5.932   2.752  1.6835  1.3547  1.2510
  152OSM    C4F16933   3.084   5.789   2.911  0.1982 -0.0463  0.7069
  152OSM    H4F16934   3.124   5.689   2.939  0.7922 -0.5123 -1.7567
  152OSM    H4G16935   2.973   5.789   2.913  0.2003  0.1519  0.9391
  152OSM    C5F16936   3.122   5.896   3.016  0.8667  0.1827 -0.5375
  152OSM    H5F16937   3.058   5.982   2.989 -0.8715 -0.6447  0.8597
  152OSM    H5G16938   3.228   5.927   3.000  0.9789 -1.0023 -2.1332
  152OSM    C6F16939   3.105   5.836   3.159 -0.1427  0.8384  0.0632
  152OSM    H6F16940   3.179   5.755   3.178 -0.9063  0.3558  0.9761
  152OSM    H6G16941   3.003   5.791   3.163  0.4437 -0.5234  0.1017
  152OSM    C7F16942   3.103   5.938   3.275 -0.1485 -0.3623  0.1397
  152OSM    H7F16943   3.040   5.891   3.354 -0.8528 -0.0056 -0.2045
  152OSM    H7G16944   3.066   6.034   3.235  2.0220  1.6231  2.7285
  152OSM    C8F16945   3.235   5.981   3.333 -0.3875  0.3290  0.9165
  152OSM    H8F16946   3.224   6.089   3.357 -2.2187  0.6990 -1.4012
  152OSM    H8G16947   3.313   5.981   3.255 -0.1176 -0.8766  1.1705
  152OSM    C9F16948   3.276   5.906   3.455 -0.3727  0.4767  0.0728
  152OSM    H9F16949   3.259   5.798   3.443 -1.9203  1.0614 -3.6722
  152OSM   C10F16950   3.314   5.947   3.578 -0.0999 -0.1878 -0.6162
  152OSM   H10F16951   3.322   5.875   3.661  1.5176 -0.0967 -0.6731
  152OSM   C11F16952   3.330   6.089   3.631  0.6370 -0.4318 -0.2062
  152OSM   H11F16953   3.319   6.159   3.546  0.6892  2.1079  1.8216
  152OSM   H11G16954   3.423   6.110   3.688  0.8551 -2.2311  0.1446
  152OSM   C12F16955   3.221   6.117   3.731  0.1177  0.1896  0.7329
  152OSM   H12F16956   3.225   6.051   3.821 -2.7951 -0.9322  0.1002
  152OSM   H12G16957   3.121   6.095   3.688 -0.1017  0.2012  1.2257
  152OSM   C13F16958   3.227   6.265   3.759  0.1874 -0.2061  0.4301
  152OSM   H13F16959   3.265   6.320   3.670  1.8060 -0.0208  1.2132
  152OSM   H13G16960   3.301   6.269   3.842  1.1488 -0.2850 -0.4157
  152OSM   C14F16961   3.101   6.323   3.806  0.1529 -1.0985 -0.3121
  152OSM   H14F16962   3.044   6.246   3.862  0.0582  1.0591  2.6897
  152OSM   H14G16963   3.042   6.351   3.716  1.4015  1.8386 -0.3031
  152OSM   C15F16964   3.099   6.445   3.899  0.3701  0.6584  0.1792
  152OSM   H15F16965   2.998   6.489   3.907 -1.5972 -2.8502 -3.4215
  152OSM   H15G16966   3.166   6.523   3.855  0.0779  2.2274  2.4262
  152OSM   C16F16967   3.142   6.410   4.044 -0.4443  0.8051 -0.2419
  152OSM   H16F16968   3.245   6.370   4.034 -0.5643  0.5075 -0.2698
  152OSM   H16G16969   3.073   6.338   4.093  0.4320  0.1495  0.0518
  152OSM   C17F16970   3.155   6.535   4.129 -0.0013 -0.3801  0.2228
  152OSM   H17F16971   3.201   6.615   4.067 -2.2010 -0.5661 -1.6780
  152OSM   H17G16972   3.218   6.501   4.214 -0.1415 -0.6121  0.2340
  152OSM   C18F16973   3.030   6.603   4.185 -0.0887 -0.1320 -0.4850
  152OSM   H18F16974   3.070   6.677   4.257  1.5145 -1.2600 -0.1721
  152OSM   H18G16975   2.969   6.525   4.235  1.3632 -1.1363 -0.2320
  152OSM   H18H16976   2.962   6.648   4.110 -1.0087  2.5818  1.9213
  153OSM      N16977   1.814   5.602   1.632  0.3090  0.2593  0.0828
  153OSM    C1516978   1.676   5.652   1.658 -0.5117  0.6929 -0.4927
  153OSM   H15A16979   1.623   5.661   1.565 -0.3222  1.3697 -0.5413
  153OSM   H15B16980   1.682   5.750   1.704 -1.1256 -0.1494  1.4284
  153OSM   H15C16981   1.624   5.587   1.727 -0.7266  0.7820 -0.5694
  153OSM    C1416982   1.818   5.476   1.547 -0.0699  0.7105  0.7923
  153OSM   H14A16983   1.791   5.403   1.622  0.5997  2.3006  2.6017
  153OSM   H14B16984   1.918   5.451   1.516 -0.8074  0.1505 -1.2809
  153OSM   H14C16985   1.759   5.483   1.456 -0.0089 -2.8434  0.3795
  153OSM    C1316986   1.890   5.710   1.556  0.1368  0.0256 -0.2705
  153OSM   H13A16987   1.998   5.701   1.563 -0.0032 -1.0048  0.6917
  153OSM   H13B16988   1.874   5.810   1.593  1.1308  0.0121  0.2390
  153OSM   H13C16989   1.857   5.706   1.453  0.9639 -4.7470 -0.4921
  153OSM    C1216990   1.889   5.577   1.763  0.3424  0.7791 -0.8773
  153OSM   H12A16991   1.909   5.668   1.817  0.6565  0.5071 -0.5298
  153OSM   H12B16992   1.981   5.526   1.738 -0.0187  0.2424 -1.1287
  153OSM    C1116993   1.825   5.476   1.866 -0.7663  0.0590  0.1947
  153OSM   H11A16994   1.725   5.514   1.895  0.3604  1.8259  1.8749
  153OSM   H11B16995   1.881   5.473   1.962 -0.6475 -0.3838  0.1141
  153OSM      P16996   1.944   5.254   1.817  0.3384  0.1006 -0.2387
  153OSM    O1316997   1.897   5.121   1.773 -0.2242  0.0050  0.1918
  153OSM    O1416998   2.052   5.316   1.742  0.2087  0.4055  0.2216
  153OSM    O1116999   1.981   5.254   1.973 -0.1078  0.3327 -0.0880
  153OSM    O1217000   1.814   5.342   1.825 -0.0280  0.3112 -0.4151
  153OSM    C1S17001   2.100   5.196   2.042 -0.4851 -0.1888 -0.1825
  153OSM    H1S17002   2.136   5.110   1.981 -3.8764 -0.6912 -1.5697
  153OSM    H1T17003   2.066   5.153   2.139 -2.0565  1.1305 -0.1238
  153OSM     NF17004   2.306   5.258   2.152 -0.1779 -0.2916 -0.3966
  153OSM    HNF17005   2.301   5.321   2.230 -1.7134 -0.9092  0.0304
  153OSM    C2S17006   2.202   5.309   2.060  0.1154 -0.0169 -0.3701
  153OSM    H2S17007   2.246   5.333   1.961  1.8499  0.7766  0.5658
  153OSM    C3S17008   2.134   5.441   2.111  0.4912  0.1036 -0.2967
  153OSM    H3S17009   2.065   5.490   2.039 -0.4332  0.0459  0.5412
  153OSM     O317010   2.217   5.552   2.141 -0.2171  0.8940 -0.1381
  153OSM    HO317011   2.284   5.541   2.073 -0.0592  0.6874  0.0496
  153OSM    C4S17012   2.054   5.409   2.237 -0.5674 -0.4273  0.4436
  153OSM    H4S17013   1.957   5.359   2.227 -0.6032 -0.4668  1.0216
  153OSM    C5S17014   2.089   5.435   2.365 -1.0391  0.3644 -0.2148
  153OSM    H5S17015   2.191   5.461   2.397 -0.0589 -2.0185 -1.2776
  153OSM    C6S17016   2.005   5.400   2.486 -0.2579  0.5599 -0.4631
  153OSM    H6S17017   2.024   5.298   2.525 -0.2859 -0.0658 -2.0256
  153OSM    H6T17018   1.896   5.388   2.467 -0.4535  0.8366  0.4454
  153OSM    C7S17019   2.017   5.493   2.607  0.3635 -0.2101 -0.3101
  153OSM    H7S17020   2.004   5.602   2.592  1.4675 -0.1867 -1.1755
  153OSM    H7T17021   2.124   5.480   2.635  0.6392  0.6892 -0.9189
  153OSM    C8S17022   1.939   5.445   2.731  0.4940  0.0248 -0.1553
  153OSM    H8S17023   1.961   5.338   2.752 -0.2447 -0.1741 -0.3791
  153OSM    H8T17024   1.832   5.450   2.699  0.3662  1.5093  0.4446
  153OSM    C9S17025   1.956   5.531   2.860  0.6572  0.1620 -0.3388
  153OSM    H9S17026   1.870   5.497   2.922 -0.3297  1.7628 -0.8208
  153OSM    H9T17027   1.947   5.639   2.840  1.6921  0.7083  1.9224
  153OSM   C10S17028   2.086   5.483   2.926 -0.2413  0.3172 -0.0701
  153OSM   H10S17029   2.179   5.524   2.880  1.4102 -1.0655  1.9104
  153OSM   H10T17030   2.091   5.373   2.917 -2.0818  0.3320 -1.3539
  153OSM   C11S17031   2.088   5.525   3.074 -0.2397  0.4871  0.1747
  153OSM   H11S17032   1.996   5.485   3.122 -0.2174 -0.7312 -0.7738
  153OSM   H11T17033   2.091   5.636   3.079  2.6024  0.4574 -0.0915
  153OSM   C12S17034   2.213   5.472   3.146  0.1202 -0.2047 -0.1521
  153OSM   H12S17035   2.304   5.513   3.097 -0.2716 -0.5271 -1.1671
  153OSM   H12T17036   2.218   5.363   3.124  1.1045 -0.5248  1.5325
  153OSM   C13S17037   2.221   5.515   3.295  0.3383 -0.7634 -0.1755
  153OSM   H13S17038   2.121   5.495   3.338  0.5394 -0.6511  0.3567
  153OSM   H13T17039   2.248   5.623   3.301 -1.3209 -0.2477 -1.6988
  153OSM   C14S17040   2.331   5.435   3.373  0.0021  0.5713 -0.2951
  153OSM   H14S17041   2.437   5.455   3.344  0.2592  1.0461  0.8969
  153OSM   H14T17042   2.316   5.325   3.364  0.6254  0.7074 -3.2733
  153OSM   C15S17043   2.321   5.466   3.525 -0.4112  0.2601  0.3948
  153OSM   H15S17044   2.217   5.474   3.563  0.0314  0.9175  1.4933
  153OSM   H15T17045   2.349   5.573   3.526  0.1786  0.1448 -1.8810
  153OSM   C16S17046   2.414   5.375   3.598 -0.2887 -0.5392 -0.6127
  153OSM   H16S17047   2.509   5.372   3.542 -0.6980 -0.5799 -1.3109
  153OSM   H16T17048   2.365   5.275   3.594 -3.5034  0.9447  0.0516
  153OSM   C17S17049   2.432   5.420   3.745 -0.2888 -0.6380  0.2558
  153OSM   H17S17050   2.479   5.336   3.801  0.9099  0.5901  1.1391
  153OSM   H17T17051   2.336   5.465   3.777  0.1051  1.4344 -1.3619
  153OSM   C18S17052   2.534   5.532   3.770  0.1736 -0.1817 -0.2227
  153OSM   H18S17053   2.631   5.504   3.724  0.0832 -0.0228 -0.5083
  153OSM   H18T17054   2.544   5.561   3.877 -0.7212  3.3372 -1.0348
  153OSM   H18U17055   2.497   5.625   3.724  2.1838  0.3413 -0.8492
  153OSM    C1F17056   2.386   5.159   2.120 -0.7400 -0.7162 -0.3957
  153OSM     OF17057   2.399   5.109   2.010 -0.0364 -0.0023 -0.8644
  153OSM    C2F17058   2.465   5.105   2.229 -0.3501 -0.0644  0.0717
  153OSM    H2F17059   2.564   5.155   2.233  0.3898 -1.5777  0.8677
  153OSM    H2G17060   2.493   5.000   2.206 -1.4021 -0.5852  1.0910
  153OSM    C3F17061   2.411   5.114   2.376  0.0794 -0.3121 -0.2483
  153OSM    H3F17062   2.450   5.031   2.438 -0.3689 -1.1436 -1.0542
  153OSM    H3G17063   2.300   5.108   2.381  0.1098 -0.3338  0.3588
  153OSM    C4F17064   2.443   5.238   2.452 -0.5583 -0.0595 -1.0460
  153OSM    H4F17065   2.406   5.331   2.404 -1.6986 -0.7715 -1.5635
  153OSM    H4G17066   2.554   5.249   2.460 -0.5994 -0.1251 -0.3477
  153OSM    C5F17067   2.385   5.241   2.600  0.6431  0.0805  0.6916
  153OSM    H5F17068   2.401   5.138   2.637  0.0378 -0.5986 -0.8891
  153OSM    H5G17069   2.274   5.251   2.603  0.6566  1.2326 -1.6378
  153OSM    C6F17070   2.456   5.340   2.694  0.2584  0.8550  0.4203
  153OSM    H6F17071   2.420   5.441   2.665  0.2856  0.7468 -0.0004
  153OSM    H6G17072   2.567   5.341   2.687  0.2251  0.5341 -0.2112
  153OSM    C7F17073   2.420   5.321   2.838  0.8666 -0.3061 -0.3173
  153OSM    H7F17074   2.315   5.287   2.844  0.7963  0.2534  2.2211
  153OSM    H7G17075   2.413   5.415   2.897  0.8729 -1.6844  1.9439
  153OSM    C8F17076   2.512   5.216   2.902 -0.5340  1.1776 -0.3541
  153OSM    H8F17077   2.618   5.237   2.877 -0.2101 -0.9340 -0.8096
  153OSM    H8G17078   2.483   5.111   2.883 -1.1521  1.0018  1.3799
  153OSM    C9F17079   2.495   5.215   3.053 -0.1190 -0.0729  0.3337
  153OSM    H9F17080   2.388   5.200   3.076 -0.5976 -1.5496 -2.6150
  153OSM   C10F17081   2.591   5.248   3.142  0.5375  0.6120  0.1018
  153OSM   H10F17082   2.560   5.245   3.248  2.6738 -0.8268  0.7236
  153OSM   C11F17083   2.742   5.284   3.120 -0.5186 -0.7325 -0.3069
  153OSM   H11F17084   2.763   5.324   3.018  0.5214  0.1149  0.2213
  153OSM   H11G17085   2.812   5.199   3.135  1.1329  0.0883 -2.8637
  153OSM   C12F17086   2.794   5.385   3.232  0.4380 -0.0161  0.2093
  153OSM   H12F17087   2.726   5.473   3.228  1.5316  0.7836 -1.4096
  153OSM   H12G17088   2.893   5.433   3.214 -0.7375  1.8915 -1.3183
  153OSM   C13F17089   2.792   5.325   3.374  0.5896 -0.9076  0.4569
  153OSM   H13F17090   2.862   5.239   3.380  0.6350 -0.8352  1.0114
  153OSM   H13G17091   2.689   5.287   3.389  0.2177 -2.0114 -4.1874
  153OSM   C14F17092   2.815   5.421   3.498 -0.2544 -0.6857  0.3327
  153OSM   H14F17093   2.782   5.361   3.585 -1.0120 -0.2546  0.3496
  153OSM   H14G17094   2.749   5.510   3.488  0.0079 -0.3910  1.1572
  153OSM   C15F17095   2.964   5.477   3.510 -0.0870  0.4321 -0.2306
  153OSM   H15F17096   3.016   5.532   3.429 -0.1895  0.3971 -0.3202
  153OSM   H15G17097   3.027   5.385   3.517 -0.2480  0.3557  0.2176
  153OSM   C16F17098   2.977   5.545   3.651 -0.7067  0.3462 -0.9523
  153OSM   H16F17099   3.064   5.497   3.700 -0.0865 -0.9393 -3.2335
  153OSM   H16G17100   2.887   5.535   3.716  0.7126  1.6132  1.2799
  153OSM   C17F17101   3.024   5.695   3.635  0.4604 -0.0086 -0.2207
  153OSM   H17F17102   3.118   5.713   3.578  0.6566  0.5644  0.2650
  153OSM   H17G17103   3.048   5.725   3.739 -3.9162  1.7700  0.3632
  153OSM   C18F17104   2.915   5.795   3.574  0.1161  0.2080 -0.1294
  153OSM   H18F17105   2.959   5.895   3.550  4.5613 -0.7757  3.1663
  153OSM   H18G17106   2.835   5.798   3.651  0.4860 -0.7569  0.3006
  153OSM   H18H17107   2.874   5.743   3.485  4.7037  0.4345 -2.5825
  154OSM      N17108   1.062   4.718   1.641 -0.0960 -0.0316  0.3234
  154OSM    C1517109   0.970   4.834   1.642  0.4747  0.1154 -0.6556
  154OSM   H15A17110   1.003   4.925   1.691  1.7960  0.5246 -2.2513
  154OSM   H15B17111   0.869   4.811   1.672  0.7932 -1.0558 -0.4582
  154OSM   H15C17112   0.946   4.878   1.546 -1.9652  1.7929  0.6514
  154OSM    C1417113   1.004   4.619   1.546 -0.2381  0.6364 -0.8344
  154OSM   H14A17114   1.012   4.659   1.446  0.6657  1.0378 -0.6074
  154OSM   H14B17115   0.901   4.602   1.571 -0.7280  3.8631 -0.4380
  154OSM   H14C17116   1.059   4.526   1.550 -0.7491  0.3509 -0.4331
  154OSM    C1317117   1.202   4.761   1.596  0.5657  0.0581 -0.1431
  154OSM   H13A17118   1.230   4.838   1.666 -0.0546  0.1459  0.0127
  154OSM   H13B17119   1.185   4.804   1.498  2.2808  1.3287  0.1171
  154OSM   H13C17120   1.274   4.681   1.587  1.1947  0.4767  1.0574
  154OSM    C1217121   1.075   4.651   1.789 -0.5663 -0.2193 -0.1613
  154OSM   H12A17122   1.125   4.719   1.857  1.7876 -1.3800 -0.6727
  154OSM   H12B17123   1.134   4.562   1.774 -0.6869 -0.6447  1.7187
  154OSM    C1117124   0.950   4.609   1.868 -0.6583  0.1607 -0.1036
  154OSM   H11A17125   0.884   4.698   1.864 -1.9354 -0.7709 -0.1144
  154OSM   H11B17126   0.974   4.583   1.973 -1.6465  1.8087  0.5374
  154OSM      P17127   0.941   4.356   1.798 -0.0300 -0.0899  0.3123
  154OSM    O1317128   0.825   4.266   1.797  0.0953  1.0456 -0.7490
  154OSM    O1417129   1.038   4.353   1.690 -0.1027 -0.7502 -1.0253
  154OSM    O1117130   1.009   4.344   1.934 -0.4221 -0.0974 -0.0791
  154OSM    O1217131   0.884   4.499   1.807  0.1321  0.5336 -0.2119
  154OSM    C1S17132   1.035   4.221   2.005 -1.0504 -0.1521  0.1176
  154OSM    H1S17133   1.116   4.159   1.961 -0.3376 -0.5316  1.9408
  154OSM    H1T17134   0.944   4.159   2.006  0.1746 -1.9716  0.1310
  154OSM     NF17135   1.179   4.160   2.206  0.0177  0.7280 -0.6263
  154OSM    HNF17136   1.134   4.109   2.278 -0.2300  1.4355 -0.2794
  154OSM    C2S17137   1.091   4.263   2.149  0.3659 -0.6500 -0.0738
  154OSM    H2S17138   1.142   4.361   2.143 -0.9443  0.0006 -0.9595
  154OSM    C3S17139   0.966   4.295   2.241 -0.0899 -0.0052 -0.1691
  154OSM    H3S17140   0.912   4.199   2.254 -0.9213  0.3762 -0.7714
  154OSM     O317141   0.877   4.385   2.185 -0.5922 -0.2378  0.3669
  154OSM    HO317142   0.920   4.413   2.104 -0.0776  0.7682  0.9735
  154OSM    C4S17143   1.016   4.353   2.376 -0.1092 -0.1672  0.7920
  154OSM    H4S17144   1.053   4.457   2.374  2.9057 -1.1890  1.0602
  154OSM    C5S17145   1.011   4.292   2.496  0.6884 -0.0607  1.0035
  154OSM    H5S17146   0.953   4.201   2.512  0.9935 -0.3919  0.2382
  154OSM    C6S17147   1.070   4.352   2.624 -0.1709  0.6204  0.1136
  154OSM    H6S17148   1.162   4.296   2.650  0.1803  0.2293 -1.9000
  154OSM    H6T17149   0.998   4.331   2.706 -1.0439 -1.1494 -1.0611
  154OSM    C7S17150   1.096   4.499   2.612  1.5667  0.1424  0.4217
  154OSM    H7S17151   1.005   4.558   2.591 -0.2867 -2.1183  1.7614
  154OSM    H7T17152   1.166   4.513   2.527 -0.3491 -0.4013 -1.2905
  154OSM    C8S17153   1.153   4.558   2.741 -0.0766 -0.3970 -0.6513
  154OSM    H8S17154   1.177   4.665   2.723 -0.7560  0.2587  2.0507
  154OSM    H8T17155   1.244   4.499   2.764 -1.3954 -2.4548 -0.6479
  154OSM    C9S17156   1.052   4.559   2.853 -0.2502  0.1241 -0.0855
  154OSM    H9S17157   1.023   4.455   2.878 -1.3867  0.8638  1.8361
  154OSM    H9T17158   0.959   4.611   2.822 -1.0529  1.0594  3.6311
  154OSM   C10S17159   1.110   4.626   2.977 -0.2142  0.5149  0.1766
  154OSM   H10S17160   1.167   4.720   2.961  1.3547 -0.1858  1.4254
  154OSM   H10T17161   1.194   4.563   3.015 -2.0525 -2.1416 -0.0455
  154OSM   C11S17162   1.009   4.649   3.088  0.7240 -0.5694 -0.0426
  154OSM   H11S17163   0.964   4.550   3.109  0.0194 -0.5254 -1.2530
  154OSM   H11T17164   0.927   4.712   3.048 -1.0253 -1.3398  2.2504
  154OSM   C12S17165   1.074   4.707   3.217 -0.0410 -0.4524 -0.1191
  154OSM   H12S17166   1.151   4.780   3.186 -0.2594 -0.2228 -0.1262
  154OSM   H12T17167   1.112   4.622   3.278  1.2502 -0.7335 -1.2875
  154OSM   C13S17168   0.978   4.781   3.304  0.8469  0.4087 -0.8610
  154OSM   H13S17169   0.948   4.878   3.256 -0.3958  0.0901 -0.7603
  154OSM   H13T17170   1.046   4.812   3.385  2.0836 -1.5446 -1.1382
  154OSM   C14S17171   0.856   4.700   3.344  0.4754 -0.1143 -0.6382
  154OSM   H14S17172   0.890   4.618   3.411 -1.4981 -0.3553  0.1061
  154OSM   H14T17173   0.807   4.652   3.257  0.4906 -3.3801  1.0642
  154OSM   C15S17174   0.749   4.795   3.404 -0.6986  0.6811  0.7989
  154OSM   H15S17175   0.723   4.879   3.336 -1.8299  0.7592  1.3189
  154OSM   H15T17176   0.789   4.832   3.501  2.6318 -3.1032  0.9605
  154OSM   C16S17177   0.618   4.720   3.431 -0.6706 -0.5241 -0.0108
  154OSM   H16S17178   0.624   4.640   3.508 -0.9169 -1.4488 -0.9491
  154OSM   H16T17179   0.585   4.671   3.337 -1.7765  0.8880 -0.3670
  154OSM   C17S17180   0.510   4.819   3.477  0.2985 -0.6162  0.2335
  154OSM   H17S17181   0.547   4.921   3.455  1.8305 -1.3230 -0.5494
  154OSM   H17T17182   0.495   4.820   3.587  0.2955 -0.0465  0.2270
  154OSM   C18S17183   0.377   4.817   3.398  0.1416  0.5314 -0.1983
  154OSM   H18S17184   0.337   4.918   3.377 -1.0968  0.0944 -0.0009
  154OSM   H18T17185   0.298   4.758   3.450  0.9071  1.0639  1.6097
  154OSM   H18U17186   0.396   4.760   3.304  2.5751 -0.3466  0.7870
  154OSM    C1F17187   1.305   4.147   2.156  0.0569  0.1108  0.1073
  154OSM     OF17188   1.343   4.209   2.068  0.0632  0.4985 -0.7915
  154OSM    C2F17189   1.404   4.050   2.215  0.3946 -0.1752  0.6449
  154OSM    H2F17190   1.455   3.989   2.137 -0.1140  1.4013 -0.9681
  154OSM    H2G17191   1.354   3.973   2.277  0.5108 -1.0010 -0.2619
  154OSM    C3F17192   1.500   4.113   2.318  0.0017 -1.0172 -0.2809
  154OSM    H3F17193   1.536   4.201   2.261 -0.1696 -0.2791  0.7286
  154OSM    H3G17194   1.582   4.042   2.342  1.0078  0.3412  0.4093
  154OSM    C4F17195   1.436   4.169   2.443  0.0872 -0.2687 -0.1997
  154OSM    H4F17196   1.356   4.115   2.497  0.3507  0.6245  1.1025
  154OSM    H4G17197   1.368   4.251   2.411  1.1275  0.6338 -0.1131
  154OSM    C5F17198   1.533   4.200   2.555  0.3773 -0.0642  0.5802
  154OSM    H5F17199   1.615   4.268   2.521 -0.8895  1.7058  1.0076
  154OSM    H5G17200   1.580   4.101   2.574 -0.5997 -0.6105  0.1268
  154OSM    C6F17201   1.478   4.245   2.688 -0.1681  0.2093 -0.1187
  154OSM    H6F17202   1.432   4.346   2.691 -1.5357 -0.4182  0.7831
  154OSM    H6G17203   1.572   4.255   2.746  2.4028 -0.9722 -3.9108
  154OSM    C7F17204   1.380   4.149   2.760  0.0422 -0.6903 -0.0230
  154OSM    H7F17205   1.411   4.045   2.737 -0.4343 -1.1405  1.2953
  154OSM    H7G17206   1.285   4.155   2.702 -0.3604 -0.1913  0.6690
  154OSM    C8F17207   1.376   4.193   2.904  0.1104 -0.2778  0.0494
  154OSM    H8F17208   1.325   4.290   2.886  0.0967 -0.6305 -1.9055
  154OSM    H8G17209   1.475   4.225   2.943  0.1502 -2.7958  2.1364
  154OSM    C9F17210   1.311   4.103   3.012  0.5811  0.4988  0.1092
  154OSM    H9F17211   1.375   4.019   3.041  0.4687  0.6304  0.7478
  154OSM   C10F17212   1.189   4.101   3.050  0.5578  0.3544  0.0743
  154OSM   H10F17213   1.150   4.019   3.112  2.1492  0.3176  1.0689
  154OSM   C11F17214   1.079   4.190   2.999 -0.1259 -0.9412 -0.0182
  154OSM   H11F17215   1.014   4.143   2.922 -0.6217 -1.3198  0.6225
  154OSM   H11G17216   1.116   4.282   2.949 -1.4986 -0.5049 -0.2801
  154OSM   C12F17217   0.994   4.259   3.109 -0.2395  0.5537 -0.3049
  154OSM   H12F17218   0.913   4.189   3.138  0.4918 -0.6413 -1.0859
  154OSM   H12G17219   0.944   4.346   3.062  1.6354  1.2436 -1.0808
  154OSM   C13F17220   1.084   4.298   3.228  0.7697  0.6163  0.4189
  154OSM   H13F17221   1.144   4.388   3.200 -0.9170  1.4369 -0.6444
  154OSM   H13G17222   1.140   4.212   3.269  1.0322  0.9864  0.8399
  154OSM   C14F17223   0.986   4.338   3.347 -0.1119 -0.2647 -0.2398
  154OSM   H14F17224   0.913   4.417   3.317  0.0522  0.0238  0.1180
  154OSM   H14G17225   1.052   4.383   3.424 -1.8814  0.1975  1.0388
  154OSM   C15F17226   0.905   4.226   3.411 -0.1528 -0.4207  0.3004
  154OSM   H15F17227   0.977   4.163   3.467 -2.2886 -1.5868  1.8177
  154OSM   H15G17228   0.865   4.154   3.337 -2.4674 -0.2026  1.2807
  154OSM   C16F17229   0.800   4.261   3.519 -0.8203  0.1294 -0.1688
  154OSM   H16F17230   0.855   4.327   3.589  0.8870 -0.3786 -1.0018
  154OSM   H16G17231   0.775   4.168   3.575 -0.4510  0.2177  0.1429
  154OSM   C17F17232   0.671   4.327   3.460 -0.4895  0.7008 -1.1138
  154OSM   H17F17233   0.634   4.255   3.384  0.7850  1.2593 -2.2724
  154OSM   H17G17234   0.710   4.417   3.410  2.4307 -0.1444 -0.4465
  154OSM   C18F17235   0.570   4.354   3.572  0.3232  0.7438 -1.1467
  154OSM   H18F17236   0.613   4.412   3.656 -0.8578  0.1140 -0.0889
  154OSM   H18G17237   0.545   4.255   3.617  0.3295  1.5056  0.5792
  154OSM   H18H17238   0.481   4.413   3.540 -1.5770 -1.6548 -0.4643
  155OSM      N17239   1.975   1.116   1.724  0.0012  0.1587 -0.2675
  155OSM    C1517240   1.914   1.244   1.685  0.5057  0.2545  0.5276
  155OSM   H15A17241   1.954   1.328   1.740 -0.0062 -0.4292  1.9764
  155OSM   H15B17242   1.806   1.241   1.690  0.5469  0.9286  1.9865
  155OSM   H15C17243   1.937   1.269   1.583  3.6485 -0.3724  1.0364
  155OSM    C1417244   1.942   1.001   1.627 -0.4145 -0.1145  0.6289
  155OSM   H14A17245   1.943   1.039   1.526  0.3763  2.3777  1.5144
  155OSM   H14B17246   1.839   0.978   1.647 -1.4816  2.8321 -1.1338
  155OSM   H14C17247   2.021   0.929   1.644  0.2350  1.0569  2.7414
  155OSM    C1317248   2.125   1.135   1.715  0.3847  0.5529 -0.3625
  155OSM   H13A17249   2.147   1.205   1.794 -1.8531  1.1911 -0.2700
  155OSM   H13B17250   2.171   1.169   1.624  1.2524 -0.2549 -0.2265
  155OSM   H13C17251   2.180   1.047   1.747 -2.0717 -1.7338 -2.1746
  155OSM    C1217252   1.933   1.092   1.868 -0.3144  0.3708 -0.1904
  155OSM   H12A17253   1.956   1.180   1.926 -0.0438 -0.2541  0.6551
  155OSM   H12B17254   1.997   1.015   1.909  0.1734  1.0809  0.3928
  155OSM    C1117255   1.781   1.064   1.890 -0.1013 -0.7624  0.0824
  155OSM   H11A17256   1.763   1.032   1.995  0.9267 -0.5309  0.3354
  155OSM   H11B17257   1.757   0.976   1.828 -0.9214 -0.8787  0.5565
  155OSM      P17258   1.666   1.294   1.944 -0.2036  0.5761 -0.2250
  155OSM    O1317259   1.666   1.423   1.873  0.2030 -0.2228 -0.1059
  155OSM    O1417260   1.540   1.253   2.016 -0.0346 -0.1542  0.9205
  155OSM    O1117261   1.797   1.292   2.039  0.2128  0.3531 -0.0720
  155OSM    O1217262   1.700   1.177   1.846  0.0911 -0.3533  0.0512
  155OSM    C1S17263   1.826   1.413   2.105 -0.8638  0.8536 -0.4819
  155OSM    H1S17264   1.749   1.493   2.110 -0.5147  1.1765 -0.2081
  155OSM    H1T17265   1.904   1.471   2.052  1.5655  0.1445  2.1949
  155OSM     NF17266   1.862   1.514   2.336  0.3490  0.6074  0.1403
  155OSM    HNF17267   1.949   1.524   2.385  0.6149 -1.6488  0.1614
  155OSM    C2S17268   1.868   1.390   2.255  0.2285  0.3829 -0.4065
  155OSM    H2S17269   1.787   1.325   2.294 -0.0867  0.6974 -0.5346
  155OSM    C3S17270   2.006   1.315   2.261  0.2105 -0.0856  0.5869
  155OSM    H3S17271   2.084   1.386   2.226  1.2049 -0.7820  1.3775
  155OSM     O317272   2.016   1.205   2.173  0.4300  0.1769  0.1979
  155OSM    HO317273   1.939   1.221   2.117 -0.0402 -1.5324  0.3525
  155OSM    C4S17274   2.041   1.276   2.404 -0.0820 -0.4977 -0.9295
  155OSM    H4S17275   2.094   1.357   2.458 -1.8725  0.1940 -0.1824
  155OSM    C5S17276   2.006   1.169   2.479  0.5045  0.3100  0.0859
  155OSM    H5S17277   1.957   1.084   2.430  0.6891 -0.0855  0.5835
  155OSM    C6S17278   2.045   1.152   2.622  0.2036  0.4238  0.6172
  155OSM    H6S17279   2.083   1.249   2.662 -0.6342  1.2483 -0.5351
  155OSM    H6T17280   2.130   1.080   2.628 -0.8560 -0.6828  2.8561
  155OSM    C7S17281   1.935   1.103   2.718 -0.0943  0.6822  0.8519
  155OSM    H7S17282   1.981   1.093   2.818  0.4509  0.7867  0.6117
  155OSM    H7T17283   1.903   1.003   2.682  1.1804  0.9199 -1.0003
  155OSM    C8S17284   1.810   1.189   2.725  0.0906 -0.2517 -1.1566
  155OSM    H8S17285   1.753   1.194   2.630  1.8193  3.6168 -2.0713
  155OSM    H8T17286   1.837   1.295   2.743 -0.6014 -0.4135  1.0237
  155OSM    C9S17287   1.718   1.134   2.837  0.1177  0.1112 -0.2771
  155OSM    H9S17288   1.702   1.025   2.830  1.2111 -0.0745  0.0153
  155OSM    H9T17289   1.622   1.189   2.829  0.3463  0.4650 -0.6420
  155OSM   C10S17290   1.762   1.174   2.984 -0.3585  0.4372 -0.1295
  155OSM   H10S17291   1.678   1.221   3.038  0.6375  0.8739  1.0700
  155OSM   H10T17292   1.853   1.238   2.991  0.6411 -1.1145  1.8105
  155OSM   C11S17293   1.788   1.047   3.065  0.3880 -0.5806 -0.3759
  155OSM   H11S17294   1.841   0.979   2.995  2.0951  0.0132  0.3385
  155OSM   H11T17295   1.690   0.995   3.077 -0.8881  1.3349 -2.1836
  155OSM   C12S17296   1.861   1.067   3.196  0.3870  0.2935 -0.0691
  155OSM   H12S17297   1.808   1.145   3.254  1.7717  0.3726  1.1192
  155OSM   H12T17298   1.960   1.101   3.160  0.2688 -0.4034 -1.0823
  155OSM   C13S17299   1.868   0.933   3.270  0.1958 -0.1435  0.1770
  155OSM   H13S17300   1.870   0.845   3.202 -1.1591 -0.6989  0.8374
  155OSM   H13T17301   1.779   0.919   3.335  0.1639 -3.0368 -0.4453
  155OSM   C14S17302   1.999   0.915   3.355  0.2175 -0.6533 -0.1687
  155OSM   H14S17303   2.080   0.926   3.280 -1.3837  0.0997 -1.8152
  155OSM   H14T17304   2.000   0.816   3.406 -0.4378  0.1636  1.4603
  155OSM   C15S17305   2.002   1.028   3.459 -0.5420  0.1125  0.5389
  155OSM   H15S17306   1.903   1.022   3.510  0.4816  3.2248  3.0310
  155OSM   H15T17307   1.999   1.131   3.417  0.6479 -1.0583 -2.5878
  155OSM   C16S17308   2.102   1.014   3.568 -0.3243  0.1332 -0.0751
  155OSM   H16S17309   2.190   0.951   3.542 -0.0910 -0.5158  2.1866
  155OSM   H16T17310   2.045   0.953   3.641  0.1438 -0.5537 -0.2804
  155OSM   C17S17311   2.144   1.149   3.616 -0.0943 -0.8334 -0.2520
  155OSM   H17S17312   2.060   1.215   3.645  2.2365  1.9104  0.5404
  155OSM   H17T17313   2.194   1.208   3.537  0.1213 -1.4052 -0.5471
  155OSM   C18S17314   2.246   1.141   3.735 -0.6665  0.2528  0.3828
  155OSM   H18S17315   2.196   1.096   3.823  1.6515 -0.4758  1.3866
  155OSM   H18T17316   2.289   1.238   3.770 -0.7580  0.9423 -1.3765
  155OSM   H18U17317   2.334   1.083   3.700 -0.0802  1.3458  0.0183
  155OSM    C1F17318   1.766   1.610   2.349 -0.3715 -0.4962 -0.2602
  155OSM     OF17319   1.674   1.633   2.273  0.1465  0.5206 -0.6914
  155OSM    C2F17320   1.764   1.684   2.474 -0.5571 -0.0390  0.1643
  155OSM    H2F17321   1.656   1.673   2.499 -0.5772  1.2850  0.7316
  155OSM    H2G17322   1.768   1.791   2.443  1.0705 -0.1685 -0.0730
  155OSM    C3F17323   1.852   1.627   2.594 -0.6393 -0.6801 -0.5682
  155OSM    H3F17324   1.961   1.621   2.571 -0.3555  0.6988  0.3856
  155OSM    H3G17325   1.819   1.523   2.616  0.8871 -0.6696  1.9789
  155OSM    C4F17326   1.839   1.723   2.712 -0.2748 -0.7906 -0.9078
  155OSM    H4F17327   1.735   1.759   2.725 -0.7629 -1.7609 -1.9503
  155OSM    H4G17328   1.899   1.813   2.688  0.8072 -1.1100  0.5561
  155OSM    C5F17329   1.888   1.666   2.846  0.5249 -0.4599  0.4726
  155OSM    H5F17330   1.964   1.586   2.836 -1.4025 -2.4188  1.2740
  155OSM    H5G17331   1.800   1.632   2.906 -0.6263 -0.0616 -0.9652
  155OSM    C6F17332   1.943   1.784   2.918 -0.2618 -0.0275  0.3940
  155OSM    H6F17333   2.030   1.836   2.873  1.0190 -0.9404  1.7985
  155OSM    H6G17334   1.983   1.750   3.016  0.6354 -1.1130 -0.3510
  155OSM    C7F17335   1.839   1.894   2.947  0.0450  0.8989  0.0377
  155OSM    H7F17336   1.740   1.852   2.976 -0.1090  0.7430 -0.7151
  155OSM    H7G17337   1.831   1.948   2.850  0.5569  1.1169  0.1134
  155OSM    C8F17338   1.873   2.012   3.045  1.0710  0.4579  0.1631
  155OSM    H8F17339   1.795   2.088   3.030  0.9745 -0.0442 -2.0822
  155OSM    H8G17340   1.971   2.051   3.010  1.0598 -0.2749 -0.7008
  155OSM    C9F17341   1.884   1.965   3.189 -0.6194 -0.2836 -0.2077
  155OSM    H9F17342   1.823   1.879   3.220 -2.5915  0.7706 -1.0659
  155OSM   C10F17343   1.968   2.021   3.284 -0.0114 -0.6103 -0.2095
  155OSM   H10F17344   1.981   1.978   3.385  2.6295  1.3849  0.3427
  155OSM   C11F17345   2.055   2.143   3.274 -0.1969  0.8015  0.3899
  155OSM   H11F17346   2.005   2.206   3.198 -3.4523 -1.5360  0.5168
  155OSM   H11G17347   2.164   2.127   3.259 -0.3600  0.0496 -0.0237
  155OSM   C12F17348   2.044   2.229   3.405 -0.0931  0.1729 -0.4196
  155OSM   H12F17349   1.938   2.256   3.428 -0.6618 -1.2744 -1.2310
  155OSM   H12G17350   2.096   2.324   3.383 -0.5930  0.1458 -1.7538
  155OSM   C13F17351   2.118   2.166   3.525  0.5499 -1.1919 -0.3457
  155OSM   H13F17352   2.226   2.189   3.511  0.3454  0.0624  0.0683
  155OSM   H13G17353   2.105   2.056   3.534 -0.9634 -0.9479  0.5901
  155OSM   C14F17354   2.089   2.233   3.660  0.2476 -0.3105 -0.3602
  155OSM   H14F17355   1.980   2.222   3.679  0.4419  0.7875  1.4949
  155OSM   H14G17356   2.113   2.341   3.652 -0.0550 -0.1948  0.2634
  155OSM   C15F17357   2.163   2.164   3.776  0.9342 -0.0141  0.8984
  155OSM   H15F17358   2.270   2.149   3.748  0.3171 -3.0903  0.0555
  155OSM   H15G17359   2.120   2.062   3.765  0.4324  0.0081  2.5172
  155OSM   C16F17360   2.146   2.241   3.905  0.8081  0.2310  0.5620
  155OSM   H16F17361   2.206   2.335   3.899  1.3697 -0.1777 -0.2616
  155OSM   H16G17362   2.179   2.186   3.996  0.3820 -1.4401 -0.2680
  155OSM   C17F17363   1.999   2.275   3.941 -0.0453  0.3757 -0.3490
  155OSM   H17F17364   1.938   2.183   3.928  0.7787 -0.2264 -0.0122
  155OSM   H17G17365   1.954   2.342   3.865 -0.0337 -0.5073 -1.1422
  155OSM   C18F17366   1.980   2.336   4.084 -0.4983  0.2265 -0.7373
  155OSM   H18F17367   2.009   2.250   4.148 -0.1327  0.5667 -0.4385
  155OSM   H18G17368   1.875   2.358   4.112  0.1714  0.0202  2.1296
  155OSM   H18H17369   2.043   2.423   4.114 -0.1706 -0.8822  2.0294
  156OSM      N17370   5.143   6.303   1.632  0.1965 -0.3932  0.1676
  156OSM    C1517371   5.120   6.355   1.494  0.0908  0.3472  0.2809
  156OSM   H15A17372   5.146   6.293   1.410  0.2451 -1.4146  1.6084
  156OSM   H15B17373   5.167   6.451   1.476  1.0189  0.3294  2.4722
  156OSM   H15C17374   5.012   6.362   1.486 -0.0147 -1.9776 -0.7914
  156OSM    C1417375   5.103   6.409   1.729  0.0225 -0.0629  0.4710
  156OSM   H14A17376   4.997   6.408   1.753  0.0138 -2.1059  0.4499
  156OSM   H14B17377   5.145   6.501   1.692  0.7815 -0.1776  1.0563
  156OSM   H14C17378   5.146   6.385   1.825 -1.0740  0.4123  1.0939
  156OSM    C1317379   5.048   6.186   1.651 -0.1329 -0.0132  0.7789
  156OSM   H13A17380   5.054   6.154   1.755 -0.6657  1.8469  1.4040
  156OSM   H13B17381   5.084   6.107   1.588  1.0942 -1.6843  3.4597
  156OSM   H13C17382   4.945   6.196   1.619  0.3088 -0.6350 -0.8772
  156OSM    C1217383   5.291   6.260   1.646 -0.2830 -0.5409  0.2637
  156OSM   H12A17384   5.349   6.340   1.604 -2.5583  0.4007 -1.1999
  156OSM   H12B17385   5.298   6.177   1.576 -0.0271  0.4555 -0.9043
  156OSM    C1117386   5.327   6.218   1.793 -0.3312 -0.0591  0.7759
  156OSM   H11A17387   5.306   6.311   1.851  0.8224  0.0719  0.9857
  156OSM   H11B17388   5.434   6.188   1.787 -0.4045 -0.2275  0.3260
  156OSM      P17389   5.277   5.963   1.857  0.0869  0.2217 -0.0451
  156OSM    O1317390   5.161   5.898   1.922  0.7940 -0.0499  0.0762
  156OSM    O1417391   5.319   5.920   1.725 -0.3038  0.5380  0.0784
  156OSM    O1117392   5.394   5.935   1.960  0.1303  0.0716  0.2521
  156OSM    O1217393   5.244   6.112   1.847 -0.0468 -0.8100 -0.2224
  156OSM    C1S17394   5.434   6.035   2.055  0.1252  0.0042 -0.0781
  156OSM    H1S17395   5.365   6.122   2.057  0.2946  0.1348  2.1233
  156OSM    H1T17396   5.530   6.082   2.025  0.4124  0.2614  1.2074
  156OSM     NF17397   5.479   6.082   2.280  0.6673  0.1502 -1.3888
  156OSM    HNF17398   5.577   6.101   2.280  0.5603  0.9899  1.2463
  156OSM    C2S17399   5.437   5.970   2.196 -0.3364  1.0054 -0.3348
  156OSM    H2S17400   5.335   5.948   2.234  0.8939 -1.8797  1.4813
  156OSM    C3S17401   5.525   5.838   2.196 -0.2186  0.3048 -0.4103
  156OSM    H3S17402   5.631   5.864   2.175 -0.1063  0.6114  0.4939
  156OSM     O317403   5.493   5.749   2.085  0.1291  0.0645 -0.3168
  156OSM    HO317404   5.441   5.806   2.028  1.3618  0.1226 -1.3957
  156OSM    C4S17405   5.523   5.784   2.334 -0.1674  0.1095 -0.0419
  156OSM    H4S17406   5.607   5.824   2.393 -0.2088  1.0838 -0.6218
  156OSM    C5S17407   5.434   5.698   2.388 -0.5750 -0.5447  0.1227
  156OSM    H5S17408   5.353   5.664   2.321 -1.5859  3.5428 -0.8648
  156OSM    C6S17409   5.430   5.657   2.530  0.3839 -0.2697  0.2370
  156OSM    H6S17410   5.496   5.568   2.539 -0.0640 -0.6662 -0.3644
  156OSM    H6T17411   5.330   5.621   2.562 -0.2102  0.1111 -1.1361
  156OSM    C7S17412   5.481   5.750   2.638  0.0196  0.2412 -0.4141
  156OSM    H7S17413   5.460   5.858   2.622  1.4203  0.5636 -0.1488
  156OSM    H7T17414   5.591   5.738   2.639 -0.0214 -0.1158  0.3705
  156OSM    C8S17415   5.429   5.719   2.782 -0.0716  0.0656  0.0600
  156OSM    H8S17416   5.422   5.609   2.796  1.4177 -0.1882 -1.1096
  156OSM    H8T17417   5.324   5.754   2.776 -0.8698 -2.5760 -3.0185
  156OSM    C9S17418   5.502   5.793   2.899  0.5180 -0.1085  0.6926
  156OSM    H9S17419   5.506   5.903   2.887  0.6841  0.1348  2.7041
  156OSM    H9T17420   5.610   5.769   2.907  0.5221 -0.3777 -0.0987
  156OSM   C10S17421   5.429   5.780   3.040 -0.3661 -0.3997 -0.2390
  156OSM   H10S17422   5.430   5.676   3.078 -0.4233 -0.1178  0.5358
  156OSM   H10T17423   5.328   5.811   3.007 -0.0938 -0.9621 -1.6559
  156OSM   C11S17424   5.494   5.871   3.147  0.2251 -0.4198  0.1680
  156OSM   H11S17425   5.499   5.978   3.118  1.1607 -0.6245 -0.4687
  156OSM   H11T17426   5.603   5.851   3.155  0.4568  0.7415 -0.0110
  156OSM   C12S17427   5.420   5.842   3.274 -0.9842  0.0959  0.1166
  156OSM   H12S17428   5.431   5.735   3.303  2.2089  0.3160 -0.0904
  156OSM   H12T17429   5.310   5.852   3.260 -0.6657  1.1411 -1.7573
  156OSM   C13S17430   5.459   5.926   3.398  0.8660  0.2349 -0.2910
  156OSM   H13S17431   5.472   6.027   3.352 -0.6952 -0.9509 -3.5240
  156OSM   H13T17432   5.560   5.900   3.437  1.8673  0.3874 -2.6676
  156OSM   C14S17433   5.347   5.932   3.505 -0.1765  0.0617 -0.2071
  156OSM   H14S17434   5.381   5.846   3.566  4.8344  0.5175 -2.0619
  156OSM   H14T17435   5.247   5.903   3.468 -0.2078  0.9922 -0.8730
  156OSM   C15S17436   5.340   6.054   3.590 -0.4569 -1.1727  0.3260
  156OSM   H15S17437   5.269   6.039   3.675 -0.1405 -0.1283  0.7835
  156OSM   H15T17438   5.301   6.133   3.523 -1.3027  0.5623  2.7790
  156OSM   C16S17439   5.472   6.108   3.635  0.0284 -0.0997  0.2796
  156OSM   H16S17440   5.527   6.150   3.548 -2.7223  0.9118 -1.0461
  156OSM   H16T17441   5.527   6.018   3.670  1.9290  0.3045 -1.6031
  156OSM   C17S17442   5.449   6.222   3.726  0.0265 -0.2196 -0.6723
  156OSM   H17S17443   5.368   6.192   3.796  1.3662 -0.6617  0.7114
  156OSM   H17T17444   5.395   6.306   3.678  1.3088 -0.4667 -2.5717
  156OSM   C18S17445   5.572   6.269   3.810 -0.2967 -0.2110 -0.3914
  156OSM   H18S17446   5.652   6.308   3.744  0.4949  0.0491  0.7139
  156OSM   H18T17447   5.613   6.186   3.871 -1.8018 -1.4957 -1.0879
  156OSM   H18U17448   5.558   6.353   3.880  1.1933  1.6724 -2.3050
  156OSM    C1F17449   5.401   6.188   2.307 -0.2546 -0.5520  0.0045
  156OSM     OF17450   5.280   6.188   2.269 -0.4682  0.6876 -0.4024
  156OSM    C2F17451   5.458   6.312   2.370  0.3424 -0.2944 -0.1287
  156OSM    H2F17452   5.380   6.391   2.361  1.5074  0.7116 -1.7711
  156OSM    H2G17453   5.542   6.358   2.312  1.0790 -1.1890  0.2213
  156OSM    C3F17454   5.498   6.294   2.520  0.4281 -0.9119 -0.4602
  156OSM    H3F17455   5.530   6.391   2.563  0.1317 -0.5927 -0.9607
  156OSM    H3G17456   5.589   6.230   2.525 -1.1456 -3.1109  1.6088
  156OSM    C4F17457   5.375   6.243   2.607 -0.1743 -0.6231  1.0664
  156OSM    H4F17458   5.354   6.144   2.561 -0.6193 -0.8145  1.6753
  156OSM    H4G17459   5.286   6.306   2.587  0.5991 -0.4262 -1.9472
  156OSM    C5F17460   5.405   6.217   2.749 -0.3219  0.0707  0.4618
  156OSM    H5F17461   5.495   6.154   2.766  0.3593  0.9118 -0.0080
  156OSM    H5G17462   5.319   6.162   2.794 -0.8301  0.0978 -0.4684
  156OSM    C6F17463   5.419   6.343   2.832 -0.7763  0.0210 -0.1906
  156OSM    H6F17464   5.323   6.399   2.831 -0.0937  1.3316  2.2398
  156OSM    H6G17465   5.498   6.407   2.788 -0.8051  0.7524  0.8023
  156OSM    C7F17466   5.458   6.334   2.977 -0.0313 -0.4868 -0.4563
  156OSM    H7F17467   5.495   6.432   3.014 -0.5203  0.1141 -1.5562
  156OSM    H7G17468   5.541   6.261   2.983  1.2951  1.0714  0.6849
  156OSM    C8F17469   5.340   6.295   3.065  0.5192  0.2524 -0.0176
  156OSM    H8F17470   5.287   6.207   3.023  2.1075 -2.1367  2.7650
  156OSM    H8G17471   5.275   6.385   3.062 -2.1236 -1.5192  2.0349
  156OSM    C9F17472   5.397   6.251   3.201 -0.6880  0.1856 -0.4792
  156OSM    H9F17473   5.440   6.149   3.197 -0.7263 -0.0070  2.6433
  156OSM   C10F17474   5.410   6.316   3.311  0.0080 -0.2399 -0.8298
  156OSM   H10F17475   5.489   6.287   3.382 -1.5810  1.4586  1.7390
  156OSM   C11F17476   5.359   6.457   3.328  0.0678 -0.2626  0.5298
  156OSM   H11F17477   5.388   6.519   3.241 -1.6120 -1.8786 -1.2426
  156OSM   H11G17478   5.406   6.504   3.418 -0.0600 -0.8032  0.8838
  156OSM   C12F17479   5.203   6.476   3.340 -0.0250  0.2535  0.0302
  156OSM   H12F17480   5.155   6.416   3.259  3.2707  0.3209 -2.0582
  156OSM   H12G17481   5.174   6.583   3.335 -0.4362  0.1783  0.7066
  156OSM   C13F17482   5.149   6.440   3.480  0.1476  0.1867  0.3187
  156OSM   H13F17483   5.228   6.491   3.540  0.4503  1.0953 -0.8406
  156OSM   H13G17484   5.158   6.333   3.509  0.9109  0.4079  0.9165
  156OSM   C14F17485   5.012   6.503   3.502 -0.5399 -0.8536 -0.0995
  156OSM   H14F17486   4.935   6.443   3.449 -0.9750 -1.5803  1.3515
  156OSM   H14G17487   5.010   6.611   3.475 -2.4046 -1.1575 -1.3294
  156OSM   C15F17488   4.975   6.505   3.656  1.0238 -0.4487 -0.0175
  156OSM   H15F17489   5.056   6.561   3.707  1.9695 -0.8744 -1.0379
  156OSM   H15G17490   4.989   6.401   3.691  2.0977 -0.2848  0.0380
  156OSM   C16F17491   4.834   6.555   3.687 -0.2354  0.0100  0.7966
  156OSM   H16F17492   4.771   6.533   3.598  1.7763  0.1993 -0.7184
  156OSM   H16G17493   4.840   6.666   3.695  1.2074  0.0328 -0.3451
  156OSM   C17F17494   4.750   6.470   3.781 -0.4589  0.4336  0.5186
  156OSM   H17F17495   4.778   6.483   3.888  0.5135 -0.1590  0.3483
  156OSM   H17G17496   4.769   6.365   3.751 -0.9293  0.9346 -1.6307
  156OSM   C18F17497   4.608   6.516   3.782  0.9607 -0.6789 -0.3802
  156OSM   H18F17498   4.550   6.501   3.688 -3.5753 -1.3332  2.3485
  156OSM   H18G17499   4.598   6.624   3.806 -0.8188 -0.8545 -0.2590
  156OSM   H18H17500   4.549   6.468   3.862  1.7047  0.3701  0.8135
  157OSM      N17501   4.851   0.620   1.717 -0.2096  0.9853  0.0940
  157OSM    C1517502   4.733   0.593   1.633  0.2940  0.5297  0.0125
  157OSM   H15A17503   4.659   0.534   1.685 -0.8843  0.4629 -1.7150
  157OSM   H15B17504   4.753   0.534   1.545  3.0029 -2.8820  2.7774
  157OSM   H15C17505   4.683   0.683   1.600 -0.7793 -0.4089 -0.9204
  157OSM    C1417506   4.965   0.665   1.629  0.4264 -0.1143  0.2759
  157OSM   H14A17507   5.037   0.720   1.688 -0.4874 -0.1086  1.4340
  157OSM   H14B17508   4.923   0.724   1.550 -2.9040 -2.3506  0.2674
  157OSM   H14C17509   5.006   0.581   1.575  1.6765  0.6372  0.0454
  157OSM    C1317510   4.834   0.742   1.808  0.4588  0.1520 -0.4597
  157OSM   H13A17511   4.776   0.819   1.759  1.5130 -0.4983 -2.7879
  157OSM   H13B17512   4.922   0.780   1.856  0.5070  2.6956 -2.4592
  157OSM   H13C17513   4.769   0.702   1.885  2.9687 -1.4055  0.9021
  157OSM    C1217514   4.886   0.502   1.795 -0.2991 -1.0261  0.0740
  157OSM   H12A17515   4.971   0.521   1.859  2.2335 -3.1854 -2.4771
  157OSM   H12B17516   4.911   0.421   1.729 -1.2932 -0.3319 -1.1774
  157OSM    C1117517   4.771   0.443   1.876 -0.7008  0.2325 -0.2563
  157OSM   H11A17518   4.797   0.351   1.933  1.5063  0.5186 -0.7508
  157OSM   H11B17519   4.693   0.403   1.808  0.5183 -0.2719 -1.3842
  157OSM      P17520   4.786   0.552   2.109  0.0367 -0.1475  0.5077
  157OSM    O1317521   4.713   0.464   2.202 -0.5265 -0.1255 -0.5874
  157OSM    O1417522   4.934   0.540   2.093  0.3189  0.9132 -0.4359
  157OSM    O1117523   4.740   0.697   2.148 -0.4473 -0.3154 -0.1989
  157OSM    O1217524   4.720   0.541   1.964  0.3879  0.2646 -0.5152
  157OSM    C1S17525   4.607   0.731   2.177  0.0434 -0.1507  0.0474
  157OSM    H1S17526   4.532   0.652   2.159 -1.0145  1.2833 -2.0201
  157OSM    H1T17527   4.580   0.818   2.114  0.0406 -1.0692 -1.2396
  157OSM     NF17528   4.447   0.822   2.338 -0.4589  0.5995 -0.2895
  157OSM    HNF17529   4.420   0.915   2.315  0.1992  0.5093 -1.4505
  157OSM    C2S17530   4.584   0.771   2.321 -0.2062 -0.7851 -0.2797
  157OSM    H2S17531   4.595   0.678   2.382 -0.4675 -0.1493  0.7532
  157OSM    C3S17532   4.689   0.874   2.373  0.4725 -0.9997 -0.2673
  157OSM    H3S17533   4.660   0.967   2.319  1.1841 -1.0327 -0.7105
  157OSM     O317534   4.822   0.856   2.344 -0.3876  0.0009 -0.3848
  157OSM    HO317535   4.815   0.790   2.274 -1.0446 -1.8881  1.4040
  157OSM    C4S17536   4.668   0.902   2.517 -0.6435  0.3457 -0.0043
  157OSM    H4S17537   4.688   0.819   2.587 -1.0109  1.8763  1.9850
  157OSM    C5S17538   4.622   1.020   2.569  0.6020 -0.5397 -0.8727
  157OSM    H5S17539   4.613   1.107   2.502  0.9303 -0.1913 -0.4631
  157OSM    C6S17540   4.581   1.044   2.711  0.3514 -0.1037 -0.0762
  157OSM    H6S17541   4.493   1.113   2.717 -0.5646 -1.1186 -1.3273
  157OSM    H6T17542   4.663   1.102   2.756  0.2171  0.9631 -1.1592
  157OSM    C7S17543   4.522   0.932   2.795  0.2076  0.4182 -0.0530
  157OSM    H7S17544   4.468   0.861   2.727  1.3904  0.1083 -0.6705
  157OSM    H7T17545   4.455   0.977   2.871  1.9238  2.6567  0.1604
  157OSM    C8S17546   4.635   0.852   2.857 -0.0703 -0.6744 -0.2350
  157OSM    H8S17547   4.697   0.931   2.903  1.7753 -1.3441 -1.5258
  157OSM    H8T17548   4.699   0.786   2.794  1.8507 -0.9563  1.9486
  157OSM    C9S17549   4.589   0.765   2.977  0.0044  0.4074 -0.3387
  157OSM    H9S17550   4.536   0.676   2.937  0.3666  0.1957 -0.3559
  157OSM    H9T17551   4.510   0.815   3.037  0.3441 -0.3578  0.7548
  157OSM   C10S17552   4.694   0.711   3.065 -0.1905  0.1557 -0.2195
  157OSM   H10S17553   4.773   0.671   2.999 -1.3468 -0.6399 -1.1348
  157OSM   H10T17554   4.647   0.628   3.123 -1.4645  1.3461  0.4954
  157OSM   C11S17555   4.754   0.814   3.162 -0.4141  0.1196 -0.3667
  157OSM   H11S17556   4.757   0.910   3.107  0.4100  0.6650  0.6024
  157OSM   H11T17557   4.854   0.779   3.197 -0.5363 -0.6052 -0.7275
  157OSM   C12S17558   4.667   0.823   3.288  0.0879  0.2567  0.6491
  157OSM   H12S17559   4.658   0.723   3.335  0.4343 -0.4960 -0.8676
  157OSM   H12T17560   4.562   0.847   3.259 -1.4852 -3.7289  2.6833
  157OSM   C13S17561   4.708   0.927   3.395 -0.2859  0.3572  0.8163
  157OSM   H13S17562   4.681   1.033   3.373 -1.4561 -0.0411  0.2909
  157OSM   H13T17563   4.817   0.913   3.408 -0.2252 -1.5256 -1.3266
  157OSM   C14S17564   4.646   0.895   3.532 -0.2330 -0.1524 -0.0464
  157OSM   H14S17565   4.661   0.789   3.561  0.9732 -0.0021 -0.0719
  157OSM   H14T17566   4.541   0.930   3.529  1.2577  4.7342  0.3759
  157OSM   C15S17567   4.697   0.979   3.652 -0.0124  0.3432 -0.3284
  157OSM   H15S17568   4.643   0.947   3.743  1.6007  1.3120  0.9832
  157OSM   H15T17569   4.676   1.082   3.616  2.6817  1.8333  2.2364
  157OSM   C16S17570   4.844   0.951   3.689  0.6487 -0.1778  0.1298
  157OSM   H16S17571   4.905   1.004   3.612 -1.5466  2.2558 -0.0214
  157OSM   H16T17572   4.862   0.842   3.679 -0.4693 -0.5208  1.6919
  157OSM   C17S17573   4.879   0.998   3.832 -0.0543 -0.2155 -0.4713
  157OSM   H17S17574   4.986   0.970   3.842  1.0043  2.7071 -2.8906
  157OSM   H17T17575   4.818   0.932   3.897 -2.7127  1.0159 -1.6424
  157OSM   C18S17576   4.847   1.143   3.862  0.1128 -0.0771  0.1193
  157OSM   H18S17577   4.744   1.181   3.850  0.2027 -0.0062 -0.4319
  157OSM   H18T17578   4.902   1.210   3.793  1.0158  0.8619  1.7231
  157OSM   H18U17579   4.884   1.168   3.964 -0.1027 -1.6975  0.6119
  157OSM    C1F17580   4.341   0.740   2.344  0.4801 -0.0765 -0.2847
  157OSM     OF17581   4.359   0.617   2.341  0.6699 -0.2239 -0.1340
  157OSM    C2F17582   4.201   0.808   2.342  0.1677 -0.8251  0.2423
  157OSM    H2F17583   4.155   0.768   2.249 -0.2858  2.2355 -0.9179
  157OSM    H2G17584   4.215   0.918   2.333  0.7476 -0.9094  0.0566
  157OSM    C3F17585   4.099   0.794   2.459  0.2013  0.4892  0.8573
  157OSM    H3F17586   4.051   0.694   2.461 -1.0547  1.0375 -0.5428
  157OSM    H3G17587   4.017   0.868   2.442  1.5016  1.2958 -2.4037
  157OSM    C4F17588   4.154   0.832   2.595 -0.0686 -0.7277  0.9535
  157OSM    H4F17589   4.200   0.933   2.587  1.5663 -1.3559  2.0635
  157OSM    H4G17590   4.245   0.767   2.600  0.3214 -0.6731 -3.0729
  157OSM    C5F17591   4.047   0.823   2.705 -0.6752  0.1751 -0.4629
  157OSM    H5F17592   4.004   0.720   2.714 -0.8810  0.2503 -0.5963
  157OSM    H5G17593   3.963   0.885   2.666 -2.2573 -0.9968  0.9498
  157OSM    C6F17594   4.091   0.863   2.844  0.4533 -0.5623  0.3034
  157OSM    H6F17595   3.997   0.886   2.899 -1.7321  0.3847 -3.6413
  157OSM    H6G17596   4.152   0.954   2.830  2.7867 -2.0040  0.8524
  157OSM    C7F17597   4.160   0.756   2.927  0.9944 -0.2611 -0.0477
  157OSM    H7F17598   4.254   0.750   2.868  1.0449  2.4163 -0.3258
  157OSM    H7G17599   4.102   0.661   2.929 -2.1468  1.6027  0.6848
  157OSM    C8F17600   4.189   0.818   3.070 -0.6566 -0.1107  0.3079
  157OSM    H8F17601   4.098   0.851   3.125  0.4957  1.0556  1.5514
  157OSM    H8G17602   4.248   0.909   3.043 -1.1986 -0.0058 -0.5808
  157OSM    C9F17603   4.266   0.719   3.155  0.7418 -0.2089  0.5619
  157OSM    H9F17604   4.334   0.648   3.105  1.3941  2.2641 -2.2906
  157OSM   C10F17605   4.284   0.734   3.291  0.4012  0.5048 -0.1364
  157OSM   H10F17606   4.342   0.659   3.346 -0.5507  0.7005  1.1725
  157OSM   C11F17607   4.238   0.835   3.392 -0.2175 -0.2257  0.3511
  157OSM   H11F17608   4.202   0.927   3.343 -2.2002 -1.9524 -1.5489
  157OSM   H11G17609   4.334   0.862   3.441  0.6281  0.1618 -1.4890
  157OSM   C12F17610   4.132   0.779   3.491 -0.2799 -0.1438 -0.5377
  157OSM   H12F17611   4.182   0.697   3.547  0.3053 -0.6379 -1.7870
  157OSM   H12G17612   4.049   0.739   3.428  1.4066  0.1766 -3.0084
  157OSM   C13F17613   4.091   0.893   3.592 -0.1677  0.2563  0.4027
  157OSM   H13F17614   4.008   0.861   3.658 -0.2449 -2.0529 -0.7503
  157OSM   H13G17615   4.046   0.985   3.548 -2.7646 -0.4876  1.3933
  157OSM   C14F17616   4.205   0.936   3.679 -0.2425  0.2480 -0.7133
  157OSM   H14F17617   4.304   0.921   3.631  1.0294 -0.2803  1.9753
  157OSM   H14G17618   4.202   0.867   3.766  0.8875 -0.3931 -1.1752
  157OSM   C15F17619   4.192   1.079   3.748 -0.0577  0.3484  0.7407
  157OSM   H15F17620   4.111   1.069   3.823 -1.1122 -1.4406 -0.5920
  157OSM   H15G17621   4.163   1.153   3.670  1.1703  0.9678  0.8521
  157OSM   C16F17622   4.315   1.124   3.834  0.0853  0.5671  1.0486
  157OSM   H16F17623   4.276   1.213   3.890  0.7251  0.4118  1.7427
  157OSM   H16G17624   4.407   1.150   3.778  0.0322  0.9926  1.1512
  157OSM   C17F17625   4.356   1.030   3.940  0.4232  0.0201 -0.1469
  157OSM   H17F17626   4.421   0.952   3.893 -0.8262 -0.2987 -1.3842
  157OSM   H17G17627   4.264   0.983   3.982 -0.4256  1.1274 -0.7534
  157OSM   C18F17628   4.446   1.095   4.046  0.2153  0.1516  0.5590
  157OSM   H18F17629   4.454   1.043   4.144  1.3033  1.2989  1.0952
  157OSM   H18G17630   4.399   1.192   4.073  1.4538  1.4444 -1.8084
  157OSM   H18H17631   4.547   1.123   4.011 -0.2192 -0.3076 -1.1458
  158OSM      N17632   1.383   6.809   1.523  0.0079  0.5968 -0.9478
  158OSM    C1517633   1.417   6.859   1.384  0.0603 -0.2246 -0.2765
  158OSM   H15A17634   1.389   6.787   1.309  1.3610  0.3106 -1.2976
  158OSM   H15B17635   1.519   6.891   1.373 -0.5760  2.2101  0.5039
  158OSM   H15C17636   1.357   6.946   1.364  1.2761  0.1495 -2.3936
  158OSM    C1417637   1.373   6.924   1.617 -0.1665 -0.8277  0.0933
  158OSM   H14A17638   1.296   6.995   1.592 -0.1656 -0.0680  2.1492
  158OSM   H14B17639   1.463   6.981   1.636 -0.4591 -1.0096  2.1474
  158OSM   H14C17640   1.345   6.881   1.711 -0.7573 -0.4082  0.1129
  158OSM    C1317641   1.248   6.751   1.498 -0.0235  0.4986  0.2611
  158OSM   H13A17642   1.186   6.825   1.451  0.7536 -0.3025 -2.0619
  158OSM   H13B17643   1.206   6.730   1.596 -0.7351 -0.6161 -0.2739
  158OSM   H13C17644   1.251   6.659   1.441 -2.0161  0.2809  0.4643
  158OSM    C1217645   1.477   6.703   1.575 -0.5687 -0.3824 -0.2433
  158OSM   H12A17646   1.489   6.624   1.503 -0.2304 -1.1741  0.6783
  158OSM   H12B17647   1.435   6.654   1.662 -1.4370  1.1064  0.1920
  158OSM    C1117648   1.623   6.748   1.616  0.5841 -0.0745  0.2513
  158OSM   H11A17649   1.660   6.788   1.519 -2.8023  2.8220  0.0767
  158OSM   H11B17650   1.690   6.666   1.651  1.3905 -0.0795 -1.2509
  158OSM      P17651   1.601   6.818   1.868  0.4716 -0.0981 -0.1443
  158OSM    O1317652   1.623   6.929   1.960 -0.2304 -0.5285  0.3451
  158OSM    O1417653   1.462   6.770   1.886  0.6307  0.0752  0.5415
  158OSM    O1117654   1.710   6.702   1.895  0.4720  0.3300 -0.3077
  158OSM    O1217655   1.630   6.854   1.714 -0.2362  0.3067  0.1775
  158OSM    C1S17656   1.736   6.670   2.036  0.3917  0.1993  0.4076
  158OSM    H1S17657   1.696   6.751   2.100  0.3452  1.1355 -0.7876
  158OSM    H1T17658   1.845   6.667   2.053  0.6059 -1.7281 -1.0939
  158OSM     NF17659   1.692   6.512   2.217 -0.2734  0.0991  0.9442
  158OSM    HNF17660   1.735   6.426   2.244  0.3793 -0.3140 -1.3020
  158OSM    C2S17661   1.682   6.534   2.074 -0.3648 -0.7218 -0.6706
  158OSM    H2S17662   1.575   6.532   2.044 -0.7222  0.5216  0.4976
  158OSM    C3S17663   1.745   6.419   1.993  0.5921  0.1638 -0.0151
  158OSM    H3S17664   1.854   6.441   2.004  0.7059 -1.4035  2.3090
  158OSM     O317665   1.721   6.424   1.856 -0.1608  0.6337 -0.1766
  158OSM    HO317666   1.688   6.514   1.849  0.3104  0.7969 -0.3358
  158OSM    C4S17667   1.707   6.284   2.060  0.3937  0.6221  0.5839
  158OSM    H4S17668   1.598   6.272   2.070  0.1740  1.2478 -0.8703
  158OSM    C5S17669   1.786   6.179   2.082 -0.5165  0.1960 -0.5259
  158OSM    H5S17670   1.890   6.180   2.048 -0.1711 -0.8134  0.4725
  158OSM    C6S17671   1.745   6.057   2.157  0.0056 -0.0584  0.0786
  158OSM    H6S17672   1.759   5.959   2.105  1.0794 -0.8238  1.7485
  158OSM    H6T17673   1.635   6.057   2.167  0.0288  0.8237  0.3526
  158OSM    C7S17674   1.790   6.051   2.301 -0.3410  0.7127 -0.2720
  158OSM    H7S17675   1.752   6.141   2.353 -0.8896  0.3258  0.0007
  158OSM    H7T17676   1.901   6.049   2.310 -0.4910 -0.6586  1.5868
  158OSM    C8S17677   1.743   5.926   2.376  0.4889 -0.2014  0.7643
  158OSM    H8S17678   1.758   5.837   2.312 -2.6146  1.5791 -2.6732
  158OSM    H8T17679   1.634   5.946   2.390  0.3873  0.4738 -0.8156
  158OSM    C9S17680   1.813   5.902   2.511 -0.1302  0.7366 -0.0524
  158OSM    H9S17681   1.923   5.894   2.498 -0.2892  1.6685 -2.1983
  158OSM    H9T17682   1.768   5.806   2.543  0.4455  0.7351  0.7678
  158OSM   C10S17683   1.794   6.001   2.633  0.5757  0.0099 -0.3138
  158OSM   H10S17684   1.684   6.012   2.648  0.8040  0.1196  1.4355
  158OSM   H10T17685   1.830   6.100   2.597 -0.0014 -0.3698 -1.9857
  158OSM   C11S17686   1.850   5.930   2.759 -0.6620 -0.0409 -0.5247
  158OSM   H11S17687   1.959   5.909   2.759 -0.7630 -0.5845 -1.1411
  158OSM   H11T17688   1.802   5.831   2.765 -1.0885  0.2327  0.8500
  158OSM   C12S17689   1.816   6.010   2.886 -0.1833  0.3002  0.3098
  158OSM   H12S17690   1.706   6.016   2.899 -0.1188  2.1110  0.1067
  158OSM   H12T17691   1.848   6.115   2.875  0.2293  0.0964 -0.4731
  158OSM   C13S17692   1.888   5.966   3.018 -0.5466 -0.2137  0.4181
  158OSM   H13S17693   1.859   6.051   3.084  0.6123 -0.3597  1.1204
  158OSM   H13T17694   1.996   5.981   2.998 -0.7848 -0.9081 -1.5275
  158OSM   C14S17695   1.842   5.834   3.078 -0.4441 -0.0030  0.0626
  158OSM   H14S17696   1.868   5.749   3.010  0.3742  0.5667 -0.3539
  158OSM   H14T17697   1.732   5.841   3.084 -0.4870  1.3364 -1.6946
  158OSM   C15S17698   1.899   5.817   3.222  0.3422  0.5496 -0.0713
  158OSM   H15S17699   1.893   5.917   3.270  1.2042  0.3502  0.4721
  158OSM   H15T17700   2.007   5.792   3.231 -0.0685 -0.4454  2.4862
  158OSM   C16S17701   1.833   5.710   3.306  0.0561  0.2820  0.2329
  158OSM   H16S17702   1.830   5.609   3.261  1.8453 -0.0842  0.9080
  158OSM   H16T17703   1.728   5.744   3.321  0.1573  0.8920 -0.4118
  158OSM   C17S17704   1.897   5.697   3.450  0.6402 -0.3829  0.1237
  158OSM   H17S17705   1.868   5.795   3.493 -0.1900 -0.8153  0.5703
  158OSM   H17T17706   2.008   5.687   3.455  0.7279 -0.4440 -1.6131
  158OSM   C18S17707   1.831   5.593   3.537  1.4567 -0.2995  0.0218
  158OSM   H18S17708   1.723   5.614   3.550  1.5440  1.9579 -2.5153
  158OSM   H18T17709   1.882   5.592   3.637  0.0688 -3.6033  0.7551
  158OSM   H18U17710   1.849   5.489   3.502 -2.3263 -0.7807 -0.6585
  158OSM    C1F17711   1.623   6.571   2.311 -0.0202  0.4073 -0.3238
  158OSM     OF17712   1.525   6.643   2.289  0.6079  0.2264 -0.2351
  158OSM    C2F17713   1.665   6.542   2.450 -1.4472 -0.1783 -0.0828
  158OSM    H2F17714   1.772   6.572   2.459 -1.1975 -1.2792  0.6048
  158OSM    H2G17715   1.661   6.434   2.475  0.9800 -0.2520  0.1284
  158OSM    C3F17716   1.604   6.630   2.561  1.1457 -0.6396 -0.5275
  158OSM    H3F17717   1.498   6.600   2.577  0.2467  1.0571 -2.9954
  158OSM    H3G17718   1.604   6.738   2.533 -1.6785 -0.0591  1.4660
  158OSM    C4F17719   1.679   6.624   2.699 -0.1656  0.0894  0.0308
  158OSM    H4F17720   1.649   6.706   2.768  0.0271 -1.7727  2.3847
  158OSM    H4G17721   1.785   6.639   2.670 -0.8342  0.8318 -2.1406
  158OSM    C5F17722   1.664   6.489   2.771  0.2267  0.3430 -0.1443
  158OSM    H5F17723   1.683   6.408   2.698  2.9471  1.7422 -1.0475
  158OSM    H5G17724   1.561   6.482   2.811  0.0181  1.8900 -0.3820
  158OSM    C6F17725   1.753   6.474   2.886  0.2521  0.8390 -0.0050
  158OSM    H6F17726   1.747   6.561   2.954 -2.8786  1.3987 -0.9246
  158OSM    H6G17727   1.862   6.478   2.866  0.7683  2.3716  2.8626
  158OSM    C7F17728   1.719   6.355   2.976  0.6039  0.2207  0.1155
  158OSM    H7F17729   1.816   6.306   2.997 -0.0662 -1.8241 -1.2736
  158OSM    H7G17730   1.658   6.283   2.917  0.5341  0.0729  0.3690
  158OSM    C8F17731   1.640   6.377   3.102 -0.3159 -0.5019  1.0163
  158OSM    H8F17732   1.554   6.438   3.065 -0.6525 -1.2353  0.5950
  158OSM    H8G17733   1.695   6.441   3.175  2.9981 -2.5727  0.4055
  158OSM    C9F17734   1.596   6.254   3.179 -0.5280  0.1102  0.1173
  158OSM    H9F17735   1.628   6.159   3.133 -1.3933 -1.3118  2.3662
  158OSM   C10F17736   1.549   6.256   3.296 -0.4500 -0.0347 -0.5877
  158OSM   H10F17737   1.548   6.155   3.342  1.2478 -0.8862 -2.3893
  158OSM   C11F17738   1.511   6.375   3.379  0.1685  0.0702 -1.0542
  158OSM   H11F17739   1.469   6.466   3.331  2.0165 -0.2577 -3.3674
  158OSM   H11G17740   1.606   6.410   3.427  0.2669 -1.3961 -0.1456
  158OSM   C12F17741   1.434   6.337   3.507 -0.2869  0.6466 -0.4379
  158OSM   H12F17742   1.472   6.240   3.545 -1.3163  1.3340  2.5201
  158OSM   H12G17743   1.330   6.304   3.486 -1.2079  0.3771  3.9237
  158OSM   C13F17744   1.446   6.429   3.629 -0.7445  0.1322  0.2044
  158OSM   H13F17745   1.427   6.535   3.601  0.4204  1.5186  4.3248
  158OSM   H13G17746   1.551   6.431   3.665  0.0565  0.1887 -2.0396
  158OSM   C14F17747   1.358   6.379   3.742  0.5417 -0.2661 -0.6376
  158OSM   H14F17748   1.381   6.271   3.758  0.6235  0.0079  1.1963
  158OSM   H14G17749   1.250   6.390   3.718  0.5454  2.1829  0.3503
  158OSM   C15F17750   1.395   6.448   3.883 -0.3979 -0.5671  0.1753
  158OSM   H15F17751   1.324   6.534   3.884 -0.3916 -0.5693  0.6279
  158OSM   H15G17752   1.499   6.485   3.874 -0.9078  0.2744 -3.2125
  158OSM   C16F17753   1.366   6.361   4.008 -0.0687  0.2492 -0.1589
  158OSM   H16F17754   1.401   6.422   4.094 -1.1893 -0.4350  0.7919
  158OSM   H16G17755   1.435   6.275   4.012 -1.0256 -0.4659  1.3019
  158OSM   C17F17756   1.227   6.305   4.025  0.5673  0.9526 -0.9207
  158OSM   H17F17757   1.210   6.241   3.936 -1.0740  0.4376 -0.2590
  158OSM   H17G17758   1.148   6.383   4.027  1.5786  1.9856  0.3212
  158OSM   C18F17759   1.198   6.224   4.152  0.7135 -0.6387  0.2027
  158OSM   H18F17760   1.217   6.279   4.246 -1.1945 -0.4448  0.4989
  158OSM   H18G17761   1.258   6.132   4.166  0.3134 -1.1995 -1.5784
  158OSM   H18H17762   1.096   6.179   4.155  0.3891  0.0339 -0.6116
  159OSM      N17763   3.439   0.217   1.947  0.0198  0.7574  0.3657
  159OSM    C1517764   3.302   0.261   1.901 -0.4622  0.3697 -1.0185
  159OSM   H15A17765   3.256   0.317   1.981 -0.2846 -0.5051 -0.2959
  159OSM   H15B17766   3.234   0.180   1.878 -0.4025 -0.6068  2.0495
  159OSM   H15C17767   3.315   0.321   1.813 -2.4016 -0.1067 -1.6551
  159OSM    C1417768   3.501   0.140   1.833 -0.2612 -0.4952 -0.0457
  159OSM   H14A17769   3.590   0.100   1.878 -0.1265  0.9561  1.0315
  159OSM   H14B17770   3.534   0.205   1.753  0.8789  1.0814  1.6622
  159OSM   H14C17771   3.438   0.057   1.804 -1.0329  0.0459  0.0549
  159OSM    C1317772   3.522   0.335   1.985 -0.1527 -0.5014 -0.2112
  159OSM   H13A17773   3.477   0.389   2.068  2.1231  1.0343  0.0826
  159OSM   H13B17774   3.529   0.415   1.913  0.2759  0.8921  1.3526
  159OSM   H13C17775   3.624   0.310   2.011 -0.3829 -2.8479 -1.5099
  159OSM    C1217776   3.430   0.125   2.072 -0.8189 -0.1470  0.1499
  159OSM   H12A17777   3.379   0.035   2.042 -1.3908 -0.2292  1.3319
  159OSM   H12B17778   3.377   0.184   2.146 -0.8825  1.6061 -1.2605
  159OSM    C1117779   3.568   0.099   2.138  0.1520  0.1585 -0.7203
  159OSM   H11A17780   3.552   0.039   2.230  1.8635  1.2142  0.2868
  159OSM   H11B17781   3.604   0.194   2.182 -1.2465  0.9964 -1.3820
  159OSM      P17782   3.676  -0.125   2.076  0.5479 -0.1837 -0.3844
  159OSM    O1317783   3.540  -0.180   2.066 -0.1685  0.0857 -0.7740
  159OSM    O1417784   3.780  -0.183   1.993 -0.7284  0.3634  0.4716
  159OSM    O1117785   3.723  -0.124   2.224  0.5282 -0.3776 -0.2790
  159OSM    O1217786   3.658   0.026   2.058 -1.0470 -0.6621  0.4469
  159OSM    C1S17787   3.823  -0.043   2.284 -0.2956 -0.3827 -0.7219
  159OSM    H1S17788   3.806   0.066   2.275 -1.1989 -0.3734  0.8178
  159OSM    H1T17789   3.921  -0.075   2.243  1.6239  0.2543  3.1444
  159OSM     NF17790   3.935   0.025   2.494  0.5021 -0.3880 -0.5597
  159OSM    HNF17791   4.029  -0.008   2.498  0.8611  0.5453 -1.3068
  159OSM    C2S17792   3.839  -0.067   2.441  0.7195 -0.2936 -0.0892
  159OSM    H2S17793   3.741  -0.046   2.490  2.1996  1.4398  2.2529
  159OSM    C3S17794   3.868  -0.220   2.462 -0.6886  0.2727 -0.3571
  159OSM    H3S17795   3.959  -0.247   2.404 -1.3505 -0.0320 -1.2740
  159OSM     O317796   3.757  -0.295   2.411 -0.1944 -0.2710 -0.4100
  159OSM    HO317797   3.719  -0.244   2.340  1.0689 -0.2215 -1.0553
  159OSM    C4S17798   3.883  -0.262   2.608 -0.8200 -0.6884 -0.1612
  159OSM    H4S17799   3.984  -0.260   2.651 -1.1342  1.6049  0.5487
  159OSM    C5S17800   3.784  -0.305   2.688 -0.2920  0.9973  0.4121
  159OSM    H5S17801   3.681  -0.292   2.652  0.6485 -0.7479 -3.0324
  159OSM    C6S17802   3.806  -0.344   2.833 -0.5299 -0.0404  0.7578
  159OSM    H6S17803   3.825  -0.453   2.845 -0.4581  0.0207  1.2231
  159OSM    H6T17804   3.712  -0.315   2.885 -2.3735  0.2921 -2.5913
  159OSM    C7S17805   3.922  -0.267   2.907 -0.1508  0.3252  0.3177
  159OSM    H7S17806   4.015  -0.302   2.858 -1.1723  1.0204 -2.2289
  159OSM    H7T17807   3.928  -0.296   3.014 -0.7261  0.1084  0.2946
  159OSM    C8S17808   3.903  -0.115   2.904 -0.4517 -0.0460  0.6107
  159OSM    H8S17809   3.840  -0.084   2.817 -0.1611  0.2413  0.5027
  159OSM    H8T17810   4.007  -0.084   2.881 -0.3277  0.1609  1.4270
  159OSM    C9S17811   3.857  -0.052   3.031  0.2441 -0.5637  0.2733
  159OSM    H9S17812   3.920  -0.086   3.115  0.3297  0.1409  0.4890
  159OSM    H9T17813   3.755  -0.088   3.055 -0.4934  1.8487  0.9036
  159OSM   C10S17814   3.852   0.105   3.039 -0.1868 -0.7687  1.0652
  159OSM   H10S17815   3.772   0.134   2.967  1.2907  1.1545  0.1606
  159OSM   H10T17816   3.952   0.145   3.014 -0.0235 -1.7223  0.1271
  159OSM   C11S17817   3.808   0.146   3.178 -0.1985  1.1307  0.0384
  159OSM   H11S17818   3.731   0.075   3.215  0.0845  0.4625 -0.6389
  159OSM   H11T17819   3.771   0.251   3.175  0.6175  1.4237  0.2206
  159OSM   C12S17820   3.920   0.143   3.280  0.2189 -0.3566  0.3108
  159OSM   H12S17821   3.970   0.242   3.275  2.5137 -1.5305 -0.8828
  159OSM   H12T17822   3.988   0.067   3.236 -2.3077 -2.5364  0.0847
  159OSM   C13S17823   3.884   0.104   3.430  0.4146  0.3976  0.3168
  159OSM   H13S17824   3.982   0.103   3.483  1.1412 -0.5200 -1.0265
  159OSM   H13T17825   3.841   0.002   3.432 -1.5553  1.2095  2.4993
  159OSM   C14S17826   3.778   0.192   3.488  0.0995  0.3149  0.8897
  159OSM   H14S17827   3.686   0.185   3.426 -0.9995 -0.5361  2.5864
  159OSM   H14T17828   3.813   0.297   3.477  1.7028 -0.1877  1.0333
  159OSM   C15S17829   3.737   0.168   3.631  0.1298 -0.3219 -0.0529
  159OSM   H15S17830   3.825   0.184   3.698  1.2179 -1.6426 -1.1259
  159OSM   H15T17831   3.705   0.063   3.647  2.0164 -0.5593  2.5431
  159OSM   C16S17832   3.623   0.259   3.682 -0.1463  0.0050  0.1428
  159OSM   H16S17833   3.661   0.363   3.671 -0.5409 -0.0717 -2.2099
  159OSM   H16T17834   3.613   0.250   3.792  0.6123  1.4181  0.3470
  159OSM   C17S17835   3.494   0.246   3.604 -0.2302 -0.5526 -0.3306
  159OSM   H17S17836   3.444   0.148   3.621  1.8428 -1.6157 -0.2682
  159OSM   H17T17837   3.525   0.272   3.501 -0.2136 -0.8166 -0.3911
  159OSM   C18S17838   3.384   0.355   3.641  0.3318  0.3007  0.2660
  159OSM   H18S17839   3.407   0.455   3.601 -1.5206  0.2011 -1.1222
  159OSM   H18T17840   3.348   0.356   3.746  1.8941  2.6266  0.8103
  159OSM   H18U17841   3.305   0.323   3.570  1.7607 -1.1610 -0.7123
  159OSM    C1F17842   3.912   0.157   2.517 -0.2829  0.2431 -0.3171
  159OSM     OF17843   3.803   0.210   2.478 -0.6036 -0.5790  0.2475
  159OSM    C2F17844   4.021   0.247   2.573 -0.4806  0.7233  0.1758
  159OSM    H2F17845   4.011   0.345   2.522 -1.9038  1.4631  1.8547
  159OSM    H2G17846   4.117   0.196   2.547 -0.8795  0.7596 -1.4301
  159OSM    C3F17847   3.997   0.259   2.726 -0.0137  1.1550 -0.5904
  159OSM    H3F17848   4.030   0.174   2.789 -3.2141  2.0973  2.4647
  159OSM    H3G17849   3.889   0.268   2.749 -0.2017 -0.6287 -0.7163
  159OSM    C4F17850   4.068   0.387   2.779  0.0252  0.7701 -0.1035
  159OSM    H4F17851   4.022   0.400   2.879  0.4789 -1.3904  0.4189
  159OSM    H4G17852   4.042   0.473   2.714 -2.6455  0.4925  0.5355
  159OSM    C5F17853   4.217   0.368   2.794 -0.6813 -0.7523 -0.4237
  159OSM    H5F17854   4.281   0.457   2.776  2.5558 -2.7483  0.7812
  159OSM    H5G17855   4.246   0.301   2.711  0.9422 -1.3307  0.6075
  159OSM    C6F17856   4.265   0.283   2.913  0.0174 -0.4478  0.9434
  159OSM    H6F17857   4.363   0.235   2.892  1.7151  3.8032 -1.3861
  159OSM    H6G17858   4.197   0.198   2.936 -1.3600  0.2735 -0.3944
  159OSM    C7F17859   4.276   0.368   3.037 -0.3500  0.0068 -0.7434
  159OSM    H7F17860   4.174   0.408   3.052 -0.0809 -0.0426  1.3475
  159OSM    H7G17861   4.354   0.445   3.017  0.8028 -0.6270  1.1136
  159OSM    C8F17862   4.336   0.304   3.163  0.1570 -0.2720  0.2293
  159OSM    H8F17863   4.347   0.393   3.228 -0.6523  0.3251 -0.4350
  159OSM    H8G17864   4.440   0.276   3.135  0.6382  0.7334  0.9890
  159OSM    C9F17865   4.259   0.190   3.224 -0.6872  0.1169  0.7273
  159OSM    H9F17866   4.211   0.126   3.148 -0.3160  0.6728  0.0210
  159OSM   C10F17867   4.256   0.150   3.353 -0.4480  0.0137 -0.9107
  159OSM   H10F17868   4.206   0.056   3.380  0.7521 -0.1948  0.6536
  159OSM   C11F17869   4.327   0.220   3.464  0.0109  0.6065 -0.5273
  159OSM   H11F17870   4.366   0.322   3.442  2.1969 -0.1816 -0.4662
  159OSM   H11G17871   4.413   0.151   3.479 -1.8604 -1.9254 -1.0374
  159OSM   C12F17872   4.252   0.225   3.590  0.9950  0.3531  0.2872
  159OSM   H12F17873   4.327   0.227   3.672 -1.2426 -1.7072  2.4495
  159OSM   H12G17874   4.198   0.129   3.600  0.1679  0.5770 -1.8361
  159OSM   C13F17875   4.164   0.355   3.602  0.2080  0.5147 -0.0479
  159OSM   H13F17876   4.076   0.341   3.536 -0.6148 -0.8525  1.3027
  159OSM   H13G17877   4.221   0.446   3.574  0.5406  1.2029  2.7116
  159OSM   C14F17878   4.136   0.378   3.755 -0.2257 -0.3268 -0.4194
  159OSM   H14F17879   4.229   0.386   3.815 -0.1837  0.7764 -0.6103
  159OSM   H14G17880   4.081   0.288   3.790 -0.2457  0.5047  1.7479
  159OSM   C15F17881   4.066   0.512   3.791  0.0969  0.3031 -0.1418
  159OSM   H15F17882   3.970   0.529   3.737  1.0719  3.5951 -0.9685
  159OSM   H15G17883   4.139   0.587   3.753  0.6454  0.5913  1.4484
  159OSM   C16F17884   4.049   0.524   3.945  0.1536  0.0543 -0.8578
  159OSM   H16F17885   4.134   0.465   3.985  0.2406  0.6500 -0.1645
  159OSM   H16G17886   3.963   0.468   3.988  1.3167 -3.8325 -3.3118
  159OSM   C17F17887   4.054   0.667   4.015  0.5689  0.0372 -0.1993
  159OSM   H17F17888   3.951   0.706   4.001 -0.2729 -1.6488  1.0596
  159OSM   H17G17889   4.136   0.727   3.970  1.8265 -1.5969 -0.1432
  159OSM   C18F17890   4.080   0.667   4.170  0.3608 -0.2570 -0.0938
  159OSM   H18F17891   4.064   0.766   4.217  1.0308  0.7772 -1.9870
  159OSM   H18G17892   4.186   0.636   4.188 -0.3186 -2.2096  0.6371
  159OSM   H18H17893   4.022   0.591   4.227 -0.2049 -1.0519 -1.7010
  160OSM      N17894   1.494   1.208   1.507  0.0586  0.2161 -0.0213
  160OSM    C1517895   1.499   1.222   1.357  0.7543  0.0099 -0.9736
  160OSM   H15A17896   1.598   1.251   1.326 -0.3131  2.6194 -2.0781
  160OSM   H15B17897   1.436   1.305   1.329  0.4876  1.3152  3.1640
  160OSM   H15C17898   1.477   1.131   1.302  1.3182 -0.7091 -0.0197
  160OSM    C1417899   1.579   1.089   1.555  0.1460 -0.8211  0.0524
  160OSM   H14A17900   1.551   0.992   1.518 -1.9482 -0.2265  0.0318
  160OSM   H14B17901   1.580   1.094   1.663  1.5808 -1.3941  0.0760
  160OSM   H14C17902   1.678   1.108   1.515 -0.0717  1.5913  0.5742
  160OSM    C1317903   1.541   1.335   1.568 -0.2447 -0.8502 -0.3851
  160OSM   H13A17904   1.566   1.318   1.672 -0.2424  2.9052  0.3091
  160OSM   H13B17905   1.475   1.420   1.558 -1.5199 -1.8003 -0.1053
  160OSM   H13C17906   1.637   1.370   1.531 -0.4432  0.5099  0.3285
  160OSM    C1217907   1.351   1.172   1.538  0.0563  0.3745  0.5004
  160OSM   H12A17908   1.337   1.072   1.500  1.2358 -0.0380  1.1237
  160OSM   H12B17909   1.288   1.238   1.481 -1.1409 -0.3869  0.9356
  160OSM    C1117910   1.315   1.172   1.691  1.1403 -0.5788 -0.0698
  160OSM   H11A17911   1.329   1.277   1.723 -0.3106 -1.5183  3.9795
  160OSM   H11B17912   1.380   1.109   1.756 -0.0891  0.0461  1.8094
  160OSM      P17913   1.125   1.002   1.699 -0.4976 -0.1775 -0.0893
  160OSM    O1317914   0.983   1.001   1.735  0.5148  0.5597 -0.1019
  160OSM    O1417915   1.164   0.966   1.558  0.2060 -0.2743  0.1648
  160OSM    O1117916   1.202   0.913   1.798 -0.3516 -0.4673 -0.8182
  160OSM    O1217917   1.181   1.142   1.727 -0.1032  0.0166 -0.5605
  160OSM    C1S17918   1.204   0.947   1.939  0.4099 -0.1415  1.0308
  160OSM    H1S17919   1.101   0.964   1.978  1.1745  0.5200  2.7712
  160OSM    H1T17920   1.257   1.044   1.946  2.7949 -1.1219 -2.2002
  160OSM     NF17921   1.297   0.913   2.155 -0.3827 -0.4596 -0.9184
  160OSM    HNF17922   1.379   0.965   2.176 -0.1504 -1.1052 -0.2122
  160OSM    C2S17923   1.290   0.850   2.021  0.6931  0.1199 -0.1255
  160OSM    H2S17924   1.248   0.747   2.025  1.0653  0.0230  1.9931
  160OSM    C3S17925   1.433   0.814   1.954 -0.1489 -1.0415 -0.0060
  160OSM    H3S17926   1.499   0.904   1.952 -1.6210  0.0830  0.6665
  160OSM     O317927   1.415   0.771   1.822 -0.0903  0.2586 -0.5842
  160OSM    HO317928   1.322   0.789   1.808 -0.0252  1.6571  0.6797
  160OSM    C4S17929   1.509   0.708   2.025 -0.0395  0.4123 -0.6813
  160OSM    H4S17930   1.476   0.603   2.019 -1.1230  0.6828  0.2374
  160OSM    C5S17931   1.609   0.732   2.103 -0.4964 -0.4693  0.1334
  160OSM    H5S17932   1.658   0.831   2.104 -1.0230 -0.1420 -3.0508
  160OSM    C6S17933   1.680   0.626   2.184 -0.5703  0.8449 -0.6283
  160OSM    H6S17934   1.774   0.598   2.130 -1.1821 -2.1768 -0.1941
  160OSM    H6T17935   1.620   0.533   2.192 -0.4610  0.8726  0.5875
  160OSM    C7S17936   1.697   0.669   2.326 -0.6460 -0.1946 -0.7227
  160OSM    H7S17937   1.737   0.773   2.336 -0.9748 -0.2338  1.3418
  160OSM    H7T17938   1.772   0.604   2.376 -1.9192 -2.6368 -1.9159
  160OSM    C8S17939   1.576   0.653   2.418 -0.1348 -0.7077 -0.2570
  160OSM    H8S17940   1.559   0.544   2.419 -0.8364 -0.5898  2.0678
  160OSM    H8T17941   1.489   0.714   2.385  0.5826  0.5321  0.0828
  160OSM    C9S17942   1.604   0.713   2.562 -0.4309 -0.2330  0.0745
  160OSM    H9S17943   1.589   0.823   2.565 -0.6228 -0.2803  0.7472
  160OSM    H9T17944   1.704   0.690   2.604 -0.1007  1.4167  0.2203
  160OSM   C10S17945   1.515   0.658   2.668 -0.4306 -0.2795  0.5695
  160OSM   H10S17946   1.497   0.550   2.654 -0.9158 -0.3366  1.5415
  160OSM   H10T17947   1.417   0.708   2.685 -0.1950 -0.5229  2.8553
  160OSM   C11S17948   1.580   0.677   2.804 -0.0534 -0.4402 -0.3924
  160OSM   H11S17949   1.630   0.776   2.800  0.0229 -0.4910 -0.7215
  160OSM   H11T17950   1.660   0.601   2.818  1.7627  1.4579 -0.2215
  160OSM   C12S17951   1.484   0.671   2.927  0.2353 -0.2778 -0.6266
  160OSM   H12S17952   1.419   0.582   2.914 -0.1123 -0.1215  0.0116
  160OSM   H12T17953   1.427   0.766   2.929 -0.4242 -0.6597  3.3255
  160OSM   C13S17954   1.563   0.673   3.061  0.4090 -0.0259 -0.3103
  160OSM   H13S17955   1.575   0.782   3.076  1.1318 -0.0829 -0.4546
  160OSM   H13T17956   1.660   0.620   3.053  0.0918 -1.2118  2.9765
  160OSM   C14S17957   1.482   0.614   3.171 -0.2556 -0.3866  0.3003
  160OSM   H14S17958   1.479   0.503   3.169 -0.8711 -0.4837  3.7034
  160OSM   H14T17959   1.375   0.639   3.164 -0.7560 -2.7279 -1.2672
  160OSM   C15S17960   1.533   0.650   3.309  0.0387 -0.2544 -0.5809
  160OSM   H15S17961   1.529   0.761   3.324  0.2568 -0.1035 -1.6161
  160OSM   H15T17962   1.639   0.625   3.326 -0.8607 -3.1431  1.0624
  160OSM   C16S17963   1.450   0.589   3.422  0.4329 -0.6317 -0.3163
  160OSM   H16S17964   1.456   0.479   3.406 -1.2613 -0.9679  1.2680
  160OSM   H16T17965   1.346   0.621   3.400  0.1407 -1.2003  0.2311
  160OSM   C17S17966   1.490   0.625   3.564 -0.0227 -0.1100 -0.1447
  160OSM   H17S17967   1.505   0.734   3.572 -0.8651 -0.0252  0.3301
  160OSM   H17T17968   1.593   0.584   3.573  0.5160  0.8982 -1.6552
  160OSM   C18S17969   1.402   0.580   3.677 -0.4368  0.4639  0.6693
  160OSM   H18S17970   1.378   0.473   3.660 -1.7427  0.7475  0.7101
  160OSM   H18T17971   1.304   0.632   3.684  0.1319  1.8504 -1.0710
  160OSM   H18U17972   1.456   0.596   3.773  2.4508  2.2331 -1.1665
  160OSM    C1F17973   1.205   0.902   2.248 -1.0514 -1.1222 -0.4484
  160OSM     OF17974   1.124   0.815   2.245 -0.4232  0.4767 -0.2984
  160OSM    C2F17975   1.228   0.983   2.375 -0.2126  0.1047 -0.4982
  160OSM    H2F17976   1.250   1.091   2.357 -2.2516  0.6861  0.3012
  160OSM    H2G17977   1.314   0.939   2.430 -0.9368  3.4843  3.6240
  160OSM    C3F17978   1.098   0.976   2.462  1.0009  0.1294 -0.3738
  160OSM    H3F17979   1.085   0.869   2.490 -2.0640  0.2484 -1.0861
  160OSM    H3G17980   1.011   0.997   2.395 -0.7057 -0.0504  1.7426
  160OSM    C4F17981   1.101   1.073   2.584  0.0600  0.0043  0.2778
  160OSM    H4F17982   1.001   1.099   2.624 -0.3545 -2.5719  1.0453
  160OSM    H4G17983   1.151   1.164   2.546 -1.6306  0.6111 -0.5170
  160OSM    C5F17984   1.189   1.010   2.689  0.0900  0.9810 -0.6127
  160OSM    H5F17985   1.294   0.995   2.657 -0.7857 -0.1413 -3.0733
  160OSM    H5G17986   1.150   0.909   2.711 -3.0965  2.2023 -0.3026
  160OSM    C6F17987   1.184   1.081   2.823 -0.1887  0.0284  0.0447
  160OSM    H6F17988   1.084   1.055   2.865  0.0870 -1.1372 -0.0118
  160OSM    H6G17989   1.181   1.192   2.810  0.9242  0.0371 -0.1969
  160OSM    C7F17990   1.292   1.025   2.913  0.1464  0.0548  0.1995
  160OSM    H7F17991   1.392   1.056   2.874  0.3823 -1.4813 -0.4280
  160OSM    H7G17992   1.280   0.915   2.905  0.6654  0.1321 -1.6940
  160OSM    C8F17993   1.265   1.072   3.062 -0.3470 -0.1394 -0.3383
  160OSM    H8F17994   1.169   1.020   3.084  0.8108 -0.8879  3.3352
  160OSM    H8G17995   1.264   1.183   3.067 -0.2352 -0.1867  0.8540
  160OSM    C9F17996   1.379   1.012   3.147 -0.2726  0.3645  0.2940
  160OSM    H9F17997   1.450   0.943   3.099  0.7475  0.8214  1.1209
  160OSM   C10F17998   1.415   1.057   3.269  0.4634  1.1268 -0.7245
  160OSM   H10F17999   1.492   0.994   3.316 -1.1287  0.9972  1.8462
  160OSM   C11F18000   1.359   1.168   3.345  0.4343 -1.0627 -0.0460
  160OSM   H11F18001   1.250   1.150   3.344  0.5109 -1.6277  1.0195
  160OSM   H11G18002   1.391   1.266   3.303 -0.8781 -0.6436 -0.1023
  160OSM   C12F18003   1.399   1.176   3.489 -0.5426  0.5471 -0.1708
  160OSM   H12F18004   1.343   1.256   3.541 -2.2169 -1.1014  0.6339
  160OSM   H12G18005   1.508   1.190   3.501 -0.1713 -2.5171  0.4885
  160OSM   C13F18006   1.376   1.036   3.555 -0.7247 -0.0536  0.3832
  160OSM   H13F18007   1.462   0.974   3.520 -0.9469 -0.7158  1.0060
  160OSM   H13G18008   1.280   0.994   3.518  1.0314 -3.1323 -0.8816
  160OSM   C14F18009   1.390   1.031   3.711 -0.3577 -0.4811 -0.3996
  160OSM   H14F18010   1.481   1.083   3.748 -2.8955  3.3770  0.6853
  160OSM   H14G18011   1.386   0.924   3.740  1.0769 -0.3764  0.2363
  160OSM   C15F18012   1.268   1.104   3.787 -0.0157 -0.0901 -0.3664
  160OSM   H15F18013   1.173   1.081   3.735 -0.0664 -0.7958  0.0366
  160OSM   H15G18014   1.290   1.212   3.778 -2.9602  0.5128 -0.8041
  160OSM   C16F18015   1.252   1.052   3.931  0.0013 -0.4507 -0.5554
  160OSM   H16F18016   1.347   1.070   3.986 -0.5149 -0.4354  0.3538
  160OSM   H16G18017   1.238   0.942   3.938  1.5092 -0.6768 -0.9240
  160OSM   C17F18018   1.135   1.130   3.998 -0.0451  0.8885  0.0997
  160OSM   H17F18019   1.041   1.079   3.968  0.1171  0.1931  0.7512
  160OSM   H17G18020   1.116   1.231   3.955 -1.3319  1.0595  1.0345
  160OSM   C18F18021   1.142   1.135   4.152 -0.1619  0.2320  0.3449
  160OSM   H18F18022   1.214   1.206   4.199  1.3267 -1.3310  0.4884
  160OSM   H18G18023   1.178   1.035   4.184 -0.9986  0.6620  2.7172
  160OSM   H18H18024   1.044   1.163   4.198  0.8393  2.8272  1.0103
  161OSM      N18025   5.753   5.830   1.722  0.4207 -0.3027  0.3406
  161OSM    C1518026   5.802   5.920   1.611  0.7498  0.4804  0.0412
  161OSM   H15A18027   5.779   5.885   1.511 -3.4128 -1.2078  1.4884
  161OSM   H15B18028   5.910   5.931   1.616  0.7884  0.3996 -0.6126
  161OSM   H15C18029   5.762   6.019   1.617  0.6802  0.4082  0.7497
  161OSM    C1418030   5.602   5.832   1.707 -0.0738 -0.0863  0.3431
  161OSM   H14A18031   5.556   5.786   1.793 -1.3310  2.8647  1.3004
  161OSM   H14B18032   5.567   5.786   1.616  1.5149  1.4699 -1.1072
  161OSM   H14C18033   5.572   5.935   1.701  0.5014 -0.0615 -4.1978
  161OSM    C1318034   5.815   5.691   1.710 -0.2493  0.4784 -0.4645
  161OSM   H13A18035   5.920   5.694   1.730  0.0673 -2.1730 -1.5637
  161OSM   H13B18036   5.793   5.651   1.612 -0.6443  2.0542 -1.0492
  161OSM   H13C18037   5.769   5.634   1.789  1.8852  0.4555  0.7832
  161OSM    C1218038   5.800   5.884   1.853  0.0582 -0.0511 -0.8231
  161OSM   H12A18039   5.907   5.874   1.858  0.0220  0.1437  0.6202
  161OSM   H12B18040   5.753   5.827   1.932  3.1759 -0.4747  0.8345
  161OSM    C1118041   5.761   6.027   1.893 -0.6068  0.7723  0.0451
  161OSM   H11A18042   5.756   6.013   2.003 -0.0881 -1.8744 -0.2464
  161OSM   H11B18043   5.658   6.050   1.857 -0.4603  1.1082 -0.1653
  161OSM      P18044   5.865   6.258   1.870 -0.3371 -0.4198  0.1947
  161OSM    O1318045   5.980   6.314   1.792  0.0312  0.0351 -0.8597
  161OSM    O1418046   5.736   6.318   1.841  0.5188  0.4302 -0.6761
  161OSM    O1118047   5.896   6.254   2.027 -0.0910 -0.0106 -0.2141
  161OSM    O1218048   5.862   6.109   1.845  0.3992  0.7001 -0.0083
  161OSM    C1S18049   6.010   6.196   2.092  0.1120 -0.2727 -0.3021
  161OSM    H1S18050   6.101   6.249   2.057  1.2084 -1.0773  1.2677
  161OSM    H1T18051   6.008   6.087   2.070  2.2779 -0.1603 -1.1787
  161OSM     NF18052   6.135   6.134   2.288  0.1107  0.4329 -0.1071
  161OSM    HNF18053   6.151   6.036   2.281  1.7982  0.7219 -0.3629
  161OSM    C2S18054   6.005   6.186   2.246 -0.0383  0.2610 -0.1992
  161OSM    H2S18055   5.996   6.292   2.280 -1.3012 -1.2827  4.5727
  161OSM    C3S18056   5.883   6.108   2.304 -0.5416  0.0014  0.2811
  161OSM    H3S18057   5.884   6.001   2.275 -0.2401 -0.4851  2.0067
  161OSM     O318058   5.756   6.156   2.240 -0.3929 -0.0099 -0.1756
  161OSM    HO318059   5.785   6.211   2.167  0.5125 -1.0466 -0.6036
  161OSM    C4S18060   5.873   6.105   2.454  0.1279  0.1019  0.0653
  161OSM    H4S18061   5.888   6.202   2.504  0.5256 -0.1360  0.4131
  161OSM    C5S18062   5.851   5.992   2.536  0.4000  0.4361  0.7914
  161OSM    H5S18063   5.834   5.892   2.493  0.5495  1.1241 -0.9155
  161OSM    C6S18064   5.842   5.997   2.688 -0.3921 -0.5744  0.0665
  161OSM    H6S18065   5.928   5.948   2.739  0.1479 -2.3042 -2.4353
  161OSM    H6T18066   5.747   5.948   2.717 -1.2055 -0.6347 -2.5938
  161OSM    C7S18067   5.823   6.138   2.755 -0.1531 -0.2833 -0.6652
  161OSM    H7S18068   5.728   6.194   2.749  0.6519  1.2026  0.1009
  161OSM    H7T18069   5.908   6.203   2.723  0.0364 -0.0914  0.2302
  161OSM    C8S18070   5.841   6.118   2.909  0.3040  0.0256 -0.3433
  161OSM    H8S18071   5.932   6.055   2.923 -0.4488 -0.6966  1.4653
  161OSM    H8T18072   5.749   6.072   2.952 -0.9134  1.3315 -1.4862
  161OSM    C9S18073   5.876   6.244   2.996  0.1734 -0.3260 -0.0978
  161OSM    H9S18074   5.798   6.324   2.995 -1.9362 -2.2783 -3.1485
  161OSM    H9T18075   5.966   6.296   2.956  1.1832 -1.9483  0.0256
  161OSM   C10S18076   5.904   6.216   3.136  0.0933 -1.0236 -0.5255
  161OSM   H10S18077   5.944   6.311   3.177  2.4854 -0.8225 -3.1640
  161OSM   H10T18078   5.989   6.145   3.135  1.1814  0.2068  0.8578
  161OSM   C11S18079   5.770   6.185   3.205 -0.1749 -0.3936 -0.4987
  161OSM   H11S18080   5.727   6.088   3.172 -1.1495 -0.2268  0.2760
  161OSM   H11T18081   5.704   6.269   3.172  2.6642  2.6398  1.2498
  161OSM   C12S18082   5.769   6.198   3.364 -0.0216 -0.1001  0.7019
  161OSM   H12S18083   5.666   6.165   3.390 -0.4392  2.3018  2.2100
  161OSM   H12T18084   5.783   6.299   3.407 -0.5688 -0.0275  0.7119
  161OSM   C13S18085   5.867   6.105   3.432  0.6557  0.3677  0.2229
  161OSM   H13S18086   5.962   6.103   3.374 -1.3580  3.4341 -3.4645
  161OSM   H13T18087   5.815   6.007   3.418 -1.5079  1.5941 -0.5078
  161OSM   C14S18088   5.890   6.134   3.575 -0.1166  0.9666  0.9532
  161OSM   H14S18089   5.801   6.117   3.639 -1.8734  0.5127 -1.5279
  161OSM   H14T18090   5.915   6.242   3.588 -0.7062  1.3750 -1.1073
  161OSM   C15S18091   6.004   6.047   3.635 -0.2757 -0.3627  0.1743
  161OSM   H15S18092   6.026   6.085   3.737 -2.0054  0.3792  0.2740
  161OSM   H15T18093   6.102   6.062   3.584  0.8351  0.1683  2.4071
  161OSM   C16S18094   5.973   5.900   3.636 -0.4163 -0.0940 -0.1908
  161OSM   H16S18095   6.004   5.854   3.539  1.2729 -1.3378  0.9161
  161OSM   H16T18096   5.866   5.876   3.653 -1.0468  0.9711 -2.3631
  161OSM   C17S18097   6.052   5.820   3.744  0.0616  0.1265 -0.2845
  161OSM   H17S18098   6.004   5.721   3.760  1.2954 -0.0953  2.3040
  161OSM   H17T18099   6.045   5.871   3.842 -0.5226 -1.9441  0.7889
  161OSM   C18S18100   6.200   5.806   3.710 -0.3469 -0.4365 -0.3174
  161OSM   H18S18101   6.238   5.910   3.713 -0.2273 -0.4652 -0.8727
  161OSM   H18T18102   6.211   5.765   3.607 -0.5072  1.5824 -1.1635
  161OSM   H18U18103   6.256   5.741   3.781 -1.2864 -1.9015 -0.8908
  161OSM    C1F18104   6.250   6.210   2.266 -0.3387  0.3135  0.1713
  161OSM     OF18105   6.237   6.332   2.257 -0.2119  0.7984 -0.0341
  161OSM    C2F18106   6.384   6.150   2.248 -0.5150 -0.5253 -0.5894
  161OSM    H2F18107   6.424   6.186   2.151  0.0683  1.3413  0.3259
  161OSM    H2G18108   6.370   6.042   2.227 -0.7463 -0.1881 -2.3202
  161OSM    C3F18109   6.474   6.161   2.377 -0.3295  0.2307  0.3571
  161OSM    H3F18110   6.494   6.270   2.381  0.7179  0.1566 -2.1091
  161OSM    H3G18111   6.572   6.111   2.359  0.0395  0.4110  1.8260
  161OSM    C4F18112   6.413   6.108   2.503  0.8713  0.3346 -0.2881
  161OSM    H4F18113   6.380   6.002   2.489 -2.2554  0.7825  3.0399
  161OSM    H4G18114   6.325   6.167   2.536  1.2557  0.6729  0.1178
  161OSM    C5F18115   6.515   6.114   2.617 -0.1216  0.2231  0.3178
  161OSM    H5F18116   6.552   6.217   2.638  1.0538 -0.6446  2.5827
  161OSM    H5G18117   6.602   6.051   2.588  1.4484  1.7197  1.6797
  161OSM    C6F18118   6.467   6.065   2.754  0.1877 -0.4121 -0.1233
  161OSM    H6F18119   6.363   6.099   2.776  0.7861  2.1985 -1.1065
  161OSM    H6G18120   6.528   6.117   2.831 -2.3238  2.8189 -0.1748
  161OSM    C7F18121   6.474   5.911   2.767  0.5127  0.1969 -1.0919
  161OSM    H7F18122   6.578   5.876   2.786 -0.3507 -1.7986  0.1935
  161OSM    H7G18123   6.456   5.866   2.667 -1.0143 -1.2526 -0.1996
  161OSM    C8F18124   6.388   5.848   2.882 -0.1534  0.4140 -0.4759
  161OSM    H8F18125   6.281   5.859   2.853  0.5393  1.0446 -2.9015
  161OSM    H8G18126   6.396   5.899   2.980  0.9734  2.2813 -1.5159
  161OSM    C9F18127   6.426   5.702   2.903  0.1433 -1.0898 -0.4131
  161OSM    H9F18128   6.360   5.633   2.850  0.2194 -2.3374  1.0790
  161OSM   C10F18129   6.517   5.653   2.988  0.2021  0.5478 -0.6084
  161OSM   H10F18130   6.540   5.547   2.974 -1.6336  0.4819 -3.6290
  161OSM   C11F18131   6.611   5.716   3.090 -0.5419  0.4668  0.0865
  161OSM   H11F18132   6.639   5.816   3.049  0.8591 -0.6067 -1.6465
  161OSM   H11G18133   6.697   5.647   3.107 -2.0487 -1.4583  0.0916
  161OSM   C12F18134   6.539   5.741   3.220 -0.1756 -0.1588  0.8659
  161OSM   H12F18135   6.524   5.640   3.264 -1.1625  0.2671  1.5089
  161OSM   H12G18136   6.444   5.794   3.200 -1.6780 -2.5259  1.4993
  161OSM   C13F18137   6.610   5.821   3.329  0.2519  0.3927  0.0135
  161OSM   H13F18138   6.636   5.923   3.294 -0.6352  0.7776  0.4584
  161OSM   H13G18139   6.709   5.772   3.341  0.4900  1.1263  1.0652
  161OSM   C14F18140   6.522   5.828   3.456 -0.2220  0.1132 -0.1230
  161OSM   H14F18141   6.496   5.727   3.495 -0.6878  0.0011 -0.7301
  161OSM   H14G18142   6.429   5.882   3.431 -0.0279  0.0771 -0.9178
  161OSM   C15F18143   6.596   5.912   3.571 -0.1324  0.1859 -0.5844
  161OSM   H15F18144   6.546   5.916   3.670  2.0061 -3.7816  0.7798
  161OSM   H15G18145   6.617   6.017   3.542  1.3580  0.4653  1.4467
  161OSM   C16F18146   6.730   5.845   3.619 -0.0576  0.1409  0.5418
  161OSM   H16F18147   6.791   5.911   3.685  1.3641 -0.8104  0.2120
  161OSM   H16G18148   6.789   5.811   3.531 -1.5611 -1.8794  0.2929
  161OSM   C17F18149   6.699   5.716   3.696  0.3154 -0.3922  0.7305
  161OSM   H17F18150   6.620   5.654   3.647 -0.3149 -0.1166  1.3843
  161OSM   H17G18151   6.634   5.735   3.783 -1.0867 -1.4533 -0.0587
  161OSM   C18F18152   6.817   5.640   3.748  0.0356  0.3887 -0.5350
  161OSM   H18F18153   6.861   5.690   3.837  0.6600  0.6558 -0.9883
  161OSM   H18G18154   6.890   5.626   3.665  2.3712  2.5028  1.0924
  161OSM   H18H18155   6.775   5.540   3.772 -1.8065  0.6493 -2.5329
  162OSM      N18156   0.080   4.893   1.720 -0.3435 -0.4581  0.8175
  162OSM    C1518157   0.069   4.783   1.822 -0.2258 -0.1894  0.0847
  162OSM   H15A18158   0.077   4.682   1.785 -0.3584 -1.0544  2.3396
  162OSM   H15B18159  -0.021   4.776   1.881  1.3148 -0.4155  2.5020
  162OSM   H15C18160   0.149   4.805   1.892  1.4382  0.3281 -1.9519
  162OSM    C1418161   0.216   4.886   1.668 -0.7762  0.6539  0.1996
  162OSM   H14A18162   0.239   4.784   1.642 -1.9240  0.4524 -0.0862
  162OSM   H14B18163   0.282   4.910   1.750 -0.3919  0.9473 -0.1947
  162OSM   H14C18164   0.241   4.963   1.596  0.9039 -0.5052 -0.4898
  162OSM    C1318165  -0.022   4.856   1.616 -0.5846  0.0036  0.2693
  162OSM   H13A18166  -0.118   4.835   1.659  0.1707  1.2327  2.6335
  162OSM   H13B18167   0.009   4.767   1.564  1.6857  0.6568  0.4397
  162OSM   H13C18168  -0.032   4.942   1.550 -0.6849 -1.0796 -1.1583
  162OSM    C1218169   0.034   5.023   1.785 -0.1616 -0.0893  0.7109
  162OSM   H12A18170   0.099   5.042   1.869  1.0697 -0.7150 -0.0753
  162OSM   H12B18171  -0.067   5.006   1.819 -0.2686  1.7334  1.3895
  162OSM    C1118172   0.023   5.156   1.693 -0.2974  0.3790 -0.3629
  162OSM   H11A18173  -0.008   5.240   1.759  0.9803 -0.3137  1.1725
  162OSM   H11B18174  -0.049   5.136   1.611  1.4263 -0.7110 -1.6485
  162OSM      P18175   0.257   5.275   1.696  0.1228 -0.2022 -0.0862
  162OSM    O1318176   0.383   5.206   1.671  0.2746 -0.2781  0.2374
  162OSM    O1418177   0.239   5.406   1.636  1.0899 -0.0581  0.3291
  162OSM    O1118178   0.223   5.287   1.853  0.6014 -0.1676  0.1068
  162OSM    O1218179   0.144   5.180   1.639 -0.6282 -0.4613 -0.0077
  162OSM    C1S18180   0.337   5.308   1.938 -0.4827  0.6238  0.3823
  162OSM    H1S18181   0.387   5.401   1.905  1.7908 -0.4835  0.5979
  162OSM    H1T18182   0.414   5.228   1.935  1.1940  2.1899  0.8950
  162OSM     NF18183   0.404   5.342   2.166  0.0423 -0.0235  0.3513
  162OSM    HNF18184   0.428   5.270   2.231 -3.5550 -0.8229  0.9340
  162OSM    C2S18185   0.292   5.327   2.080  0.1108 -0.1479 -0.4907
  162OSM    H2S18186   0.228   5.417   2.093 -2.0679 -1.6884 -0.2789
  162OSM    C3S18187   0.200   5.215   2.136  0.1189  0.3030  0.2421
  162OSM    H3S18188   0.252   5.118   2.127  0.2665  0.5020 -1.0904
  162OSM     O318189   0.083   5.202   2.065 -0.0963  0.1043  0.5943
  162OSM    HO318190   0.098   5.242   1.980 -0.5194 -1.0658 -0.0369
  162OSM    C4S18191   0.165   5.226   2.288 -0.0479  0.1564 -0.2516
  162OSM    H4S18192   0.131   5.325   2.325 -1.7322 -0.5853  0.2440
  162OSM    C5S18193   0.148   5.118   2.374  0.2545  0.3814 -0.5616
  162OSM    H5S18194   0.170   5.018   2.333  1.6939  0.7956 -0.8008
  162OSM    C6S18195   0.116   5.138   2.524 -0.1224  0.3515 -0.0844
  162OSM    H6S18196   0.181   5.069   2.584 -1.3229  0.4603  1.3795
  162OSM    H6T18197   0.011   5.105   2.536 -0.3507  1.0610 -0.1440
  162OSM    C7S18198   0.143   5.283   2.589 -0.4292  0.1720  0.1845
  162OSM    H7S18199   0.073   5.345   2.529 -0.8722  1.1848  1.7344
  162OSM    H7T18200   0.250   5.312   2.575  0.0988 -0.9124  1.8085
  162OSM    C8S18201   0.094   5.289   2.730 -0.4676 -0.3938 -0.5877
  162OSM    H8S18202  -0.011   5.253   2.738 -0.2740 -0.7319  0.6471
  162OSM    H8T18203   0.096   5.396   2.759 -0.6321 -0.8320  1.1372
  162OSM    C9S18204   0.192   5.216   2.826  0.2826 -0.9815 -0.1785
  162OSM    H9S18205   0.290   5.267   2.811 -0.2533 -0.1087 -0.7618
  162OSM    H9T18206   0.209   5.110   2.798 -1.2542 -1.0716 -0.7867
  162OSM   C10S18207   0.135   5.228   2.970  0.1319  0.8350 -0.1436
  162OSM   H10S18208   0.044   5.167   2.983  1.4249 -0.8932  1.0459
  162OSM   H10T18209   0.107   5.336   2.973 -2.7429  0.1172 -0.0322
  162OSM   C11S18210   0.237   5.211   3.085  0.4720  0.0346 -0.2435
  162OSM   H11S18211   0.330   5.266   3.060  1.4992 -1.8166 -0.5730
  162OSM   H11T18212   0.267   5.104   3.076 -0.1550 -0.2891  1.2872
  162OSM   C12S18213   0.173   5.243   3.221  0.0578 -0.5780  0.2457
  162OSM   H12S18214   0.073   5.196   3.226 -1.1076  1.9440  1.4347
  162OSM   H12T18215   0.148   5.351   3.218 -0.6592 -0.7538 -0.1942
  162OSM   C13S18216   0.272   5.218   3.342 -0.1605 -0.3262 -0.0013
  162OSM   H13S18217   0.352   5.296   3.341 -0.9160  0.5560 -4.2831
  162OSM   H13T18218   0.322   5.119   3.335 -2.8945 -1.6332 -1.6922
  162OSM   C14S18219   0.208   5.236   3.478 -0.2277 -0.4359  0.0026
  162OSM   H14S18220   0.130   5.159   3.494 -0.8278  0.6826  2.8116
  162OSM   H14T18221   0.162   5.337   3.485  1.7358  0.5519 -0.8454
  162OSM   C15S18222   0.297   5.215   3.604  0.4307 -0.4946 -0.8771
  162OSM   H15S18223   0.354   5.121   3.586  0.6130 -0.9575  1.9715
  162OSM   H15T18224   0.236   5.210   3.696 -0.9835 -0.2453 -1.7799
  162OSM   C16S18225   0.413   5.321   3.611 -0.4307 -0.6490  0.1241
  162OSM   H16S18226   0.377   5.408   3.552  1.2036  1.2655  1.8768
  162OSM   H16T18227   0.493   5.275   3.550  0.7655 -0.6122  1.6324
  162OSM   C17S18228   0.452   5.353   3.754 -0.0438 -0.6349  0.5433
  162OSM   H17S18229   0.368   5.398   3.811  1.1725  1.4801  0.7263
  162OSM   H17T18230   0.531   5.432   3.750  0.4843 -1.0335  2.6469
  162OSM   C18S18231   0.509   5.228   3.832 -0.1160  0.1533  0.1484
  162OSM   H18S18232   0.593   5.183   3.774  2.3012  0.3684  3.3383
  162OSM   H18T18233   0.425   5.156   3.837  0.2618 -0.3473 -0.5111
  162OSM   H18U18234   0.537   5.254   3.936 -0.3919 -1.2052  0.5665
  162OSM    C1F18235   0.481   5.452   2.157 -0.3582  0.1110  0.0058
  162OSM     OF18236   0.458   5.548   2.085  0.4368 -0.2238  0.2945
  162OSM    C2F18237   0.609   5.439   2.244 -0.3787 -0.2021 -1.0259
  162OSM    H2F18238   0.696   5.447   2.175  0.3558  0.5744 -0.0183
  162OSM    H2G18239   0.614   5.337   2.288  0.5281  0.0861 -0.4446
  162OSM    C3F18240   0.618   5.555   2.345 -0.4328 -0.9817  0.1607
  162OSM    H3F18241   0.520   5.605   2.359  0.2263  0.3189  0.1158
  162OSM    H3G18242   0.691   5.627   2.302 -0.5329 -0.3166  1.1039
  162OSM    C4F18243   0.665   5.510   2.485  0.0045  0.3783 -0.5066
  162OSM    H4F18244   0.730   5.590   2.526 -1.4236  1.5204 -0.4508
  162OSM    H4G18245   0.721   5.415   2.469 -0.8777 -0.0997 -0.8152
  162OSM    C5F18246   0.553   5.507   2.582 -0.0051 -0.0659  0.3537
  162OSM    H5F18247   0.488   5.418   2.570  0.0343 -0.2799  1.6631
  162OSM    H5G18248   0.497   5.599   2.554 -0.1664 -0.8179 -1.8953
  162OSM    C6F18249   0.601   5.516   2.724 -0.2790  0.2092 -0.2525
  162OSM    H6F18250   0.660   5.609   2.733 -2.0518  1.4426 -1.1725
  162OSM    H6G18251   0.660   5.424   2.747 -0.4555  0.0770 -0.3273
  162OSM    C7F18252   0.489   5.516   2.831  0.3553 -0.1469 -0.0514
  162OSM    H7F18253   0.533   5.564   2.921  0.6657 -0.2210 -0.1647
  162OSM    H7G18254   0.465   5.411   2.859  2.6318 -1.9500 -4.4651
  162OSM    C8F18255   0.355   5.583   2.794  0.4104 -0.4119 -0.5441
  162OSM    H8F18256   0.297   5.508   2.737 -0.4856  0.4807 -0.8228
  162OSM    H8G18257   0.375   5.674   2.733 -1.6569  0.2603 -0.2472
  162OSM    C9F18258   0.278   5.614   2.918 -0.2514  0.6151 -0.2552
  162OSM    H9F18259   0.248   5.525   2.975 -3.1904 -0.4759 -3.3670
  162OSM   C10F18260   0.237   5.737   2.956  0.7842  0.0744  0.0071
  162OSM   H10F18261   0.210   5.764   3.059 -1.1681  1.4860 -0.8419
  162OSM   C11F18262   0.256   5.862   2.876  0.5149 -0.1459  0.8618
  162OSM   H11F18263   0.184   5.851   2.793  0.8763 -0.9128  0.6485
  162OSM   H11G18264   0.360   5.858   2.836  0.2168  1.0762 -0.0581
  162OSM   C12F18265   0.224   6.003   2.938  0.0575 -0.4477  0.1579
  162OSM   H12F18266   0.122   6.000   2.983  1.5033  1.7611  3.7507
  162OSM   H12G18267   0.215   6.069   2.850 -0.3960 -0.7977 -0.0615
  162OSM   C13F18268   0.326   6.029   3.035  0.4416  0.0553  0.3405
  162OSM   H13F18269   0.430   6.017   2.998  0.2301 -0.6031 -0.0448
  162OSM   H13G18270   0.329   5.957   3.120 -0.2107 -0.3816 -0.0100
  162OSM   C14F18271   0.309   6.177   3.067 -0.7667 -0.0658 -0.6653
  162OSM   H14F18272   0.211   6.202   3.115  0.3364  2.7524  0.2203
  162OSM   H14G18273   0.316   6.238   2.975 -0.7248  0.4184 -0.3456
  162OSM   C15F18274   0.416   6.228   3.167 -1.2962 -0.1611 -0.7513
  162OSM   H15F18275   0.408   6.337   3.187  0.1399  0.1813 -1.8549
  162OSM   H15G18276   0.519   6.197   3.137 -1.0536 -1.6162  1.4731
  162OSM   C16F18277   0.402   6.158   3.304  0.0536  0.1174 -0.2400
  162OSM   H16F18278   0.439   6.055   3.285  3.3266  1.1174  0.4353
  162OSM   H16G18279   0.294   6.152   3.329 -0.1213  0.8712 -0.7828
  162OSM   C17F18280   0.484   6.215   3.419 -0.2280  0.5722 -0.0217
  162OSM   H17F18281   0.431   6.174   3.508 -0.8624  2.1146  0.3327
  162OSM   H17G18282   0.477   6.326   3.427 -0.9670  0.5197  0.1282
  162OSM   C18F18283   0.624   6.162   3.425 -0.2826 -0.0605  0.1285
  162OSM   H18F18284   0.683   6.187   3.334 -0.8544  0.4295 -0.1145
  162OSM   H18G18285   0.634   6.052   3.434 -0.2556 -0.0144  0.6779
  162OSM   H18H18286   0.684   6.214   3.503  0.1347  3.2616 -2.2933
  163OSM      N18287   6.183   7.105   1.935 -0.7741 -0.3347 -0.4108
  163OSM    C1518288   6.147   7.250   1.940  0.2362 -0.8148  0.4253
  163OSM   H15A18289   6.174   7.309   1.854 -1.5583  2.0518  1.7493
  163OSM   H15B18290   6.213   7.293   2.015  1.2787  2.6742 -2.3174
  163OSM   H15C18291   6.045   7.276   1.965  1.0897  1.7739  1.3679
  163OSM    C1418292   6.131   7.039   2.060  0.4753 -0.5829  0.1361
  163OSM   H14A18293   6.027   7.066   2.072 -0.0272 -1.9845 -0.9739
  163OSM   H14B18294   6.186   7.063   2.149  2.9276 -0.8694 -1.2522
  163OSM   H14C18295   6.117   6.935   2.038 -2.3868 -0.2473  0.1136
  163OSM    C1318296   6.114   7.043   1.819  0.4944  0.1816  0.2471
  163OSM   H13A18297   6.007   7.035   1.834  0.5793 -0.3171  0.6115
  163OSM   H13B18298   6.151   6.943   1.802  0.4636  0.0449  0.9800
  163OSM   H13C18299   6.138   7.099   1.730 -0.8290  2.4530  1.2726
  163OSM    C1218300   6.338   7.108   1.933 -0.1193  1.1129  0.5409
  163OSM   H12A18301   6.381   7.163   2.015 -0.6647 -0.6589  2.0598
  163OSM   H12B18302   6.377   7.148   1.841 -1.2803  1.7071  0.3007
  163OSM    C1118303   6.407   6.966   1.957  0.4420  0.2581  0.2460
  163OSM   H11A18304   6.379   6.936   2.060 -0.2578  0.4121  0.1023
  163OSM   H11B18305   6.517   6.980   1.949  0.8541 -3.0877 -0.7422
  163OSM      P18306   6.338   6.724   1.888  0.1097 -0.2567 -0.0722
  163OSM    O1318307   6.256   6.656   1.784 -0.1194 -0.6675 -0.8296
  163OSM    O1418308   6.463   6.650   1.922  0.5236 -0.1073 -0.3422
  163OSM    O1118309   6.254   6.734   2.025  0.6148  0.2837  0.9057
  163OSM    O1218310   6.368   6.872   1.853 -0.0692 -0.8034  0.2947
  163OSM    C1S18311   6.276   6.660   2.140 -0.1407 -0.5210  0.1204
  163OSM    H1S18312   6.368   6.701   2.187 -0.8920  0.8875  0.3681
  163OSM    H1T18313   6.284   6.551   2.115  2.7842 -0.6024  1.2148
  163OSM     NF18314   6.201   6.608   2.369 -0.4520 -0.3620 -0.2989
  163OSM    HNF18315   6.175   6.513   2.382 -0.1724 -0.1187  2.2970
  163OSM    C2S18316   6.164   6.679   2.247  0.0654 -0.5705 -0.1073
  163OSM    H2S18317   6.153   6.788   2.264  0.3098 -0.9886  2.9878
  163OSM    C3S18318   6.025   6.639   2.187  0.3196  0.4771 -0.1790
  163OSM    H3S18319   6.020   6.530   2.166  3.0490  0.2967 -0.0136
  163OSM     O318320   5.995   6.707   2.068  0.2419  0.1914 -0.0167
  163OSM    HO318321   6.084   6.725   2.035 -0.1151 -0.8004 -1.5733
  163OSM    C4S18322   5.911   6.658   2.289 -0.1424 -0.3820  0.2608
  163OSM    H4S18323   5.869   6.760   2.293 -2.3349 -1.3015  1.5074
  163OSM    C5S18324   5.856   6.568   2.372 -0.2661  0.2412 -0.2064
  163OSM    H5S18325   5.903   6.469   2.361 -0.1517  0.4222 -1.4818
  163OSM    C6S18326   5.751   6.592   2.473  0.1835  0.4369  0.0550
  163OSM    H6S18327   5.689   6.501   2.491 -0.2318  0.7281  0.0944
  163OSM    H6T18328   5.680   6.674   2.449 -0.0411  0.2349  0.0278
  163OSM    C7S18329   5.822   6.621   2.600 -0.5401 -0.2818 -0.4426
  163OSM    H7S18330   5.862   6.724   2.601  1.1765 -0.9423  1.7579
  163OSM    H7T18331   5.911   6.556   2.615  0.2880  0.5509 -1.6783
  163OSM    C8S18332   5.732   6.604   2.728  0.1343  0.0391 -0.0793
  163OSM    H8S18333   5.709   6.496   2.741 -2.1090  0.4710 -0.2272
  163OSM    H8T18334   5.640   6.666   2.720  0.0994  0.1185  0.7853
  163OSM    C9S18335   5.806   6.653   2.857  0.3403  0.2456  0.1957
  163OSM    H9S18336   5.827   6.762   2.851 -2.3979  0.8634  1.3317
  163OSM    H9T18337   5.901   6.595   2.863 -0.5771 -1.1663  1.2839
  163OSM   C10S18338   5.716   6.628   2.979 -0.1997  0.6472  0.3082
  163OSM   H10S18339   5.703   6.519   2.992  2.2297  0.2377 -0.4295
  163OSM   H10T18340   5.622   6.688   2.975  0.3379  1.5521  0.9927
  163OSM   C11S18341   5.770   6.669   3.108  0.5435  0.1194 -0.2022
  163OSM   H11S18342   5.787   6.778   3.102 -0.1595  0.2170 -0.5299
  163OSM   H11T18343   5.863   6.616   3.136  1.0895  2.8640  3.4956
  163OSM   C12S18344   5.666   6.649   3.213 -0.3569 -0.2078 -0.2420
  163OSM   H12S18345   5.630   6.545   3.233  0.7799 -0.6048 -0.2200
  163OSM   H12T18346   5.579   6.710   3.182 -0.2475 -0.8909 -1.9363
  163OSM   C13S18347   5.720   6.716   3.348 -0.2682  0.4541  0.0797
  163OSM   H13S18348   5.731   6.823   3.319  0.0178  0.4543  0.1884
  163OSM   H13T18349   5.817   6.669   3.375 -0.1425 -0.1067 -1.3437
  163OSM   C14S18350   5.628   6.700   3.465 -0.0248  0.2116 -0.4157
  163OSM   H14S18351   5.630   6.599   3.510 -0.7098 -0.3046 -1.5248
  163OSM   H14T18352   5.529   6.717   3.417 -0.4461  0.5210  0.5578
  163OSM   C15S18353   5.640   6.807   3.571 -0.3017 -0.9480 -0.1726
  163OSM   H15S18354   5.670   6.903   3.525  0.9602 -0.8913  0.7334
  163OSM   H15T18355   5.731   6.775   3.627  0.0616 -1.1777 -0.8729
  163OSM   C16S18356   5.521   6.821   3.668  0.3959 -0.0235  0.1700
  163OSM   H16S18357   5.490   6.722   3.709  2.3764 -0.3248  1.0156
  163OSM   H16T18358   5.433   6.861   3.615  1.7627  2.2892 -0.3921
  163OSM   C17S18359   5.552   6.889   3.805  0.0589  0.7181 -0.0865
  163OSM   H17S18360   5.475   6.935   3.871 -1.2193 -0.0853 -1.0039
  163OSM   H17T18361   5.623   6.971   3.780 -0.3749  0.8222 -0.9787
  163OSM   C18S18362   5.616   6.793   3.899 -0.4343  0.2712  0.6228
  163OSM   H18S18363   5.555   6.705   3.927 -2.3461  2.0588  2.2432
  163OSM   H18T18364   5.662   6.836   3.991 -1.2790  0.4639  0.9599
  163OSM   H18U18365   5.702   6.745   3.848  0.7095  1.0580  1.7822
  163OSM    C1F18366   6.290   6.660   2.452  0.0729 -0.1609  0.0618
  163OSM     OF18367   6.324   6.774   2.424  0.0908 -0.0215  0.6448
  163OSM    C2F18368   6.356   6.595   2.567 -0.5028  0.2332  0.2300
  163OSM    H2F18369   6.320   6.642   2.661  1.1593  0.4216  0.7954
  163OSM    H2G18370   6.465   6.598   2.546 -0.7224 -0.6036 -1.0835
  163OSM    C3F18371   6.318   6.447   2.572 -0.7163  0.1282  0.4846
  163OSM    H3F18372   6.407   6.397   2.615 -0.2431  1.0319  0.5657
  163OSM    H3G18373   6.307   6.404   2.470  0.2937 -0.2881  0.5461
  163OSM    C4F18374   6.193   6.422   2.666 -0.5001 -0.4950  0.7977
  163OSM    H4F18375   6.178   6.312   2.658  2.2186 -0.8419 -0.2275
  163OSM    H4G18376   6.107   6.484   2.636  0.1791  1.0238  1.9298
  163OSM    C5F18377   6.212   6.441   2.822 -0.4307  0.4930 -0.0973
  163OSM    H5F18378   6.118   6.397   2.862  0.9186 -0.1265  2.5520
  163OSM    H5G18379   6.209   6.549   2.846 -2.1536  0.0149  2.0766
  163OSM    C6F18380   6.330   6.360   2.892 -0.1111 -0.5756 -0.0924
  163OSM    H6F18381   6.426   6.390   2.845 -0.5289 -1.5396 -1.5600
  163OSM    H6G18382   6.311   6.251   2.887  1.0225 -0.7314 -1.4316
  163OSM    C7F18383   6.339   6.395   3.042 -0.2121  0.3998 -0.2264
  163OSM    H7F18384   6.238   6.411   3.085 -0.8996 -3.2015 -0.3005
  163OSM    H7G18385   6.392   6.491   3.061  0.1064  0.2900 -0.5472
  163OSM    C8F18386   6.420   6.291   3.124  0.1346 -0.1072  0.0852
  163OSM    H8F18387   6.454   6.344   3.215 -1.5022  2.9928 -1.0546
  163OSM    H8G18388   6.509   6.264   3.062  0.9276  2.4430  0.0502
  163OSM    C9F18389   6.331   6.175   3.156  0.5314  0.2831  0.6419
  163OSM    H9F18390   6.322   6.093   3.083  1.8539 -0.7873  1.6472
  163OSM   C10F18391   6.271   6.152   3.274  0.2211  0.2981 -0.2583
  163OSM   H10F18392   6.202   6.068   3.288  1.0387 -0.1709  0.9993
  163OSM   C11F18393   6.274   6.241   3.399 -0.0056 -0.1347  0.7689
  163OSM   H11F18394   6.173   6.237   3.446  1.3183 -3.3454  3.5162
  163OSM   H11G18395   6.292   6.349   3.377  0.7498 -0.5175 -0.5227
  163OSM   C12F18396   6.374   6.205   3.513  0.5684  0.0208 -0.0010
  163OSM   H12F18397   6.472   6.190   3.463 -0.3105 -1.1968 -1.4125
  163OSM   H12G18398   6.337   6.109   3.555 -0.9435  1.1345  1.2146
  163OSM   C13F18399   6.396   6.317   3.614 -0.0712  0.3349  0.1498
  163OSM   H13F18400   6.374   6.420   3.580 -2.4312  0.1233  0.9935
  163OSM   H13G18401   6.500   6.305   3.652  0.6215 -0.8457 -2.0051
  163OSM   C14F18402   6.310   6.291   3.742 -0.7416  0.7291  0.0262
  163OSM   H14F18403   6.340   6.195   3.789 -1.5610  0.7382  0.5992
  163OSM   H14G18404   6.200   6.303   3.727 -0.5463  0.6718 -1.5296
  163OSM   C15F18405   6.338   6.403   3.846 -0.0069  0.4249  0.1952
  163OSM   H15F18406   6.311   6.503   3.807  0.4604  0.5949  0.3006
  163OSM   H15G18407   6.447   6.412   3.864  0.4900 -0.3077 -2.2307
  163OSM   C16F18408   6.271   6.372   3.974 -0.0086  0.6112 -0.2921
  163OSM   H16F18409   6.295   6.274   4.020 -1.4956 -0.0079 -0.8107
  163OSM   H16G18410   6.161   6.373   3.959 -0.2254  3.3499  1.1774
  163OSM   C17F18411   6.295   6.480   4.083 -0.3852  0.0791  0.0087
  163OSM   H17F18412   6.208   6.461   4.149 -1.5407  1.0766 -1.2033
  163OSM   H17G18413   6.283   6.578   4.033 -2.4267 -0.7230 -1.1482
  163OSM   C18F18414   6.425   6.484   4.155  0.0898  0.2114  0.3153
  163OSM   H18F18415   6.509   6.481   4.082  0.3530  0.0582  0.6218
  163OSM   H18G18416   6.427   6.390   4.215 -1.1851  1.6425  2.6438
  163OSM   H18H18417   6.431   6.572   4.223 -0.0512  0.5874 -0.1603
  164OSM      N18418   0.531   0.502   2.174 -0.3444  0.1032  0.3425
  164OSM    C1518419   0.388   0.473   2.136  0.0127 -0.8699  0.1828
  164OSM   H15A18420   0.374   0.462   2.029  0.4872  0.8511 -0.0581
  164OSM   H15B18421   0.317   0.546   2.170  0.2195 -0.0566 -1.0957
  164OSM   H15C18422   0.356   0.379   2.178  0.0764 -0.1964  1.7462
  164OSM    C1418423   0.593   0.618   2.087  0.5436 -0.4905  0.1269
  164OSM   H14A18424   0.567   0.599   1.984 -0.3558  3.0668 -0.3657
  164OSM   H14B18425   0.698   0.632   2.107  0.1036  0.7480  1.7139
  164OSM   H14C18426   0.546   0.714   2.098 -0.3744 -0.6723 -1.9700
  164OSM    C1318427   0.527   0.556   2.310  0.3955 -0.1625  0.0235
  164OSM   H13A18428   0.441   0.617   2.332  0.8863  0.4070  0.3642
  164OSM   H13B18429   0.609   0.623   2.331  0.7858 -1.3587  2.5834
  164OSM   H13C18430   0.529   0.476   2.383  1.4497 -0.0982  0.0693
  164OSM    C1218431   0.619   0.381   2.172 -1.1065 -0.0298  0.3803
  164OSM   H12A18432   0.574   0.310   2.240  1.4610 -0.5322  1.6139
  164OSM   H12B18433   0.714   0.400   2.219 -1.4852 -3.2368  2.6198
  164OSM    C1118434   0.643   0.317   2.035 -0.2721 -0.0519  0.0260
  164OSM   H11A18435   0.547   0.270   2.005  0.4777  0.4657 -3.2772
  164OSM   H11B18436   0.711   0.232   2.060 -0.4102  0.6378  2.9624
  164OSM      P18437   0.837   0.372   1.866  0.5028 -0.1261  0.4595
  164OSM    O1318438   0.827   0.256   1.774  0.6335  0.3259  0.0374
  164OSM    O1418439   0.880   0.500   1.802 -0.1687 -0.6307  0.5224
  164OSM    O1118440   0.943   0.343   1.978  0.4035  0.3050  0.5697
  164OSM    O1218441   0.696   0.403   1.934  0.1396  0.4287  0.0237
  164OSM    C1S18442   0.973   0.447   2.073  0.3634 -0.1242 -0.4518
  164OSM    H1S18443   0.880   0.482   2.124  0.2139  0.9028 -1.4005
  164OSM    H1T18444   1.011   0.535   2.018 -1.1533  0.2221 -0.9800
  164OSM     NF18445   1.068   0.518   2.290 -0.0666 -0.2012  1.0895
  164OSM    HNF18446   1.120   0.603   2.282 -0.2076 -0.3855 -2.0711
  164OSM    C2S18447   1.082   0.419   2.181  0.5490 -0.6331 -0.0743
  164OSM    H2S18448   1.056   0.317   2.218 -0.0171 -0.0640  1.1130
  164OSM    C3S18449   1.225   0.417   2.115 -0.4023 -0.1149 -0.5133
  164OSM    H3S18450   1.246   0.511   2.060  1.1251  1.0322  1.9499
  164OSM     O318451   1.245   0.319   2.014 -0.0104  0.1435  0.1478
  164OSM    HO318452   1.157   0.281   2.005  0.0823 -0.1547  0.4698
  164OSM    C4S18453   1.324   0.399   2.233 -0.5909  0.8440  0.6441
  164OSM    H4S18454   1.369   0.498   2.253 -1.9255  1.5513  0.1817
  164OSM    C5S18455   1.362   0.277   2.287 -0.0180 -0.3719 -0.1887
  164OSM    H5S18456   1.304   0.185   2.267 -0.4386 -0.3652  0.9719
  164OSM    C6S18457   1.456   0.272   2.407  0.6989 -0.2529  0.6160
  164OSM    H6S18458   1.552   0.326   2.402 -0.2005  1.3088  0.0250
  164OSM    H6T18459   1.483   0.165   2.423  2.4084  0.1846  0.6843
  164OSM    C7S18460   1.378   0.305   2.539 -0.2882  0.1623  0.3155
  164OSM    H7S18461   1.332   0.405   2.526 -1.1270 -0.1632  0.8052
  164OSM    H7T18462   1.450   0.328   2.621 -0.2184  0.0736  0.2783
  164OSM    C8S18463   1.274   0.205   2.581  0.3564  0.1329  0.3399
  164OSM    H8S18464   1.324   0.106   2.592  0.5211  0.1591 -0.1504
  164OSM    H8T18465   1.197   0.206   2.501  0.4341 -0.1018  0.2617
  164OSM    C9S18466   1.207   0.228   2.719  0.0665 -0.3794 -0.5145
  164OSM    H9S18467   1.120   0.161   2.732 -2.3242  2.5965 -0.4448
  164OSM    H9T18468   1.166   0.331   2.707 -1.8972 -1.3006 -1.8939
  164OSM   C10S18469   1.298   0.204   2.842  0.1950 -0.1981 -0.0483
  164OSM   H10S18470   1.388   0.268   2.827  0.9283 -0.9853  0.9035
  164OSM   H10T18471   1.341   0.101   2.837 -0.9013 -0.6412 -0.5324
  164OSM   C11S18472   1.242   0.237   2.980 -0.1273  0.2436  0.7588
  164OSM   H11S18473   1.146   0.182   2.995  0.6429 -0.4422  3.5992
  164OSM   H11T18474   1.221   0.346   2.991 -2.6990 -0.2080  0.6553
  164OSM   C12S18475   1.330   0.201   3.105  0.0089 -0.1075  0.2413
  164OSM   H12S18476   1.427   0.254   3.091  0.1634 -0.2106  0.8811
  164OSM   H12T18477   1.335   0.090   3.092  1.1757 -0.0928  0.4965
  164OSM   C13S18478   1.265   0.236   3.248 -0.7530 -0.1480  0.7149
  164OSM   H13S18479   1.175   0.173   3.236 -1.1839  0.9466 -2.3196
  164OSM   H13T18480   1.243   0.345   3.258 -3.0046 -0.3994 -1.2333
  164OSM   C14S18481   1.354   0.193   3.365  0.1039 -0.0087 -0.2776
  164OSM   H14S18482   1.449   0.250   3.361  0.2695 -0.3419 -1.4570
  164OSM   H14T18483   1.388   0.087   3.355  3.1939  0.8418  0.7933
  164OSM   C15S18484   1.288   0.200   3.508 -0.5077  0.2422 -0.7470
  164OSM   H15S18485   1.202   0.130   3.501  1.1372 -1.5689 -3.9049
  164OSM   H15T18486   1.253   0.303   3.528 -1.6500  0.0982 -1.9594
  164OSM   C16S18487   1.384   0.168   3.626 -0.7249 -0.3633  0.0281
  164OSM   H16S18488   1.453   0.254   3.638  1.4621 -1.8904 -1.1845
  164OSM   H16T18489   1.450   0.079   3.613  1.1563  1.0210 -0.1746
  164OSM   C17S18490   1.325   0.144   3.758 -0.5519 -0.1901  0.3482
  164OSM   H17S18491   1.261   0.054   3.740 -1.0320  0.2503 -0.1836
  164OSM   H17T18492   1.248   0.217   3.790 -2.2937 -1.6670 -0.3620
  164OSM   C18S18493   1.427   0.123   3.875 -0.3311 -0.4190 -0.2847
  164OSM   H18S18494   1.496   0.211   3.874 -2.1511  1.1277  2.7685
  164OSM   H18T18495   1.497   0.038   3.861  0.7838  0.3300  0.6043
  164OSM   H18U18496   1.377   0.116   3.974  1.6483  0.3993  0.8006
  164OSM    C1F18497   0.966   0.509   2.381  0.7021  0.2297  0.0189
  164OSM     OF18498   0.874   0.431   2.368  0.1326  0.4414 -0.4290
  164OSM    C2F18499   0.963   0.617   2.493  0.0079  0.4260  0.2162
  164OSM    H2F18500   0.873   0.675   2.467 -0.0494  0.3993  0.3515
  164OSM    H2G18501   1.060   0.672   2.486 -0.9979  2.1222 -0.5684
  164OSM    C3F18502   0.944   0.558   2.634  0.2809 -1.0050 -0.1537
  164OSM    H3F18503   1.024   0.483   2.657  0.7921 -0.2596  0.5168
  164OSM    H3G18504   0.846   0.508   2.647 -0.1107  0.0391  1.0070
  164OSM    C4F18505   0.967   0.666   2.748 -0.4426 -0.1935 -0.1850
  164OSM    H4F18506   0.880   0.732   2.768  1.2221  1.7262  0.8622
  164OSM    H4G18507   1.047   0.740   2.727  1.0884 -1.1544  2.0141
  164OSM    C5F18508   0.989   0.603   2.884 -0.3006 -0.0902  0.2184
  164OSM    H5F18509   1.054   0.515   2.867  0.1848  0.2564  0.2750
  164OSM    H5G18510   0.900   0.554   2.929 -1.5268  1.5210 -0.4007
  164OSM    C6F18511   1.053   0.691   2.990  0.1869 -0.0125 -0.4595
  164OSM    H6F18512   0.989   0.781   2.998 -0.2837 -0.1205 -2.7065
  164OSM    H6G18513   1.139   0.741   2.940 -0.1607  0.0973 -0.9464
  164OSM    C7F18514   1.095   0.629   3.118  0.5767  0.6104  0.1118
  164OSM    H7F18515   1.190   0.577   3.093  0.8592  1.4605 -0.6008
  164OSM    H7G18516   1.027   0.552   3.159 -0.8937  1.0044 -1.5322
  164OSM    C8F18517   1.114   0.736   3.229 -0.0791  0.5805 -0.8838
  164OSM    H8F18518   1.194   0.797   3.183  0.6437 -0.5100 -1.1085
  164OSM    H8G18519   1.159   0.691   3.320 -2.0484 -2.8619 -1.4916
  164OSM    C9F18520   0.986   0.808   3.278 -0.2716  0.2910  0.6413
  164OSM    H9F18521   0.916   0.826   3.196 -0.1296 -0.4567  0.3490
  164OSM   C10F18522   0.953   0.845   3.411  0.1152 -0.1088 -0.0888
  164OSM   H10F18523   0.861   0.901   3.434  0.6199  1.5575 -1.9554
  164OSM   C11F18524   1.041   0.817   3.530 -0.1043  0.3860  0.0606
  164OSM   H11F18525   1.049   0.910   3.590 -0.0321 -0.8245  1.9966
  164OSM   H11G18526   1.146   0.798   3.500 -0.4207 -0.4696 -0.5176
  164OSM   C12F18527   1.002   0.688   3.603 -0.0423 -0.7733  0.3501
  164OSM   H12F18528   1.083   0.645   3.665  1.0922 -0.2760 -0.7814
  164OSM   H12G18529   0.982   0.602   3.536  0.3798  1.0535 -2.2049
  164OSM   C13F18530   0.875   0.700   3.696  0.4248  0.2935 -0.3362
  164OSM   H13F18531   0.860   0.603   3.747  0.8424 -0.3142 -1.3519
  164OSM   H13G18532   0.800   0.738   3.624  0.3350 -0.1103 -0.4562
  164OSM   C14F18533   0.898   0.826   3.786 -0.5328  0.1440  0.5254
  164OSM   H14F18534   0.887   0.926   3.739  0.4453 -0.8598 -1.8975
  164OSM   H14G18535   1.002   0.820   3.825 -0.2947 -1.9790 -0.3561
  164OSM   C15F18536   0.801   0.832   3.900 -0.2423  0.0132 -0.2152
  164OSM   H15F18537   0.814   0.916   3.971  0.1890  0.4549 -0.8104
  164OSM   H15G18538   0.798   0.736   3.957  2.9682 -0.0688 -0.0748
  164OSM   C16F18539   0.656   0.848   3.848  0.9054 -0.0211 -0.1146
  164OSM   H16F18540   0.624   0.755   3.796 -1.5048 -0.1421  1.5514
  164OSM   H16G18541   0.651   0.930   3.774 -1.9303 -0.1619 -0.1319
  164OSM   C17F18542   0.557   0.894   3.959  0.4770 -0.1186 -0.0636
  164OSM   H17F18543   0.457   0.865   3.921  0.7787  0.0773 -1.0221
  164OSM   H17G18544   0.559   1.005   3.972  0.6679 -0.0006 -1.0931
  164OSM   C18F18545   0.582   0.833   4.091  0.2361  0.7256  1.2870
  164OSM   H18F18546   0.592   0.723   4.082 -0.4239  0.8301 -1.0545
  164OSM   H18G18547   0.499   0.863   4.159 -0.6789  2.6162 -0.6109
  164OSM   H18H18548   0.680   0.868   4.130  0.8956 -0.3331  0.5906
  165SAPS     N18549   5.290   4.843   6.214 -0.4508  0.3063  0.2835
  165SAPS   HN118550   5.332   4.849   6.309 -0.0920 -2.3520  0.3199
  165SAPS   HN218551   5.363   4.814   6.146 -0.1830 -0.8210  1.0371
  165SAPS   HN318552   5.258   4.931   6.170  1.3969  1.9565  2.1135
  165SAPS   C1218553   5.170   4.766   6.223 -0.6742  1.5581  0.4037
  165SAPS  H12A18554   5.196   4.679   6.283 -0.0926  0.7138 -1.0492
  165SAPS   C1318555   5.062   4.831   6.296 -0.4644 -0.0581  0.1556
  165SAPS  O13A18556   5.078   4.941   6.352 -0.2133 -0.0122 -0.5918
  165SAPS  O13B18557   4.953   4.767   6.318  0.1235  0.5711  0.1319
  165SAPS   C1118558   5.123   4.715   6.088 -0.3647  0.4221  0.5620
  165SAPS  H11A18559   5.091   4.790   6.013 -1.1759 -0.2405  0.2366
  165SAPS  H11B18560   5.031   4.658   6.113  0.2741 -0.7971  0.1439
  165SAPS     P18561   5.224   4.528   5.916  0.1236 -0.4392 -0.3770
  165SAPS   O1318562   5.366   4.501   5.887  0.2444  0.2578  0.6953
  165SAPS   O1418563   5.137   4.412   5.943  0.2176  0.2629 -0.0810
  165SAPS   O1218564   5.223   4.629   6.038  0.0143  0.3547  0.7023
  165SAPS   O1118565   5.156   4.615   5.801 -0.6255  0.6458 -0.0061
  165SAPS    C118566   5.196   4.569   5.667  0.0068 -0.5924  0.4174
  165SAPS    HA18567   5.299   4.598   5.636  0.1663 -1.4885  0.0854
  165SAPS    HB18568   5.181   4.459   5.663  0.2048 -0.6753  1.6162
  165SAPS    C218569   5.097   4.641   5.569  0.1331 -0.4991 -0.4758
  165SAPS    HS18570   5.015   4.572   5.542 -0.5261  0.8414 -1.9880
  165SAPS   O2118571   5.169   4.689   5.457  0.0493  0.0201 -0.4197
  165SAPS   C2118572   5.199   4.590   5.371 -0.0044  0.3136  0.7487
  165SAPS   O2218573   5.168   4.474   5.386  0.3356  0.4727  0.6934
  165SAPS   C2218574   5.277   4.654   5.262 -0.2570 -0.2540 -0.0644
  165SAPS   H2R18575   5.272   4.764   5.262 -0.7673 -0.2557 -2.2138
  165SAPS   H2S18576   5.381   4.624   5.289 -0.4399 -0.8657 -0.0171
  165SAPS    C318577   5.023   4.757   5.641  0.4956 -0.5717  0.1474
  165SAPS    HX18578   5.099   4.811   5.702  1.2822  1.1811 -2.2904
  165SAPS    HY18579   4.954   4.718   5.719  2.9917 -1.8564  1.8079
  165SAPS   O3118580   4.956   4.847   5.549 -0.2057  0.4790  0.0212
  165SAPS   C3118581   5.024   4.956   5.511 -0.0836  0.8549 -0.4669
  165SAPS   O3218582   5.143   4.982   5.541  0.2019 -0.0223  0.1075
  165SAPS   C3218583   4.941   5.046   5.415 -0.9318  0.2639 -0.4337
  165SAPS   H2X18584   4.974   5.152   5.422  0.3135 -0.1693  0.3000
  165SAPS   H2Y18585   4.833   5.054   5.438 -0.4394  1.9559  1.3556
  165SAPS   C2318586   5.241   4.597   5.122 -0.6730 -0.4824 -0.3004
  165SAPS   H3R18587   5.136   4.625   5.096 -1.2160 -1.3904  0.8648
  165SAPS   H3S18588   5.242   4.486   5.130 -0.8534 -0.4213  0.5703
  165SAPS   C2418589   5.335   4.641   5.003  0.3773  0.3781 -0.2371
  165SAPS   H4R18590   5.305   4.595   4.906  0.8983  0.5697 -0.4920
  165SAPS   H4S18591   5.432   4.590   5.018  0.7324  0.5643 -1.7446
  165SAPS   C2518592   5.345   4.789   4.995 -0.4038  0.4043  0.3237
  165SAPS   H5R18593   5.321   4.844   5.087 -1.6132  0.7208 -0.1652
  165SAPS   C2618594   5.383   4.859   4.887  0.2593 -0.8028  0.4292
  165SAPS   H6R18595   5.411   4.965   4.900 -1.1204 -0.2577 -0.8724
  165SAPS   C2718596   5.426   4.806   4.752 -0.7076  0.2927 -0.0240
  165SAPS   H7R18597   5.449   4.697   4.748 -0.9470  0.1776  1.5175
  165SAPS   H7S18598   5.522   4.862   4.746 -0.3564 -0.2285  0.6725
  165SAPS   C2818599   5.336   4.822   4.634 -0.2917 -0.8458  0.0773
  165SAPS   H8R18600   5.231   4.848   4.653 -0.0287  0.8243 -0.6945
  165SAPS   C2918601   5.383   4.836   4.507  0.4460 -0.0252  0.3412
  165SAPS   H9R18602   5.312   4.848   4.424 -2.1791  0.0523  2.5140
  165SAPS  C21018603   5.527   4.828   4.460 -0.3376  0.3177  0.3304
  165SAPS  H10R18604   5.531   4.771   4.365  0.5394 -0.4369  0.8109
  165SAPS  H10S18605   5.592   4.768   4.527 -0.3553 -0.4609 -0.3481
  165SAPS  C21118606   5.593   4.966   4.444 -0.2507  0.0448 -1.0377
  165SAPS  H11R18607   5.552   5.038   4.517 -0.8569 -0.1213 -1.2109
  165SAPS  C21218608   5.667   5.010   4.338  0.3758 -0.2391 -0.2963
  165SAPS  H12R18609   5.708   5.112   4.337  0.8201 -0.3688  2.0091
  165SAPS  C21318610   5.706   4.924   4.217 -0.2370 -0.4939  0.4079
  165SAPS  H13R18611   5.700   4.988   4.127  1.1073 -0.4690  0.3278
  165SAPS  H13S18612   5.631   4.844   4.198  1.7245 -1.8979 -1.5876
  165SAPS  C21418613   5.842   4.853   4.234  0.3335  0.2097  0.1066
  165SAPS  H14R18614   5.822   4.756   4.283  2.1929  0.7773  2.0659
  165SAPS  C21518615   5.963   4.885   4.185  0.7378  0.0705 -0.1053
  165SAPS  H15R18616   6.049   4.817   4.195  0.6403  0.0870  0.8556
  165SAPS  C21618617   5.982   5.007   4.095  0.2349 -0.5067  0.0870
  165SAPS  H16R18618   5.909   5.091   4.105  1.1665  0.2322  0.7438
  165SAPS  H16S18619   5.971   4.968   3.991  1.9192 -0.8315  0.0151
  165SAPS  C21718620   6.121   5.060   4.118  0.4783 -0.4125  0.4441
  165SAPS  H17R18621   6.131   5.145   4.047 -0.3217  2.1475  3.3236
  165SAPS  H17S18622   6.191   4.979   4.085  2.4188  0.0407  3.3055
  165SAPS  C21818623   6.162   5.107   4.259  0.7323 -0.2179  0.3590
  165SAPS  H18R18624   6.268   5.141   4.257 -0.2505  2.9931 -1.0592
  165SAPS  H18S18625   6.149   5.033   4.340  0.9842 -1.4885 -0.7528
  165SAPS  C21918626   6.081   5.238   4.279  0.4238  0.5252 -0.1328
  165SAPS  H19R18627   5.975   5.205   4.280  0.1826  1.2418 -1.3277
  165SAPS  H19S18628   6.083   5.309   4.193 -2.6554  1.8432  0.8258
  165SAPS  C22018629   6.123   5.298   4.409  0.3944  0.2752  0.2708
  165SAPS  H20R18630   6.101   5.236   4.499 -0.8954  0.1377 -0.1311
  165SAPS  H20S18631   6.076   5.394   4.438  0.7172  0.0129  1.7137
  165SAPS  H20T18632   6.231   5.322   4.411  0.3022  0.6208  1.5032
  165SAPS   C3318633   4.950   5.001   5.273 -0.0561 -0.4141  0.0068
  165SAPS   H3X18634   5.056   4.977   5.251  0.9704  4.2612 -0.6207
  165SAPS   H3Y18635   4.925   5.085   5.204 -0.5514 -1.4782 -1.1408
  165SAPS   C3418636   4.866   4.875   5.235 -0.2202  0.6866  0.2631
  165SAPS   H4X18637   4.762   4.913   5.229 -0.0423  1.1075 -0.1761
  165SAPS   H4Y18638   4.873   4.800   5.317  0.2977 -0.4031 -0.7458
  165SAPS   C3518639   4.903   4.806   5.101 -0.0629  0.4055 -0.0367
  165SAPS   H5X18640   4.815   4.748   5.066 -1.1091  1.0743  1.4377
  165SAPS   H5Y18641   4.994   4.746   5.119 -1.5574 -2.0894 -0.4677
  165SAPS   C3618642   4.932   4.914   4.996  0.0899 -0.1748 -0.0229
  165SAPS   H6X18643   5.015   4.976   5.037 -1.3752 -0.0702  2.8618
  165SAPS   H6Y18644   4.846   4.981   4.975  1.6763  2.2859  1.0897
  165SAPS   C3718645   4.982   4.870   4.858  0.5143  0.2304 -0.6296
  165SAPS   H7X18646   5.076   4.811   4.869  0.1511 -0.0349  1.1756
  165SAPS   H7Y18647   5.007   4.964   4.805  2.2098  2.0655  3.2159
  165SAPS   C3818648   4.885   4.786   4.779  0.7142 -0.8440  0.7188
  165SAPS   H8X18649   4.793   4.846   4.763  1.4579  0.4820  1.3707
  165SAPS   H8Y18650   4.844   4.704   4.842  2.2224 -0.4247  2.3015
  165SAPS   C3918651   4.940   4.748   4.641 -0.8786  0.3459 -0.0998
  165SAPS   H9X18652   5.035   4.694   4.665 -0.9186  0.1014 -0.4791
  165SAPS   H9Y18653   4.961   4.832   4.571 -2.4982  2.3159  1.7150
  165SAPS  C31018654   4.847   4.656   4.572  0.8014  0.1994  0.7281
  165SAPS  H10X18655   4.749   4.708   4.564  0.4922 -0.6401 -0.9725
  165SAPS  H10Y18656   4.823   4.560   4.624  0.9616 -0.4073 -0.3076
  165SAPS  C31118657   4.885   4.626   4.428 -0.0458 -0.9916 -0.0922
  165SAPS  H11X18658   4.993   4.599   4.432  0.4479  0.9366  0.2494
  165SAPS  H11Y18659   4.880   4.717   4.365 -1.0069  0.3193  1.8022
  165SAPS  C31218660   4.806   4.518   4.372 -0.5219 -0.1683  0.6229
  165SAPS  H12X18661   4.711   4.562   4.336  0.3896  0.2803 -1.2977
  165SAPS  H12Y18662   4.788   4.428   4.435 -1.5014 -0.4475 -0.0506
  165SAPS  C31318663   4.883   4.463   4.253 -0.5047  0.1458 -0.1844
  165SAPS  H13X18664   4.972   4.405   4.287 -0.2234 -0.3283 -1.6998
  165SAPS  H13Y18665   4.934   4.540   4.190 -1.5170  0.2428 -0.8822
  165SAPS  C31418666   4.789   4.383   4.153 -0.2890  0.3919  0.2923
  165SAPS  H14X18667   4.851   4.363   4.063 -0.6732  3.0538 -0.6331
  165SAPS  H14Y18668   4.700   4.444   4.125 -1.4746 -0.6430  1.7457
  165SAPS  C31518669   4.732   4.241   4.200  0.0713 -0.2379  0.9958
  165SAPS  H15X18670   4.661   4.243   4.285 -0.4086 -2.9055  0.6856
  165SAPS  H15Y18671   4.822   4.191   4.242 -0.1175  0.7360  2.6457
  165SAPS  C31618672   4.678   4.167   4.074  0.0292 -0.4779  0.9187
  165SAPS  H16X18673   4.759   4.128   4.009 -0.1027  1.3787 -0.4112
  165SAPS  H16Y18674   4.627   4.244   4.012  0.6016  1.1784  2.4707
  165SAPS  C31718675   4.570   4.063   4.109  0.0507 -0.4270  0.0362
  165SAPS  H17X18676   4.490   4.110   4.170  0.8965  1.5169 -0.3028
  165SAPS  H17Y18677   4.612   3.989   4.180  0.3558  0.1238  0.4322
  165SAPS  C31818678   4.509   4.015   3.976 -0.4230  0.4915 -0.9359
  165SAPS  H18X18679   4.471   4.103   3.921 -0.7262  0.6608 -0.4581
  165SAPS  H18Y18680   4.422   3.948   3.996  0.7870 -1.1767 -1.1193
  165SAPS  H18Z18681   4.573   3.959   3.905 -0.6994  1.1787 -1.7346
  166SAPS     N18682   2.030   4.941   5.960  0.3084  0.3346 -0.3719
  166SAPS   HN118683   1.975   4.943   5.871  2.5747  1.5304 -1.8071
  166SAPS   HN218684   2.060   5.039   5.977  1.2691  0.1927 -1.1923
  166SAPS   HN318685   2.107   4.875   5.937  0.7266  0.5793  0.3401
  166SAPS   C1218686   1.949   4.895   6.076 -0.2783 -0.2401  0.0052
  166SAPS  H12A18687   1.905   4.798   6.055 -1.3715  0.3049 -0.2529
  166SAPS   C1318688   2.037   4.868   6.207 -0.4980 -0.5020 -0.3651
  166SAPS  O13A18689   2.164   4.870   6.198  0.6030 -0.1068 -0.0682
  166SAPS  O13B18690   1.973   4.821   6.307  0.8378 -0.2133  0.2518
  166SAPS   C1118691   1.839   4.995   6.110 -0.1671  0.8021  0.0893
  166SAPS  H11A18692   1.883   5.094   6.136 -2.1258  2.4028 -2.4196
  166SAPS  H11B18693   1.787   4.959   6.202  0.2648 -1.1300 -0.4191
  166SAPS     P18694   1.612   4.966   5.976 -0.0852 -0.2011 -0.0389
  166SAPS   O1318695   1.608   4.834   6.044 -0.0800 -0.1372  0.7880
  166SAPS   O1418696   1.503   5.058   6.014 -0.8013 -0.0930 -0.3648
  166SAPS   O1218697   1.757   5.031   5.995 -0.6470  0.4425 -0.2839
  166SAPS   O1118698   1.618   4.949   5.819  0.5335 -0.1115  0.3269
  166SAPS    C118699   1.579   4.827   5.758  0.3886 -0.0402 -0.0336
  166SAPS    HA18700   1.501   4.781   5.822  0.7836  0.5826  0.8978
  166SAPS    HB18701   1.552   4.852   5.653  0.8302 -0.4378 -0.2456
  166SAPS    C218702   1.693   4.721   5.737  0.4509  0.1097 -0.1112
  166SAPS    HS18703   1.752   4.723   5.831 -0.2706  0.0773  0.3508
  166SAPS   O2118704   1.771   4.751   5.622  0.1082 -0.4324  0.3383
  166SAPS   C2118705   1.861   4.837   5.634 -0.1439 -0.1287  0.0890
  166SAPS   O2218706   1.889   4.902   5.736 -0.2597 -0.2421 -1.0680
  166SAPS   C2218707   1.930   4.861   5.495  0.0461  0.3102  0.4267
  166SAPS   H2R18708   2.009   4.937   5.514 -0.0737  0.9727 -1.6296
  166SAPS   H2S18709   1.992   4.770   5.482  1.7019  1.5942 -0.8981
  166SAPS    C318710   1.629   4.584   5.725  0.6185  0.2126  0.1132
  166SAPS    HX18711   1.536   4.601   5.667 -0.5768  0.7799  2.1187
  166SAPS    HY18712   1.590   4.546   5.823  0.2009  2.1117  0.7123
  166SAPS   O3118713   1.709   4.488   5.652 -0.6491 -0.3320  0.0031
  166SAPS   C3118714   1.806   4.431   5.729 -0.9586 -0.0879  0.2400
  166SAPS   O3218715   1.818   4.448   5.850  0.4141  0.2228 -0.2514
  166SAPS   C3218716   1.882   4.324   5.645 -0.8868 -0.4996 -0.3135
  166SAPS   H2X18717   1.804   4.272   5.586 -0.2692  0.3550 -1.9127
  166SAPS   H2Y18718   1.923   4.259   5.726  1.0574  0.3388 -0.5828
  166SAPS   C2318719   1.836   4.906   5.379  0.2531  0.2012  0.0174
  166SAPS   H3R18720   1.747   4.965   5.411 -0.6630  0.3175 -2.6120
  166SAPS   H3S18721   1.800   4.814   5.328 -0.1762  0.0026  0.6688
  166SAPS   C2418722   1.892   4.993   5.270 -0.3334 -0.3789 -0.7194
  166SAPS   H4R18723   1.805   4.994   5.201 -1.1147  0.8370  0.2717
  166SAPS   H4S18724   1.976   4.956   5.207  2.2554  2.8922  0.6669
  166SAPS   C2518725   1.924   5.130   5.324 -0.4776  0.0205  0.2182
  166SAPS   H5R18726   1.974   5.132   5.422  2.0541  1.9060 -1.0252
  166SAPS   C2618727   1.913   5.257   5.268  0.0775 -0.2515 -0.3430
  166SAPS   H6R18728   1.940   5.340   5.334  0.9261 -0.3204 -0.5966
  166SAPS   C2718729   1.875   5.275   5.122  0.6844  0.2010  0.2888
  166SAPS   H7R18730   1.850   5.383   5.109 -0.4450 -0.2817 -1.6711
  166SAPS   H7S18731   1.777   5.224   5.107  1.0460 -0.0968 -1.0735
  166SAPS   C2818732   1.972   5.240   5.009  0.2753  0.4929 -0.9478
  166SAPS   H8R18733   2.068   5.196   5.039 -0.9310 -1.7879 -0.2541
  166SAPS   C2918734   1.943   5.242   4.879 -0.7859 -0.4277  0.1243
  166SAPS   H9R18735   2.032   5.251   4.815  1.0083  1.2962  2.7532
  166SAPS  C21018736   1.810   5.275   4.819  0.7189 -0.1644 -0.0840
  166SAPS  H10R18737   1.832   5.346   4.736  0.6842  2.2373  1.9170
  166SAPS  H10S18738   1.747   5.329   4.893 -0.2032 -1.8031  0.3414
  166SAPS  C21118739   1.730   5.164   4.759  0.8311 -0.4350  0.3712
  166SAPS  H11R18740   1.693   5.086   4.828  0.1196  2.1951  3.0666
  166SAPS  C21218741   1.691   5.153   4.631 -0.0180  0.3459  0.1984
  166SAPS  H12R18742   1.644   5.058   4.602  2.5401 -0.9381  0.2030
  166SAPS  C21318743   1.729   5.237   4.509 -0.6584 -0.1457 -0.3282
  166SAPS  H13R18744   1.772   5.175   4.427 -2.5012 -0.1224 -1.3424
  166SAPS  H13S18745   1.800   5.318   4.535 -1.2365 -0.1523  1.2891
  166SAPS  C21418746   1.604   5.297   4.466  0.0456  0.4724 -0.8781
  166SAPS  H14R18747   1.567   5.376   4.533  0.6912 -1.3478  1.7214
  166SAPS  C21518748   1.535   5.266   4.354  0.1132 -0.0504  0.5370
  166SAPS  H15R18749   1.436   5.314   4.349  0.0312 -0.0237  2.1837
  166SAPS  C21618750   1.563   5.170   4.241 -0.5009  0.1989  0.1455
  166SAPS  H16R18751   1.517   5.071   4.262 -0.3095 -0.3349 -1.8056
  166SAPS  H16S18752   1.671   5.147   4.225 -1.3520 -3.0698 -1.5305
  166SAPS  C21718753   1.507   5.220   4.103  0.4415  0.2929  0.8772
  166SAPS  H17R18754   1.403   5.249   4.130  0.8171  2.1427  0.3698
  166SAPS  H17S18755   1.506   5.138   4.028 -0.8863 -0.1374  1.3376
  166SAPS  C21818756   1.582   5.338   4.034  0.9112  0.1243  0.8466
  166SAPS  H18R18757   1.685   5.319   3.996  0.2442  1.2794 -1.6193
  166SAPS  H18S18758   1.592   5.419   4.109  1.8059  0.0590  0.8096
  166SAPS  C21918759   1.505   5.389   3.911 -0.1932 -0.6894 -0.0855
  166SAPS  H19R18760   1.414   5.444   3.942  0.3076  0.0968 -0.0113
  166SAPS  H19S18761   1.476   5.305   3.844  2.2581 -1.6390  0.0105
  166SAPS  C22018762   1.570   5.487   3.811 -0.4839  0.0996  0.0305
  166SAPS  H20R18763   1.612   5.581   3.854  1.9877  0.0347 -2.1029
  166SAPS  H20S18764   1.500   5.524   3.733  2.1519  0.8785 -2.0214
  166SAPS  H20T18765   1.659   5.447   3.758  0.4872  1.2861  0.7192
  166SAPS   C3318766   1.989   4.385   5.550 -0.1295 -0.6071 -0.1633
  166SAPS   H3X18767   2.052   4.308   5.501  1.1845  0.4368 -0.1444
  166SAPS   H3Y18768   2.062   4.446   5.607  0.8894 -1.1590 -0.8697
  166SAPS   C3418769   1.923   4.473   5.442  0.6517  0.0213  0.0278
  166SAPS   H4X18770   1.876   4.558   5.496  2.1707  0.5625  0.5204
  166SAPS   H4Y18771   1.844   4.407   5.399  0.1413  1.2522 -0.9522
  166SAPS   C3518772   2.015   4.512   5.327 -0.0568 -0.0080  0.4720
  166SAPS   H5X18773   2.055   4.410   5.309  0.1556  0.0300  0.7360
  166SAPS   H5Y18774   2.100   4.575   5.359  0.3035 -1.2539  1.9900
  166SAPS   C3618775   1.955   4.582   5.198  0.5210 -0.1223 -0.8494
  166SAPS   H6X18776   1.867   4.641   5.232  0.2778 -0.0497 -1.6068
  166SAPS   H6Y18777   1.912   4.502   5.134  1.4685 -0.5103 -1.0018
  166SAPS   C3718778   2.045   4.664   5.104 -0.3438 -0.5896 -0.4158
  166SAPS   H7X18779   2.134   4.611   5.064  1.2363  1.0136  0.8764
  166SAPS   H7Y18780   2.096   4.744   5.162 -1.1040  0.3474 -1.0194
  166SAPS   C3818781   1.967   4.728   4.997  0.0392  0.1559 -0.2466
  166SAPS   H8X18782   1.873   4.775   5.034 -0.0593 -0.2308  0.0107
  166SAPS   H8Y18783   1.934   4.657   4.918 -2.8245 -1.2000  2.0634
  166SAPS   C3918784   2.050   4.834   4.919  0.5439  1.0073  0.0866
  166SAPS   H9X18785   2.140   4.778   4.886 -1.0163 -1.6835  0.2843
  166SAPS   H9Y18786   2.076   4.914   4.992 -2.3492  1.1621  1.0079
  166SAPS  C31018787   1.991   4.895   4.792 -0.5367  1.5371  0.3582
  166SAPS  H10X18788   2.036   4.995   4.773 -0.1176  1.3623  0.4349
  166SAPS  H10Y18789   1.891   4.922   4.832 -0.0059 -0.8599  3.5716
  166SAPS  C31118790   1.971   4.803   4.669  0.3838 -0.0513  0.2566
  166SAPS  H11X18791   1.919   4.710   4.700  0.1208 -0.4493 -1.3631
  166SAPS  H11Y18792   2.069   4.769   4.629  0.2308  1.2311 -1.2533
  166SAPS  C31218793   1.895   4.871   4.553 -0.1325 -0.5367  0.2679
  166SAPS  H12X18794   1.818   4.941   4.594 -3.4927 -2.7891 -1.9530
  166SAPS  H12Y18795   1.844   4.798   4.486 -0.4801  0.4765 -0.5845
  166SAPS  C31318796   1.979   4.968   4.458 -0.4468  0.5635 -0.0788
  166SAPS  H13X18797   2.037   5.031   4.529  0.5377  0.8414 -1.1082
  166SAPS  H13Y18798   1.908   5.025   4.395 -0.9018 -1.2754 -1.2674
  166SAPS  C31418799   2.072   4.887   4.363 -0.7421 -0.1888 -0.4790
  166SAPS  H14X18800   2.015   4.796   4.334  1.1382 -1.9533  1.2281
  166SAPS  H14Y18801   2.154   4.850   4.428 -1.0910  1.1920  0.7890
  166SAPS  C31518802   2.116   4.958   4.227 -0.0469 -0.8592  0.2511
  166SAPS  H15X18803   2.026   5.005   4.181 -0.3732 -0.3018  1.4399
  166SAPS  H15Y18804   2.150   4.882   4.153 -1.5889 -0.1873 -1.2018
  166SAPS  C31618805   2.223   5.065   4.236 -0.2153 -0.3892 -0.6105
  166SAPS  H16X18806   2.322   5.030   4.271 -0.0668 -0.4884 -1.1323
  166SAPS  H16Y18807   2.179   5.128   4.317  0.6302 -2.8563  1.8406
  166SAPS  C31718808   2.239   5.161   4.117 -0.0957  0.0478  0.5667
  166SAPS  H17X18809   2.290   5.254   4.150  2.5812 -1.4843  0.8793
  166SAPS  H17Y18810   2.138   5.193   4.084  0.6668  1.9603  0.0211
  166SAPS  C31818811   2.314   5.099   3.999 -0.2378  0.5890 -0.0206
  166SAPS  H18X18812   2.420   5.073   4.023  0.6027  1.8292 -2.2155
  166SAPS  H18Y18813   2.323   5.169   3.912 -0.6812  0.0435 -0.5093
  166SAPS  H18Z18814   2.250   5.015   3.965  0.1763 -0.5559  1.9629
  167SAPS     N18815   4.317   6.617   6.072  0.1808  0.1059  0.4753
  167SAPS   HN118816   4.356   6.525   6.044 -1.6368 -0.7298  0.6459
  167SAPS   HN218817   4.278   6.669   5.991  1.1340 -0.0656 -0.1087
  167SAPS   HN318818   4.391   6.673   6.119  0.0179  0.2572  0.5499
  167SAPS   C1218819   4.210   6.591   6.176  0.2617  0.0474  0.1437
  167SAPS  H12A18820   4.257   6.519   6.242 -1.6009 -1.9307 -0.6198
  167SAPS   C1318821   4.141   6.717   6.247  0.3786 -0.1398  0.2746
  167SAPS  O13A18822   4.187   6.829   6.230  0.3466  0.1523  0.8756
  167SAPS  O13B18823   4.067   6.692   6.345 -0.2340  0.0533  0.0151
  167SAPS   C1118824   4.095   6.528   6.088  0.5455  0.0142 -0.1590
  167SAPS  H11A18825   4.043   6.604   6.025  0.1253 -0.8086 -0.8199
  167SAPS  H11B18826   4.012   6.494   6.153  0.6746  0.5524  0.2935
  167SAPS     P18827   4.081   6.293   5.977 -0.0984 -0.1752 -0.4301
  167SAPS   O1318828   4.182   6.198   5.921 -0.0628  0.0477 -0.0198
  167SAPS   O1418829   4.008   6.261   6.103  1.2678  0.1169  0.2120
  167SAPS   O1218830   4.145   6.432   6.006  0.0127  0.0878 -0.5361
  167SAPS   O1118831   3.964   6.327   5.873 -0.6270 -0.4938 -0.2355
  167SAPS    C118832   3.993   6.367   5.743  0.4231 -0.8041  0.3002
  167SAPS    HA18833   4.084   6.322   5.697  0.8123  0.5663 -0.3259
  167SAPS    HB18834   3.917   6.316   5.681  0.5767 -1.2911  0.5102
  167SAPS    C218835   4.003   6.518   5.731  0.4493 -0.6102  0.2209
  167SAPS    HS18836   4.094   6.550   5.785 -0.2850  1.8043  0.1114
  167SAPS   O2118837   3.879   6.572   5.793 -0.2181 -0.2210  0.3823
  167SAPS   C2118838   3.880   6.702   5.811  0.9397  0.3606  0.1420
  167SAPS   O2218839   3.982   6.768   5.809 -0.4441 -0.3812  0.0891
  167SAPS   C2218840   3.738   6.743   5.792  0.3401  0.5214  0.0244
  167SAPS   H2R18841   3.670   6.666   5.833 -0.4442  1.0231 -0.3176
  167SAPS   H2S18842   3.721   6.827   5.863  0.9905 -0.7936  1.7670
  167SAPS    C318843   4.027   6.558   5.582  1.0577  0.0521  0.2007
  167SAPS    HX18844   4.053   6.666   5.575  0.2559  0.2408  0.0860
  167SAPS    HY18845   3.922   6.541   5.550  1.7721  0.5440 -2.5799
  167SAPS   O3118846   4.131   6.474   5.526  0.2808  0.5527 -0.6450
  167SAPS   C3118847   4.103   6.420   5.406  0.0643 -0.0827 -0.3388
  167SAPS   O3218848   3.998   6.435   5.353 -0.0859  0.1717 -0.1646
  167SAPS   C3218849   4.210   6.327   5.356 -0.0620  0.2411  0.3681
  167SAPS   H2X18850   4.193   6.220   5.380  2.1736 -0.3948 -0.7405
  167SAPS   H2Y18851   4.307   6.362   5.398  0.1739  1.4076 -1.1064
  167SAPS   C2318852   3.700   6.800   5.663 -0.4188  0.4041  0.1857
  167SAPS   H3R18853   3.592   6.825   5.657 -0.2013  1.3858  0.3541
  167SAPS   H3S18854   3.720   6.730   5.579  1.2191  0.3621  0.6038
  167SAPS   C2418855   3.755   6.939   5.629  0.3219  0.2081  0.0481
  167SAPS   H4R18856   3.864   6.945   5.652  0.8801  1.3529 -2.6408
  167SAPS   H4S18857   3.696   7.012   5.689  0.2490 -1.1230  1.6313
  167SAPS   C2518858   3.725   6.968   5.484  0.0674 -0.0728 -0.0341
  167SAPS   H5R18859   3.624   6.950   5.445  0.4883 -2.7917  0.0851
  167SAPS   C2618860   3.805   7.033   5.401 -0.5086  0.4744  0.5817
  167SAPS   H6R18861   3.784   7.055   5.295  0.8185  0.9310  0.3999
  167SAPS   C2718862   3.945   7.071   5.439 -0.1200  0.0561  0.2721
  167SAPS   H7R18863   4.008   7.082   5.349 -0.0124  1.8777  0.5500
  167SAPS   H7S18864   3.993   6.987   5.492  0.2643 -0.2851 -0.6189
  167SAPS   C2818865   3.953   7.201   5.520 -0.1572 -0.1398  0.1298
  167SAPS   H8R18866   3.865   7.216   5.583  1.5322 -0.1540  2.5600
  167SAPS   C2918867   4.043   7.304   5.505  0.0890  0.1368  0.0616
  167SAPS   H9R18868   4.034   7.390   5.573  0.3015  0.8321 -0.7728
  167SAPS  C21018869   4.170   7.310   5.419 -0.1824  0.1653  0.1684
  167SAPS  H10R18870   4.190   7.212   5.371  0.4657 -0.3683  1.5158
  167SAPS  H10S18871   4.261   7.315   5.482 -1.8381 -2.3957  2.8720
  167SAPS  C21118872   4.159   7.413   5.316 -0.1035 -0.4141 -0.3050
  167SAPS  H11R18873   4.173   7.516   5.352  0.3943 -0.7769  0.5388
  167SAPS  C21218874   4.132   7.402   5.188  0.0054 -0.6036  0.3992
  167SAPS  H12R18875   4.147   7.486   5.118 -1.6721  0.5334  1.3740
  167SAPS  C21318876   4.109   7.269   5.116  0.2398 -0.0423  0.0273
  167SAPS  H13R18877   4.152   7.185   5.173 -1.4999  1.1395  3.1888
  167SAPS  H13S18878   4.166   7.283   5.021 -0.8509  0.2083 -0.6140
  167SAPS  C21418879   3.960   7.246   5.101 -0.0839 -0.6394 -0.6543
  167SAPS  H14R18880   3.910   7.200   5.187  1.8050 -0.8144  0.3703
  167SAPS  C21518881   3.883   7.263   4.989 -0.2660  0.3834 -0.8347
  167SAPS  H15R18882   3.777   7.236   4.991  0.0956 -0.9452  1.5016
  167SAPS  C21618883   3.932   7.316   4.855  0.0370  0.3499  0.2880
  167SAPS  H16R18884   4.042   7.303   4.842  0.1678  0.5237  1.1406
  167SAPS  H16S18885   3.913   7.426   4.856  2.0403  0.7144  0.4789
  167SAPS  C21718886   3.858   7.236   4.743  0.8685  0.5160  0.3368
  167SAPS  H17R18887   3.749   7.250   4.753  0.8594  1.6230 -1.1073
  167SAPS  H17S18888   3.879   7.127   4.749 -2.3831 -0.0698  1.8781
  167SAPS  C21818889   3.891   7.289   4.598 -1.1524 -0.5020  0.2331
  167SAPS  H18R18890   3.837   7.225   4.526 -2.7543  0.5578  0.4554
  167SAPS  H18S18891   3.999   7.267   4.586 -1.0421 -0.4838  1.1543
  167SAPS  C21918892   3.860   7.433   4.572  0.0985 -0.4992 -0.3819
  167SAPS  H19R18893   3.928   7.502   4.626  0.1880  0.8276 -2.1415
  167SAPS  H19S18894   3.759   7.462   4.608 -1.2644 -0.9073 -3.6318
  167SAPS  C22018895   3.874   7.463   4.420  0.1344 -0.1492  0.1686
  167SAPS  H20R18896   3.977   7.450   4.382  0.7858 -2.3667  2.5073
  167SAPS  H20S18897   3.842   7.565   4.389 -1.7907 -0.9786 -0.6589
  167SAPS  H20T18898   3.811   7.401   4.353 -1.7421  0.3351  1.4400
  167SAPS   C3318899   4.231   6.329   5.200 -0.4957  0.3951  0.1236
  167SAPS   H3X18900   4.135   6.340   5.147 -1.5105  0.3413  1.9179
  167SAPS   H3Y18901   4.271   6.228   5.174  1.9360  1.2249  0.4556
  167SAPS   C3418902   4.328   6.436   5.149  0.3722 -0.3629 -0.2096
  167SAPS   H4X18903   4.432   6.406   5.174  1.0732  1.1953 -1.1472
  167SAPS   H4Y18904   4.311   6.530   5.206 -1.5648 -0.2895 -0.8720
  167SAPS   C3518905   4.307   6.461   4.996  0.3743  0.1758  0.0657
  167SAPS   H5X18906   4.357   6.556   4.965  0.1719 -0.1024 -1.1391
  167SAPS   H5Y18907   4.201   6.474   4.965  0.8660 -2.0597 -2.6361
  167SAPS   C3618908   4.357   6.345   4.905 -0.8624 -0.6819 -0.1911
  167SAPS   H6X18909   4.318   6.360   4.802 -1.1501 -1.9389 -0.2723
  167SAPS   H6Y18910   4.313   6.254   4.951 -2.8911  0.4576  0.1807
  167SAPS   C3718911   4.511   6.345   4.906 -0.8681  0.4920  0.3346
  167SAPS   H7X18912   4.550   6.338   5.010 -0.6240  1.2453  0.3034
  167SAPS   H7Y18913   4.548   6.446   4.877  1.6461 -0.5527 -0.2322
  167SAPS   C3818914   4.588   6.236   4.824  0.2851 -0.7228 -0.9414
  167SAPS   H8X18915   4.549   6.137   4.857 -2.8418 -0.0001 -2.2414
  167SAPS   H8Y18916   4.696   6.246   4.844  0.1314 -1.2740  0.1556
  167SAPS   C3918917   4.561   6.256   4.679  0.2589 -0.0191 -0.2043
  167SAPS   H9X18918   4.573   6.364   4.653 -0.5035  0.4641  1.3830
  167SAPS   H9Y18919   4.454   6.235   4.654 -0.0387 -0.3115  1.2797
  167SAPS  C31018920   4.654   6.171   4.593  0.1804  0.5721 -0.3851
  167SAPS  H10X18921   4.658   6.067   4.634  0.5461 -0.2335 -2.3938
  167SAPS  H10Y18922   4.760   6.204   4.587 -0.1934  1.9394  0.5640
  167SAPS  C31118923   4.600   6.171   4.445 -0.1108  0.2962 -0.0307
  167SAPS  H11X18924   4.681   6.164   4.370  1.6540  0.6067  1.8087
  167SAPS  H11Y18925   4.560   6.273   4.424 -0.5608  0.2299  0.5030
  167SAPS  C31218926   4.497   6.064   4.421 -0.0598 -0.1061 -0.1892
  167SAPS  H12X18927   4.410   6.083   4.486 -1.1498  2.1521 -2.2615
  167SAPS  H12Y18928   4.543   5.965   4.444  0.9599 -0.5349 -3.8059
  167SAPS  C31318929   4.438   6.066   4.280  0.1000 -0.1368 -0.1834
  167SAPS  H13X18930   4.530   6.069   4.217 -1.3530  0.9553 -2.3006
  167SAPS  H13Y18931   4.384   6.163   4.274  0.4539  0.2143  1.9058
  167SAPS  C31418932   4.355   5.945   4.243  0.2817  0.1382  0.0598
  167SAPS  H14X18933   4.276   5.928   4.319 -2.5446  0.4847 -2.6861
  167SAPS  H14Y18934   4.416   5.852   4.249  0.9304  0.6119  0.8040
  167SAPS  C31518935   4.303   5.954   4.099  0.9714 -0.4020  0.2364
  167SAPS  H15X18936   4.259   5.855   4.077 -1.2256  0.8581 -1.1970
  167SAPS  H15Y18937   4.383   5.972   4.025  1.1667 -4.4056 -0.6264
  167SAPS  C31618938   4.198   6.067   4.079  0.6731 -0.4885  0.6955
  167SAPS  H16X18939   4.236   6.168   4.104  3.5060 -1.7683  1.7340
  167SAPS  H16Y18940   4.115   6.045   4.150 -0.0423  0.1090  0.0519
  167SAPS  C31718941   4.145   6.084   3.936  0.2561 -0.6644  0.0844
  167SAPS  H17X18942   4.060   6.155   3.934  2.2644  1.8615  1.7166
  167SAPS  H17Y18943   4.104   5.986   3.901 -0.9808  0.3496 -1.3789
  167SAPS  C31818944   4.251   6.141   3.844 -0.1309  0.2219 -0.4281
  167SAPS  H18X18945   4.301   6.226   3.896 -0.8910 -1.3078  2.9931
  167SAPS  H18Y18946   4.211   6.165   3.744  0.0275  1.4413 -0.2074
  167SAPS  H18Z18947   4.321   6.055   3.832 -1.0128 -0.9099  2.0929
  168SAPS     N18948   2.599   6.742   5.935  0.0073 -0.1294  0.0398
  168SAPS   HN118949   2.694   6.773   5.908 -0.3188  0.3301 -0.6076
  168SAPS   HN218950   2.576   6.649   5.893 -0.9241 -0.5523  1.4515
  168SAPS   HN318951   2.532   6.818   5.910  0.0937  0.6863  2.2105
  168SAPS   C1218952   2.604   6.737   6.082 -0.3559 -0.5794 -0.4006
  168SAPS  H12A18953   2.702   6.696   6.103  0.1521  0.5005 -0.6289
  168SAPS   C1318954   2.601   6.882   6.145  0.8475 -0.0763  0.0963
  168SAPS  O13A18955   2.581   6.981   6.069  0.0867  0.0320 -0.2589
  168SAPS  O13B18956   2.616   6.897   6.270 -0.3179 -0.1850  0.5555
  168SAPS   C1118957   2.499   6.640   6.138  0.0846  0.1447  0.2807
  168SAPS  H11A18958   2.395   6.663   6.106 -0.1439 -1.5468 -0.1932
  168SAPS  H11B18959   2.495   6.652   6.249 -0.2106 -0.5126  0.3451
  168SAPS     P18960   2.500   6.417   5.993  0.3835  0.1764  0.5091
  168SAPS   O1318961   2.610   6.319   5.973  0.7919 -0.2750  0.2627
  168SAPS   O1418962   2.365   6.361   6.016 -0.0215 -0.0471 -0.5370
  168SAPS   O1218963   2.542   6.508   6.110 -0.2711  0.4772  0.4250
  168SAPS   O1118964   2.499   6.510   5.865 -0.3160 -0.6094  0.4170
  168SAPS    C118965   2.459   6.459   5.744  0.1626 -0.1559  0.3136
  168SAPS    HA18966   2.547   6.415   5.692  1.0186  0.7181  0.9875
  168SAPS    HB18967   2.389   6.373   5.752 -0.4951  0.2692 -0.8112
  168SAPS    C218968   2.402   6.583   5.661 -0.0405  0.2365 -0.0248
  168SAPS    HS18969   2.367   6.548   5.562 -0.9899  1.2605 -0.0655
  168SAPS   O2118970   2.499   6.694   5.638  0.1898 -0.0144  0.0554
  168SAPS   C2118971   2.598   6.660   5.564  0.4667 -0.0271  0.0909
  168SAPS   O2218972   2.614   6.557   5.503 -0.4052  0.4677 -0.5727
  168SAPS   C2218973   2.702   6.777   5.571  1.2986 -0.0522  0.3948
  168SAPS   H2R18974   2.643   6.866   5.603  0.6169 -0.4129  0.1581
  168SAPS   H2S18975   2.776   6.744   5.647  2.6938  0.4984 -0.7093
  168SAPS    C318976   2.273   6.639   5.734  0.1483 -0.3079  0.8838
  168SAPS    HX18977   2.293   6.630   5.843 -0.5226 -2.0863  0.8867
  168SAPS    HY18978   2.190   6.570   5.708 -1.1165  2.4478 -2.7939
  168SAPS   O3118979   2.241   6.768   5.686 -0.3708 -0.3323 -0.0838
  168SAPS   C3118980   2.298   6.866   5.755  0.3684 -0.6698  0.5621
  168SAPS   O3218981   2.359   6.856   5.858 -0.4879 -0.7082 -0.4043
  168SAPS   C3218982   2.264   6.993   5.683  0.3608  0.2924 -0.4081
  168SAPS   H2X18983   2.269   7.067   5.767  2.8896 -0.0515 -0.2222
  168SAPS   H2Y18984   2.162   7.003   5.638  0.3475  1.4808 -0.1460
  168SAPS   C2318985   2.779   6.805   5.448 -0.8646  0.1028  0.3419
  168SAPS   H3R18986   2.721   6.839   5.359 -1.1075 -0.5218  0.2544
  168SAPS   H3S18987   2.848   6.723   5.419  0.4982  1.0990  0.7151
  168SAPS   C2418988   2.870   6.928   5.472  0.0171  0.0726  0.2802
  168SAPS   H4R18989   2.911   6.912   5.574 -1.7574  0.9820  1.1449
  168SAPS   H4S18990   2.794   7.007   5.486  0.2721  0.2494  0.6732
  168SAPS   C2518991   2.984   6.940   5.374  0.9140  0.2297 -0.1749
  168SAPS   H5R18992   3.083   6.921   5.418  1.4650 -0.1996 -1.5688
  168SAPS   C2618993   2.977   7.006   5.260 -0.2858  0.0075  0.6612
  168SAPS   H6R18994   3.060   6.994   5.188 -1.3081 -0.0878 -0.5213
  168SAPS   C2718995   2.856   7.073   5.204  0.1070  0.1760  0.5283
  168SAPS   H7R18996   2.761   7.043   5.252 -0.7506  1.4639 -0.3014
  168SAPS   H7S18997   2.838   7.040   5.099  0.7718  0.5532  0.2922
  168SAPS   C2818998   2.864   7.225   5.227  0.2994 -0.1940  0.4388
  168SAPS   H8R18999   2.845   7.257   5.330 -0.3320  1.0075 -0.0384
  168SAPS   C2919000   2.866   7.321   5.125  0.3668 -0.7348 -0.1091
  168SAPS   H9R19001   2.856   7.426   5.158 -1.3421 -0.5763 -1.0087
  168SAPS  C21019002   2.860   7.304   4.972 -0.4151 -1.0154 -0.9728
  168SAPS  H10R19003   2.891   7.405   4.936 -2.9127 -0.1903 -0.9816
  168SAPS  H10S19004   2.753   7.281   4.952 -0.4571  0.4789 -2.6159
  168SAPS  C21119005   2.957   7.202   4.915  0.2558 -0.2376  0.0662
  168SAPS  H11R19006   3.063   7.210   4.942 -0.0180 -0.3659  1.2167
  168SAPS  C21219007   2.925   7.099   4.831  0.2987 -0.2358  0.1413
  168SAPS  H12R19008   3.012   7.039   4.803  0.4847 -0.0789  0.3717
  168SAPS  C21319009   2.793   7.061   4.772  0.0297 -0.2867 -0.0657
  168SAPS  H13R19010   2.790   7.095   4.666  0.1902 -1.4380 -0.4522
  168SAPS  H13S19011   2.720   7.104   4.843 -0.1141 -1.8526  0.7700
  168SAPS  C21419012   2.768   6.909   4.772 -0.4101 -0.1723  0.0287
  168SAPS  H14R19013   2.746   6.857   4.866 -2.9375  0.5496 -0.1086
  168SAPS  C21519014   2.771   6.822   4.664  0.2251  0.8615  0.0206
  168SAPS  H15R19015   2.746   6.716   4.677  0.6452  0.7049 -0.4359
  168SAPS  C21619016   2.804   6.862   4.526  0.2109  0.0317  0.1469
  168SAPS  H16R19017   2.836   6.768   4.477 -0.8403  0.0194 -0.5373
  168SAPS  H16S19018   2.886   6.937   4.525  1.6858 -1.4160  3.9128
  168SAPS  C21719019   2.691   6.909   4.434 -0.1681  0.8086  0.1915
  168SAPS  H17R19020   2.737   6.932   4.335 -1.2684 -0.8652 -0.7300
  168SAPS  H17S19021   2.656   7.005   4.477 -0.7833  0.5641  0.2503
  168SAPS  C21819022   2.576   6.816   4.419  0.4593 -0.4420  0.3779
  168SAPS  H18R19023   2.482   6.854   4.373  0.8344  0.8507  0.6584
  168SAPS  H18S19024   2.553   6.783   4.523  2.2581  2.1431  1.6558
  168SAPS  C21919025   2.606   6.695   4.332  0.3088 -0.0735 -0.1064
  168SAPS  H19R19026   2.514   6.633   4.332 -0.8003  1.5177 -0.2233
  168SAPS  H19S19027   2.686   6.638   4.383 -0.2696 -1.8134 -1.1042
  168SAPS  C22019028   2.647   6.734   4.195 -0.7253 -0.1779  0.4959
  168SAPS  H20R19029   2.735   6.800   4.207 -0.5029 -0.4558  0.4207
  168SAPS  H20S19030   2.573   6.793   4.138 -0.3677  0.2697  0.5024
  168SAPS  H20T19031   2.685   6.650   4.133  0.9881 -1.9888  3.8114
  168SAPS   C3319032   2.375   7.037   5.583 -0.5856  0.0604 -0.0436
  168SAPS   H3X19033   2.370   6.977   5.490  2.5306 -0.0323 -0.1951
  168SAPS   H3Y19034   2.481   7.023   5.612 -0.2063  1.6330 -0.6029
  168SAPS   C3419035   2.343   7.181   5.525 -0.1720 -0.1689  0.4851
  168SAPS   H4X19036   2.417   7.249   5.571 -0.0590 -0.0184  0.0842
  168SAPS   H4Y19037   2.241   7.202   5.563 -0.7586 -1.8653 -0.0766
  168SAPS   C3519038   2.348   7.195   5.367 -0.1188 -0.4659 -0.4214
  168SAPS   H5X19039   2.320   7.300   5.345 -1.0626 -0.9727 -1.7185
  168SAPS   H5Y19040   2.270   7.128   5.325 -1.1148  0.3418  0.1311
  168SAPS   C3619041   2.486   7.169   5.301  0.5700  0.5163  0.0525
  168SAPS   H6X19042   2.503   7.060   5.308 -0.1028  0.5772  3.7827
  168SAPS   H6Y19043   2.567   7.218   5.361  0.7219  0.4463 -0.0951
  168SAPS   C3719044   2.498   7.226   5.157  0.3632  0.3582  0.3655
  168SAPS   H7X19045   2.600   7.232   5.113 -0.2659 -2.5118 -1.6497
  168SAPS   H7Y19046   2.458   7.330   5.162 -1.4369 -0.1881 -2.0302
  168SAPS   C3819047   2.406   7.157   5.056  0.5280  0.7817  0.1001
  168SAPS   H8X19048   2.301   7.158   5.094  0.1718 -1.2209 -0.7630
  168SAPS   H8Y19049   2.441   7.052   5.041 -1.9269 -0.2909  1.5001
  168SAPS   C3919050   2.400   7.229   4.922 -0.2124 -0.3267  0.8769
  168SAPS   H9X19051   2.504   7.257   4.893 -0.4750 -0.4975 -0.2204
  168SAPS   H9Y19052   2.344   7.324   4.937 -0.8313 -0.8154  1.6506
  168SAPS  C31019053   2.338   7.144   4.811 -0.6326  0.6693  0.4504
  168SAPS  H10X19054   2.232   7.126   4.840  0.1417 -1.1109  2.3084
  168SAPS  H10Y19055   2.381   7.042   4.811  1.8853  1.6742 -2.5492
  168SAPS  C31119056   2.339   7.202   4.678 -0.4817  0.4135  0.4934
  168SAPS  H11X19057   2.434   7.254   4.655  0.9404 -1.6765  1.5276
  168SAPS  H11Y19058   2.263   7.283   4.667 -0.9994 -0.3054 -1.4653
  168SAPS  C31219059   2.315   7.088   4.578  0.1266 -0.3958 -0.1150
  168SAPS  H12X19060   2.224   7.029   4.603 -0.7240  0.2111 -1.7006
  168SAPS  H12Y19061   2.400   7.017   4.577  0.8053  0.3569  1.5458
  168SAPS  C31319062   2.311   7.129   4.429  0.1216 -0.2443  0.2136
  168SAPS  H13X19063   2.208   7.144   4.392 -0.3578 -0.5779  1.3902
  168SAPS  H13Y19064   2.332   7.039   4.366 -3.0011 -0.9147  0.0423
  168SAPS  C31419065   2.422   7.233   4.406 -0.0039 -0.2158 -0.0610
  168SAPS  H14X19066   2.518   7.200   4.451 -1.3739 -2.2512  1.4365
  168SAPS  H14Y19067   2.399   7.328   4.460  3.4671  0.4837  0.3149
  168SAPS  C31519068   2.443   7.254   4.256  0.3598 -0.9583  0.1546
  168SAPS  H15X19069   2.488   7.354   4.241  0.3794 -1.1800 -1.2846
  168SAPS  H15Y19070   2.348   7.254   4.198 -0.0304 -0.7490  0.7871
  168SAPS  C31619071   2.561   7.170   4.202  0.2987  0.6586 -0.5090
  168SAPS  H16X19072   2.542   7.064   4.229 -1.1338  0.8970 -0.5549
  168SAPS  H16Y19073   2.657   7.194   4.252 -0.1974  0.0874  0.7511
  168SAPS  C31719074   2.574   7.186   4.047 -0.2145  0.3661 -0.4789
  168SAPS  H17X19075   2.621   7.284   4.022 -1.1969  0.8617 -0.3865
  168SAPS  H17Y19076   2.473   7.192   4.001 -0.7540  1.3256  0.8027
  168SAPS  C31819077   2.665   7.073   3.993 -0.2981  0.5080 -0.6356
  168SAPS  H18X19078   2.654   6.976   4.046 -2.5527 -0.0298 -2.0395
  168SAPS  H18Y19079   2.771   7.106   3.998  0.1923 -1.1870  0.4669
  168SAPS  H18Z19080   2.658   7.058   3.883  3.4704  2.7677 -1.3061
  169SAPS     N19081   6.279   1.875   5.963 -0.5679  0.3643  0.0831
  169SAPS   HN119082   6.230   1.784   5.966 -0.4402  0.2998  0.2702
  169SAPS   HN219083   6.207   1.950   5.957  0.1247  1.2035  1.8779
  169SAPS   HN319084   6.330   1.869   5.873  0.9014 -0.1150  0.9196
  169SAPS   C1219085   6.380   1.897   6.074 -0.2178 -0.2972 -0.0949
  169SAPS  H12A19086   6.426   1.993   6.062 -0.8790  0.6069  3.7021
  169SAPS   C1319087   6.335   1.890   6.218  0.4244  0.5709 -0.2481
  169SAPS  O13A19088   6.220   1.854   6.248  0.2255 -0.0494 -0.9457
  169SAPS  O13B19089   6.420   1.912   6.310 -0.2894 -0.0765 -0.4432
  169SAPS   C1119090   6.505   1.801   6.055  0.2379  0.5260  0.1567
  169SAPS  H11A19091   6.478   1.699   6.090 -0.3765  0.7372  0.3014
  169SAPS  H11B19092   6.589   1.835   6.119 -0.2885 -0.3018  1.3053
  169SAPS     P19093   6.667   1.721   5.875 -0.1446 -0.4645  0.4722
  169SAPS   O1319094   6.792   1.805   5.882  0.3801  0.1262 -0.0529
  169SAPS   O1419095   6.669   1.603   5.964 -0.3411  0.0154  0.4443
  169SAPS   O1219096   6.536   1.803   5.912  0.2186  0.3252 -0.4356
  169SAPS   O1119097   6.638   1.687   5.720  0.4973  0.4271 -0.2545
  169SAPS    C119098   6.666   1.772   5.614 -0.0612 -0.2905  0.4496
  169SAPS    HA19099   6.757   1.833   5.631  0.3823 -0.3779 -1.5051
  169SAPS    HB19100   6.677   1.708   5.524 -0.7253 -1.0088  0.8673
  169SAPS    C219101   6.538   1.856   5.587  0.4063 -0.2445 -0.2968
  169SAPS    HS19102   6.519   1.910   5.682 -0.6950 -0.6795 -0.2711
  169SAPS   O2119103   6.433   1.766   5.543  0.1828  0.0295  0.2834
  169SAPS   C2119104   6.314   1.794   5.596  0.4262 -0.3974 -0.2003
  169SAPS   O2219105   6.297   1.862   5.695  0.0663  0.2833 -0.4493
  169SAPS   C2219106   6.214   1.719   5.514 -0.4813  0.2055  0.4210
  169SAPS   H2R19107   6.262   1.631   5.466 -0.2833  0.8521 -0.5740
  169SAPS   H2S19108   6.137   1.688   5.589  1.4923  0.4678  2.6160
  169SAPS    C319109   6.571   1.958   5.479 -0.3182 -0.3055 -0.5585
  169SAPS    HX19110   6.609   1.909   5.387  1.8200  0.3043 -0.0324
  169SAPS    HY19111   6.667   2.004   5.511  1.6668 -3.5039 -1.6615
  169SAPS   O3119112   6.457   2.047   5.462 -0.5462  0.6541  0.0065
  169SAPS   C3119113   6.458   2.148   5.539  0.2879  0.4515  0.2177
  169SAPS   O3219114   6.544   2.183   5.617  0.0851  0.1048  0.1702
  169SAPS   C3219115   6.324   2.222   5.512  0.1694  0.3901 -0.1210
  169SAPS   H2X19116   6.339   2.323   5.555 -0.0398 -0.9295  3.2121
  169SAPS   H2Y19117   6.235   2.181   5.565  0.4393  0.1194  0.1239
  169SAPS   C2319118   6.136   1.815   5.416 -0.6902 -0.7609 -0.2362
  169SAPS   H3R19119   6.135   1.919   5.454 -3.3333  0.0398 -2.3646
  169SAPS   H3S19120   6.033   1.775   5.403 -1.9281  2.9585 -2.4817
  169SAPS   C2419121   6.205   1.827   5.277  0.1444  0.5347 -1.0502
  169SAPS   H4R19122   6.307   1.871   5.281 -0.0743  0.9673 -0.1838
  169SAPS   H4S19123   6.148   1.896   5.212 -0.5088  1.2168  0.2434
  169SAPS   C2519124   6.198   1.690   5.204  0.5189 -0.4684  0.2209
  169SAPS   H5R19125   6.097   1.654   5.177  0.6949 -0.4515 -0.4545
  169SAPS   C2619126   6.302   1.609   5.170  0.1687  0.3071 -0.2667
  169SAPS   H6R19127   6.286   1.521   5.106  1.1775  0.1152 -0.2699
  169SAPS   C2719128   6.448   1.639   5.211  0.1394  0.0438  0.0908
  169SAPS   H7R19129   6.447   1.698   5.305  0.7199 -2.3659  1.6517
  169SAPS   H7S19130   6.485   1.705   5.130 -0.0244 -0.2041 -0.1873
  169SAPS   C2819131   6.538   1.518   5.225 -0.2669 -0.0680 -0.3559
  169SAPS   H8R19132   6.549   1.485   5.330 -0.5697  1.1312  0.0630
  169SAPS   C2919133   6.577   1.442   5.120 -0.2624  0.3575  0.0296
  169SAPS   H9R19134   6.640   1.354   5.139  2.2657  1.5780 -2.3015
  169SAPS  C21019135   6.564   1.477   4.976  0.6110  0.8519 -0.2556
  169SAPS  H10R19136   6.662   1.499   4.929  1.0976 -1.1232 -0.1955
  169SAPS  H10S19137   6.505   1.569   4.957 -0.8151 -0.0293 -0.1965
  169SAPS  C21119138   6.492   1.365   4.902 -0.5385 -0.2474 -0.0903
  169SAPS  H11R19139   6.384   1.356   4.923 -1.2064  3.6516 -1.3297
  169SAPS  C21219140   6.549   1.287   4.808 -0.0248  0.5039  0.4125
  169SAPS  H12R19141   6.482   1.217   4.757  1.1568  0.6590 -1.3688
  169SAPS  C21319142   6.693   1.290   4.761 -0.8378 -0.3391 -0.0026
  169SAPS  H13R19143   6.763   1.353   4.819 -1.1362 -0.1727  0.1741
  169SAPS  H13S19144   6.687   1.333   4.659 -3.0400  1.4310  0.8338
  169SAPS  C21419145   6.746   1.149   4.770  0.7850 -0.1834 -0.2786
  169SAPS  H14R19146   6.761   1.106   4.870 -0.1478  0.7271  0.2657
  169SAPS  C21519147   6.773   1.072   4.666  0.2545 -0.8916 -0.1816
  169SAPS  H15R19148   6.804   0.970   4.693 -0.3600 -0.9339  0.3661
  169SAPS  C21619149   6.757   1.101   4.513 -0.0616  0.2117  0.7575
  169SAPS  H16R19150   6.727   1.204   4.488  1.5526  0.8465  1.3516
  169SAPS  H16S19151   6.675   1.036   4.474 -0.6036  0.3675  1.6052
  169SAPS  C21719152   6.886   1.063   4.435 -0.6216 -0.3675 -0.4010
  169SAPS  H17R19153   6.909   0.956   4.453 -0.3048 -0.2977 -0.3745
  169SAPS  H17S19154   6.973   1.120   4.473  0.1289  0.0164 -2.5930
  169SAPS  C21819155   6.869   1.073   4.278 -0.2152 -0.0131 -0.2705
  169SAPS  H18R19156   6.854   1.179   4.250 -2.7226 -0.4397 -0.5905
  169SAPS  H18S19157   6.770   1.027   4.256 -0.3321 -0.4144  1.0065
  169SAPS  C21919158   6.978   1.006   4.199  0.5781 -0.0727 -0.8339
  169SAPS  H19R19159   7.075   1.032   4.246 -1.4026  2.7649  1.9223
  169SAPS  H19S19160   6.962   1.048   4.098  1.2272 -0.8414 -1.2560
  169SAPS  C22019161   6.965   0.860   4.199 -0.1434 -0.1556  0.5859
  169SAPS  H20R19162   7.028   0.821   4.116  0.4162 -0.6292  1.2289
  169SAPS  H20S19163   6.862   0.819   4.187 -0.2896  0.9669 -2.5447
  169SAPS  H20T19164   7.011   0.828   4.295 -0.6774 -1.1363  0.5280
  169SAPS   C3319165   6.288   2.223   5.356  0.4613  0.6177 -0.3912
  169SAPS   H3X19166   6.180   2.248   5.343  0.3447  0.5299  0.3865
  169SAPS   H3Y19167   6.291   2.115   5.331 -0.5151  0.6520 -0.6873
  169SAPS   C3419168   6.367   2.312   5.271 -0.8728  0.1215 -0.5939
  169SAPS   H4X19169   6.477   2.301   5.284 -0.7921 -0.5768 -1.7797
  169SAPS   H4Y19170   6.348   2.418   5.297 -1.6297 -0.4111  1.1350
  169SAPS   C3519171   6.352   2.283   5.117 -0.4697  0.1868  0.0202
  169SAPS   H5X19172   6.421   2.352   5.064 -0.0215 -1.1559 -1.1744
  169SAPS   H5Y19173   6.249   2.308   5.085 -1.3968 -3.5197 -0.1820
  169SAPS   C3619174   6.391   2.138   5.076 -0.1885 -0.7281 -0.0884
  169SAPS   H6X19175   6.344   2.063   5.143 -1.8624  0.7930  0.4633
  169SAPS   H6Y19176   6.500   2.128   5.089 -0.2747  0.4426  1.6523
  169SAPS   C3719177   6.356   2.100   4.928  0.3807 -0.7156 -0.5265
  169SAPS   H7X19178   6.428   2.149   4.859  1.4679 -1.1081  0.3100
  169SAPS   H7Y19179   6.248   2.122   4.914 -0.0959 -3.6881 -1.8776
  169SAPS   C3819180   6.361   1.946   4.897  0.1605  0.3786 -0.5018
  169SAPS   H8X19181   6.324   1.886   4.983 -0.9052  2.1626  0.3182
  169SAPS   H8Y19182   6.470   1.923   4.891  0.0770  0.0235 -0.6364
  169SAPS   C3919183   6.294   1.932   4.770  0.2349 -0.0159  1.1338
  169SAPS   H9X19184   6.325   2.000   4.689 -0.1538  1.5496  2.2760
  169SAPS   H9Y19185   6.185   1.949   4.787 -0.6400 -2.4678 -1.6783
  169SAPS  C31019186   6.301   1.791   4.702  0.0814  0.0758 -0.6002
  169SAPS  H10X19187   6.275   1.728   4.790  2.4742 -0.4652 -0.2487
  169SAPS  H10Y19188   6.406   1.768   4.674  0.7946  0.6702  1.4706
  169SAPS  C31119189   6.225   1.774   4.576 -0.1964 -1.0432  0.3152
  169SAPS  H11X19190   6.266   1.837   4.494 -0.8899  0.2078  0.9097
  169SAPS  H11Y19191   6.124   1.817   4.590 -0.2087  0.4530 -3.6756
  169SAPS  C31219192   6.220   1.623   4.530  0.7188  0.3487 -0.5652
  169SAPS  H12X19193   6.163   1.555   4.597 -0.5251  1.3124 -0.6405
  169SAPS  H12Y19194   6.323   1.581   4.533  0.1379 -1.0541  0.2029
  169SAPS  C31319195   6.174   1.601   4.387  0.0820 -0.2435  0.0929
  169SAPS  H13X19196   6.238   1.651   4.311  2.2453 -0.2750  1.8563
  169SAPS  H13Y19197   6.076   1.653   4.389  1.5748  2.6770  2.7736
  169SAPS  C31419198   6.156   1.457   4.338 -0.1112  0.3966 -0.3369
  169SAPS  H14X19199   6.103   1.450   4.241 -1.8031 -1.5889  0.7085
  169SAPS  H14Y19200   6.094   1.420   4.422  1.1099  1.4840  1.1019
  169SAPS  C31519201   6.285   1.379   4.335 -0.0318  0.2971 -0.2901
  169SAPS  H15X19202   6.267   1.274   4.305 -1.4942  0.0245  1.4270
  169SAPS  H15Y19203   6.324   1.381   4.439  0.9444  0.6224 -0.6613
  169SAPS  C31619204   6.397   1.438   4.243  0.3925 -0.0076 -0.0281
  169SAPS  H16X19205   6.402   1.548   4.243  1.4522 -0.0522  0.8315
  169SAPS  H16Y19206   6.366   1.419   4.138  1.9970  1.4971 -0.7781
  169SAPS  C31719207   6.535   1.375   4.261 -0.0152 -0.2033 -0.0478
  169SAPS  H17X19208   6.529   1.264   4.255 -0.4308 -0.2526  1.1250
  169SAPS  H17Y19209   6.575   1.409   4.360 -1.7019 -0.3868  0.7105
  169SAPS  C31819210   6.637   1.420   4.153 -0.3658  0.2758  0.5350
  169SAPS  H18X19211   6.742   1.399   4.180  0.4082  0.4231 -2.2022
  169SAPS  H18Y19212   6.637   1.530   4.138  1.4245  0.4356  1.6449
  169SAPS  H18Z19213   6.618   1.371   4.055 -1.5264 -0.2886  1.0303
  170SAPS     N19214   6.377   5.841   5.991  0.2620  0.0265 -0.2101
  170SAPS   HN119215   6.386   5.739   6.006  0.0216 -0.3561 -2.4071
  170SAPS   HN219216   6.368   5.846   5.887  0.5676 -0.8633 -0.2855
  170SAPS   HN319217   6.462   5.896   6.015  0.8969 -0.4950 -1.2200
  170SAPS   C1219218   6.254   5.893   6.057 -0.6412  0.4099  0.1159
  170SAPS  H12A19219   6.173   5.824   6.041  1.6408 -2.2607 -0.3211
  170SAPS   C1319220   6.276   5.910   6.210  0.6911 -0.2784 -0.3151
  170SAPS  O13A19221   6.392   5.909   6.253 -0.5830  0.1527  0.3072
  170SAPS  O13B19222   6.188   5.960   6.283  0.6100  0.1943  0.4701
  170SAPS   C1119223   6.208   6.022   6.002  0.3723  0.2930 -0.8396
  170SAPS  H11A19224   6.285   6.100   6.022  0.3415  0.2794 -0.6667
  170SAPS  H11B19225   6.122   6.055   6.063  1.2149 -1.2697  1.2738
  170SAPS     P19226   6.144   6.161   5.800  0.3825  0.1100  0.3873
  170SAPS   O1319227   6.118   6.155   5.652  0.1448  0.0133 -0.0315
  170SAPS   O1419228   6.033   6.221   5.875  0.0025 -0.0292 -0.5622
  170SAPS   O1219229   6.171   6.021   5.859  0.3030  0.7008 -0.7764
  170SAPS   O1119230   6.273   6.241   5.829 -0.2473 -0.0782 -0.1832
  170SAPS    C119231   6.407   6.197   5.792 -0.2336  0.2583 -0.0796
  170SAPS    HA19232   6.479   6.201   5.877  2.0381 -0.8037 -1.8939
  170SAPS    HB19233   6.401   6.096   5.747  0.5799  0.4475 -0.6336
  170SAPS    C219234   6.460   6.284   5.673 -0.5218 -0.1237 -0.4784
  170SAPS    HS19235   6.462   6.391   5.703 -0.7687 -0.2310 -0.0675
  170SAPS   O2119236   6.378   6.269   5.549  0.0250 -0.3161  0.6693
  170SAPS   C2119237   6.286   6.359   5.521  0.1095 -0.2827  0.1238
  170SAPS   O2219238   6.256   6.458   5.591  0.0230 -0.2524 -0.0328
  170SAPS   C2219239   6.224   6.336   5.383 -0.3146 -0.0124 -0.2415
  170SAPS   H2R19240   6.274   6.246   5.341 -0.6608  0.2070 -1.1439
  170SAPS   H2S19241   6.117   6.318   5.405  0.5210 -3.9730  0.9666
  170SAPS    C319242   6.603   6.238   5.653 -0.4099 -0.1822  0.3913
  170SAPS    HX19243   6.651   6.254   5.752  0.7552 -1.9627  0.1324
  170SAPS    HY19244   6.666   6.289   5.577  1.0706 -0.2346  1.5662
  170SAPS   O3119245   6.594   6.100   5.613 -0.2364 -0.2957  0.2714
  170SAPS   C3119246   6.713   6.042   5.611  0.1336  0.6225  0.1252
  170SAPS   O3219247   6.812   6.086   5.667  0.5434 -0.2823 -0.0554
  170SAPS   C3219248   6.702   5.913   5.517 -0.4227 -0.3871 -0.1738
  170SAPS   H2X19249   6.597   5.874   5.515 -1.0873  1.3560  0.0484
  170SAPS   H2Y19250   6.770   5.830   5.546 -0.1691 -0.3245 -0.5878
  170SAPS   C2319251   6.257   6.454   5.285  0.1701  0.2035  0.1607
  170SAPS   H3R19252   6.366   6.449   5.265  0.0638 -1.3126 -0.0726
  170SAPS   H3S19253   6.224   6.550   5.330  0.8029  0.7249 -0.4922
  170SAPS   C2419254   6.201   6.438   5.147  0.1019  0.7589  0.0228
  170SAPS   H4R19255   6.202   6.534   5.093  1.0159  0.6751 -0.1109
  170SAPS   H4S19256   6.091   6.428   5.163 -0.2153  1.0278 -1.9139
  170SAPS   C2519257   6.268   6.319   5.079 -0.0736 -0.2134  1.1738
  170SAPS   H5R19258   6.219   6.220   5.085  1.4356 -1.2060 -2.0173
  170SAPS   C2619259   6.385   6.319   5.014 -0.0542  0.5490  0.9709
  170SAPS   H6R19260   6.425   6.221   4.983  0.1759  1.4147 -1.6314
  170SAPS   C2719261   6.478   6.439   4.985 -0.4648  0.6803 -0.4389
  170SAPS   H7R19262   6.540   6.465   5.073 -0.1429 -1.6766  0.0680
  170SAPS   H7S19263   6.411   6.522   4.953 -1.6664 -0.6182 -1.3809
  170SAPS   C2819264   6.567   6.406   4.862  0.3800  0.3290 -0.1591
  170SAPS   H8R19265   6.656   6.348   4.890 -0.8753 -0.9177  1.3601
  170SAPS   C2919266   6.544   6.455   4.739  0.0544  0.3556  0.9004
  170SAPS   H9R19267   6.623   6.444   4.663 -0.0378 -0.1822  0.8834
  170SAPS  C21019268   6.433   6.548   4.684 -0.3159  0.9993 -1.0759
  170SAPS  H10R19269   6.360   6.578   4.762 -1.7582  1.9303 -2.7566
  170SAPS  H10S19270   6.376   6.483   4.615 -0.2030  0.8022 -0.9851
  170SAPS  C21119271   6.484   6.679   4.627 -0.4437  0.5648  0.0947
  170SAPS  H11R19272   6.586   6.712   4.653 -0.0634  0.3520 -1.0908
  170SAPS  C21219273   6.406   6.743   4.544  0.8582  0.2448  0.2778
  170SAPS  H12R19274   6.453   6.826   4.489 -1.5860 -0.0645 -2.3534
  170SAPS  C21319275   6.268   6.701   4.495 -0.4131  0.0039 -0.8543
  170SAPS  H13R19276   6.228   6.615   4.552  2.0224  0.0250  0.9888
  170SAPS  H13S19277   6.272   6.669   4.388 -0.0827 -0.5198 -0.6878
  170SAPS  C21419278   6.166   6.808   4.514  0.5181  0.2246  0.1632
  170SAPS  H14R19279   6.185   6.881   4.594 -3.4082 -0.6490  2.0018
  170SAPS  C21519280   6.059   6.837   4.434 -0.7461  0.4364 -0.7282
  170SAPS  H15R19281   6.026   6.939   4.454  1.0822  0.8379  0.3360
  170SAPS  C21619282   6.023   6.773   4.310  0.6207  0.8469  0.4120
  170SAPS  H16R19283   6.046   6.665   4.314 -0.5640  0.6418  2.3334
  170SAPS  H16S19284   6.067   6.823   4.221  1.6193  1.7418  1.3881
  170SAPS  C21719285   5.871   6.786   4.283 -0.2537  0.2730 -0.2368
  170SAPS  H17R19286   5.825   6.716   4.356 -0.7187  0.6063 -0.2061
  170SAPS  H17S19287   5.840   6.737   4.188 -2.2413 -1.5659  1.3046
  170SAPS  C21819288   5.808   6.921   4.287  0.3683  0.5016 -0.5410
  170SAPS  H18R19289   5.840   6.991   4.207 -0.1842 -0.1594 -1.3437
  170SAPS  H18S19290   5.830   6.980   4.379  2.0426 -0.5708 -0.2192
  170SAPS  C21919291   5.651   6.923   4.267  0.4166  0.2923 -0.3743
  170SAPS  H19R19292   5.617   6.884   4.365  2.2766 -1.3129 -0.3290
  170SAPS  H19S19293   5.622   6.847   4.191 -2.2473  0.2255  0.6912
  170SAPS  C22019294   5.581   7.059   4.257 -0.1219  0.2039  0.3452
  170SAPS  H20R19295   5.617   7.136   4.329 -1.4389  1.4765 -0.3220
  170SAPS  H20S19296   5.474   7.049   4.284 -0.1260  0.0130  0.2603
  170SAPS  H20T19297   5.599   7.106   4.158  1.2368 -3.0643 -1.0370
  170SAPS   C3319298   6.732   5.951   5.367  0.5052  0.2118  0.3760
  170SAPS   H3X19299   6.738   5.859   5.304 -0.6219 -0.7517  1.6328
  170SAPS   H3Y19300   6.828   6.004   5.355  1.2304 -0.6709  2.0709
  170SAPS   C3419301   6.614   6.040   5.306 -0.5285 -0.6374 -0.4015
  170SAPS   H4X19302   6.617   6.141   5.352  0.3745 -0.8468  0.0157
  170SAPS   H4Y19303   6.513   5.998   5.328 -1.3732  1.3687 -0.3949
  170SAPS   C3519304   6.601   6.058   5.159  0.7476 -0.1013  0.7792
  170SAPS   H5X19305   6.674   6.133   5.121 -0.5179  0.5204 -0.4711
  170SAPS   H5Y19306   6.499   6.102   5.158  0.1312 -1.5171  0.1087
  170SAPS   C3619307   6.592   5.935   5.074  0.0511 -0.8870  0.2587
  170SAPS   H6X19308   6.511   5.878   5.125 -1.8226  0.7719 -0.7870
  170SAPS   H6Y19309   6.686   5.877   5.061 -0.5625 -2.2417  1.7168
  170SAPS   C3719310   6.546   5.952   4.925  0.5364 -0.6737 -0.0694
  170SAPS   H7X19311   6.455   6.015   4.917  0.7912 -0.6708 -3.8842
  170SAPS   H7Y19312   6.509   5.851   4.897  0.8121 -0.3540 -1.6213
  170SAPS   C3819313   6.656   6.014   4.839 -0.7932 -0.0382  0.3257
  170SAPS   H8X19314   6.736   5.938   4.826 -2.7898 -1.9811 -0.9818
  170SAPS   H8Y19315   6.693   6.105   4.892 -2.0255 -0.0915  1.3165
  170SAPS   C3919316   6.617   6.038   4.689  0.1827  0.1210  0.2757
  170SAPS   H9X19317   6.527   6.102   4.694  0.3996  0.5478 -1.1976
  170SAPS   H9Y19318   6.586   5.942   4.642  0.0157  1.3567 -2.1634
  170SAPS  C31019319   6.719   6.115   4.605  0.2479  0.7349  0.2888
  170SAPS  H10X19320   6.815   6.061   4.596  0.0730  0.8325 -2.6310
  170SAPS  H10Y19321   6.741   6.216   4.646 -0.6253  0.7093  0.8410
  170SAPS  C31119322   6.671   6.112   4.455 -0.2945  0.0099  0.4181
  170SAPS  H11X19323   6.562   6.134   4.451 -0.2758  0.3196  1.4227
  170SAPS  H11Y19324   6.697   6.012   4.413 -0.8240 -0.0385  0.1983
  170SAPS  C31219325   6.757   6.214   4.372 -0.4239  0.3149 -0.6591
  170SAPS  H12X19326   6.865   6.208   4.400 -1.1976 -0.9013  2.2202
  170SAPS  H12Y19327   6.725   6.317   4.398 -0.7058  0.2321 -0.6790
  170SAPS  C31319328   6.745   6.202   4.221 -0.0590  0.3120  0.8065
  170SAPS  H13X19329   6.640   6.187   4.189 -0.2551  0.5791  1.3155
  170SAPS  H13Y19330   6.810   6.119   4.184 -1.1170  0.3342 -1.1327
  170SAPS  C31419331   6.811   6.332   4.169  0.1761  0.0429  0.2692
  170SAPS  H14X19332   6.891   6.358   4.241  2.1580 -0.4631 -1.6840
  170SAPS  H14Y19333   6.740   6.417   4.177  0.7653  0.4105  1.6293
  170SAPS  C31519334   6.861   6.320   4.020  0.1098 -0.1099 -0.5913
  170SAPS  H15X19335   6.937   6.239   4.012 -0.8962 -1.0910 -0.5124
  170SAPS  H15Y19336   6.916   6.414   4.002  0.0338 -0.1638 -1.1276
  170SAPS  C31619337   6.748   6.298   3.916 -0.2241  0.5691  1.2424
  170SAPS  H16X19338   6.684   6.389   3.926 -1.7132 -0.3254 -0.1012
  170SAPS  H16Y19339   6.692   6.204   3.936 -0.6121  0.7019  0.7749
  170SAPS  C31719340   6.807   6.290   3.775  0.1216 -0.2538  0.4544
  170SAPS  H17X19341   6.729   6.250   3.707  0.0037  1.4631 -0.4524
  170SAPS  H17Y19342   6.894   6.220   3.771  0.1060 -0.1845 -1.8002
  170SAPS  C31819343   6.843   6.427   3.728 -1.1775  0.0061  0.0160
  170SAPS  H18X19344   6.916   6.483   3.790  1.1819 -0.9989 -1.7709
  170SAPS  H18Y19345   6.750   6.488   3.721 -0.5662  1.1855  1.7974
  170SAPS  H18Z19346   6.883   6.419   3.625 -1.1698  1.0498 -0.0687
  171SAPS     N19347   0.367   5.827   6.330  0.0436 -0.6022 -0.7061
  171SAPS   HN119348   0.348   5.892   6.409 -0.3568 -0.7264 -0.6986
  171SAPS   HN219349   0.397   5.731   6.356  0.9819 -0.8191 -2.4979
  171SAPS   HN319350   0.444   5.864   6.270 -0.3326 -2.0692 -2.1473
  171SAPS   C1219351   0.249   5.823   6.244 -0.1931  0.7353  0.6597
  171SAPS  H12A19352   0.181   5.748   6.283 -1.0589  0.8959 -0.5306
  171SAPS   C1319353   0.164   5.948   6.237  0.2286 -0.3280  0.0170
  171SAPS  O13A19354   0.194   6.056   6.297  0.2533 -0.3296  0.3287
  171SAPS  O13B19355   0.075   5.950   6.146  0.1820  0.4846 -0.0543
  171SAPS   C1119356   0.296   5.784   6.095 -0.2455  0.2703  0.4813
  171SAPS  H11A19357   0.349   5.875   6.058 -1.1267  0.0158 -1.4656
  171SAPS  H11B19358   0.199   5.777   6.042  0.2250 -1.5659 -0.1804
  171SAPS     P19359   0.498   5.652   5.991  0.4067 -0.2787  0.2997
  171SAPS   O1319360   0.608   5.736   6.042 -0.1556  0.8191  0.1515
  171SAPS   O1419361   0.521   5.508   5.973 -0.3708  0.0054 -0.6549
  171SAPS   O1219362   0.375   5.660   6.090  0.4565 -0.1691  1.1986
  171SAPS   O1119363   0.440   5.717   5.859 -0.1448 -0.4955  0.1709
  171SAPS    C119364   0.517   5.726   5.735 -0.1840  0.1882 -0.7464
  171SAPS    HA19365   0.597   5.650   5.741 -0.5715 -0.3119 -1.8477
  171SAPS    HB19366   0.454   5.700   5.648 -2.0182  0.4905  0.4601
  171SAPS    C219367   0.577   5.869   5.714  0.0197  0.6842 -0.4031
  171SAPS    HS19368   0.634   5.903   5.803 -0.4868  2.1178 -0.6035
  171SAPS   O2119369   0.473   5.962   5.678  0.3175 -0.1036 -0.4789
  171SAPS   C2119370   0.461   6.054   5.772  0.8796 -0.9897 -0.3305
  171SAPS   O2219371   0.505   6.050   5.886  0.2389 -0.9463 -0.0943
  171SAPS   C2219372   0.364   6.167   5.726  0.3598 -0.2436  0.1439
  171SAPS   H2R19373   0.270   6.116   5.694 -0.3325  0.7207  0.6075
  171SAPS   H2S19374   0.342   6.227   5.816  2.3192  1.5767 -0.5524
  171SAPS    C319375   0.687   5.870   5.603 -0.4718  0.4846  0.1352
  171SAPS    HX19376   0.776   5.815   5.640 -0.6406  0.3199  0.2955
  171SAPS    HY19377   0.721   5.975   5.589  0.8973 -0.1623 -1.5677
  171SAPS   O3119378   0.634   5.807   5.483 -0.3011 -0.1335 -0.2710
  171SAPS   C3119379   0.641   5.876   5.362  0.4487 -0.6246  0.1880
  171SAPS   O3219380   0.696   5.982   5.345 -0.7734 -0.3193  0.1509
  171SAPS   C3219381   0.568   5.805   5.245 -0.5138  0.9450 -0.0953
  171SAPS   H2X19382   0.647   5.735   5.209 -0.4819  0.0981  1.5967
  171SAPS   H2Y19383   0.535   5.885   5.175 -2.1226  1.0683  0.7910
  171SAPS   C2319384   0.422   6.253   5.611  0.3996  0.5815 -0.1768
  171SAPS   H3R19385   0.472   6.179   5.546  0.1885 -0.1019  0.4369
  171SAPS   H3S19386   0.501   6.321   5.650  1.6745 -1.1282  0.2817
  171SAPS   C2419387   0.321   6.326   5.525  0.0065 -0.2869 -0.7766
  171SAPS   H4R19388   0.253   6.395   5.579  1.2002 -0.3962  0.9008
  171SAPS   H4S19389   0.255   6.257   5.467 -0.3108  1.7793 -2.9274
  171SAPS   C2519390   0.402   6.410   5.430  0.4962  0.0636  0.2611
  171SAPS   H5R19391   0.427   6.510   5.469 -0.6352  0.7465 -0.7469
  171SAPS   C2619392   0.436   6.386   5.298 -0.4467  0.2811  0.3137
  171SAPS   H6R19393   0.511   6.455   5.257  0.8187 -0.7024  0.9532
  171SAPS   C2719394   0.404   6.264   5.228  1.2076  0.6178 -0.6030
  171SAPS   H7R19395   0.318   6.295   5.165  0.9594 -3.2571 -2.3226
  171SAPS   H7S19396   0.369   6.184   5.297  3.0648  1.1737  1.0274
  171SAPS   C2819397   0.523   6.206   5.146 -0.8944 -1.4359 -0.2212
  171SAPS   H8R19398   0.605   6.165   5.207 -0.3203 -1.5654 -1.0710
  171SAPS   C2919399   0.536   6.192   5.012  0.2348  0.1846  0.6496
  171SAPS   H9R19400   0.633   6.181   4.961 -0.1556  2.9483 -0.7494
  171SAPS  C21019401   0.427   6.223   4.913  0.1339  0.1046  0.4884
  171SAPS  H10R19402   0.480   6.233   4.815 -1.0855 -2.3667 -0.4610
  171SAPS  H10S19403   0.375   6.317   4.940  0.0558  0.3715 -0.5680
  171SAPS  C21119404   0.319   6.118   4.905 -0.0309  0.2928  0.0315
  171SAPS  H11R19405   0.317   6.036   4.978 -0.1218 -2.3545 -2.8259
  171SAPS  C21219406   0.235   6.101   4.798 -0.4484 -0.7649  0.6001
  171SAPS  H12R19407   0.166   6.015   4.798 -1.7822  0.2239 -2.5194
  171SAPS  C21319408   0.223   6.201   4.679  0.5181 -0.0650 -0.1416
  171SAPS  H13R19409   0.274   6.152   4.593  1.8389  0.4257  0.3550
  171SAPS  H13S19410   0.278   6.292   4.709 -1.2292  0.6769  0.9029
  171SAPS  C21419411   0.078   6.231   4.639 -0.2780  0.2367  0.0239
  171SAPS  H14R19412  -0.005   6.222   4.711  0.7682 -1.3925  1.0598
  171SAPS  C21519413   0.039   6.287   4.519 -0.1436 -0.0011 -0.0213
  171SAPS  H15R19414  -0.067   6.312   4.503  0.0722  0.4783 -0.7651
  171SAPS  C21619415   0.112   6.327   4.393  0.1470  0.0746  0.3449
  171SAPS  H16R19416   0.051   6.317   4.301  2.0181 -1.9712 -0.7289
  171SAPS  H16S19417   0.196   6.256   4.380  1.1811  1.0807  1.4570
  171SAPS  C21719418   0.158   6.476   4.395 -0.2758  0.0086  0.3936
  171SAPS  H17R19419   0.236   6.487   4.317 -2.3034 -2.1949 -2.0030
  171SAPS  H17S19420   0.195   6.508   4.495  1.0300  2.8591 -0.9428
  171SAPS  C21819421   0.043   6.579   4.362  0.1196  0.6801 -0.4663
  171SAPS  H18R19422   0.092   6.678   4.372 -2.7817  2.0644  0.5947
  171SAPS  H18S19423  -0.040   6.563   4.434  1.5745  1.0841  1.3489
  171SAPS  C21919424  -0.020   6.560   4.220 -0.3022 -0.1483 -0.2846
  171SAPS  H19R19425  -0.080   6.466   4.222 -0.6065  0.0347 -0.7628
  171SAPS  H19S19426   0.056   6.553   4.140 -0.9735 -0.4217 -0.9107
  171SAPS  C22019427  -0.111   6.678   4.182  0.3378  0.0845  0.0113
  171SAPS  H20R19428  -0.190   6.702   4.257  2.3725  0.2988  2.1432
  171SAPS  H20S19429  -0.163   6.649   4.088 -0.3516 -0.4769  0.5618
  171SAPS  H20T19430  -0.039   6.762   4.177  2.1375 -1.4391 -0.2782
  171SAPS   C3319431   0.446   5.724   5.293 -0.3608 -0.3334  0.4764
  171SAPS   H3X19432   0.476   5.641   5.360 -2.0358 -0.6164  0.9081
  171SAPS   H3Y19433   0.405   5.674   5.203 -2.6689 -0.3717  1.5226
  171SAPS   C3419434   0.340   5.813   5.362  1.0780  0.9351 -0.9286
  171SAPS   H4X19435   0.387   5.890   5.427 -0.0655  1.3569 -0.5821
  171SAPS   H4Y19436   0.274   5.751   5.426  1.9027 -0.0065 -0.9921
  171SAPS   C3519437   0.253   5.895   5.264 -0.5359  0.4925  0.2106
  171SAPS   H5X19438   0.208   5.827   5.189 -0.5599 -0.5397  1.1345
  171SAPS   H5Y19439   0.321   5.961   5.207  1.1455  0.9105  2.6282
  171SAPS   C3619440   0.144   5.974   5.340 -0.9243 -0.1030 -0.0347
  171SAPS   H6X19441   0.197   6.056   5.394 -0.2332 -0.1611 -0.6249
  171SAPS   H6Y19442   0.074   5.920   5.408 -0.9025  0.3048  0.3180
  171SAPS   C3719443   0.065   6.051   5.228 -0.6162 -0.6385  0.1955
  171SAPS   H7X19444   0.023   5.980   5.153  1.0181  0.2280 -1.6017
  171SAPS   H7Y19445   0.141   6.114   5.177 -0.8899 -0.4483  0.0194
  171SAPS   C3819446  -0.054   6.129   5.287  0.2331 -0.1627  0.9968
  171SAPS   H8X19447  -0.015   6.221   5.337 -0.3642 -0.3022  1.7255
  171SAPS   H8Y19448  -0.110   6.063   5.356 -1.9837 -0.7465 -1.3065
  171SAPS   C3919449  -0.156   6.175   5.173 -0.1790  0.3664  0.3874
  171SAPS   H9X19450  -0.250   6.190   5.229 -1.2073 -2.4430 -0.5073
  171SAPS   H9Y19451  -0.178   6.103   5.091  1.0353 -0.0367  0.3931
  171SAPS  C31019452  -0.118   6.310   5.118 -0.4011  0.1377 -0.1355
  171SAPS  H10X19453  -0.012   6.311   5.087 -0.7344  1.2198 -1.3119
  171SAPS  H10Y19454  -0.141   6.393   5.189  0.0292 -0.1929  0.3854
  171SAPS  C31119455  -0.196   6.342   4.991 -0.3740 -0.1110  0.2268
  171SAPS  H11X19456  -0.306   6.352   5.000 -0.7698 -0.8738 -2.9576
  171SAPS  H11Y19457  -0.176   6.259   4.919 -2.1942  0.4621 -0.9689
  171SAPS  C31219458  -0.134   6.461   4.919 -0.2371 -0.4899 -0.6456
  171SAPS  H12X19459  -0.026   6.440   4.902 -0.4644 -0.7730 -1.7578
  171SAPS  H12Y19460  -0.130   6.548   4.989  1.1124 -0.1003 -1.1875
  171SAPS  C31319461  -0.218   6.508   4.799 -0.5537 -0.2996  0.3617
  171SAPS  H13X19462  -0.314   6.543   4.843 -0.2572 -0.9507  1.5572
  171SAPS  H13Y19463  -0.234   6.420   4.734 -0.6396  1.5832 -2.2545
  171SAPS  C31419464  -0.139   6.613   4.716  0.0620  0.0108  0.1130
  171SAPS  H14X19465  -0.067   6.568   4.645 -0.2696 -0.3203 -0.0173
  171SAPS  H14Y19466  -0.083   6.677   4.788  1.6613  0.2935 -1.3578
  171SAPS  C31519467  -0.243   6.694   4.642 -0.4239  0.1266  0.0994
  171SAPS  H15X19468  -0.338   6.718   4.694 -1.2153  0.7458 -1.5942
  171SAPS  H15Y19469  -0.264   6.628   4.555  3.0452 -0.4013 -0.3858
  171SAPS  C31619470  -0.181   6.830   4.595 -0.3385  0.5838  0.2438
  171SAPS  H16X19471  -0.072   6.822   4.571 -0.2118 -0.6221  1.1770
  171SAPS  H16Y19472  -0.171   6.901   4.680 -1.6525  3.5378 -2.0019
  171SAPS  C31719473  -0.257   6.896   4.480  0.6695 -0.0519  0.2067
  171SAPS  H17X19474  -0.360   6.909   4.521  0.2592 -1.0088 -0.5155
  171SAPS  H17Y19475  -0.269   6.820   4.400  0.7161  2.4927 -2.2759
  171SAPS  C31819476  -0.196   7.030   4.428 -0.2825 -0.4437  0.2814
  171SAPS  H18X19477  -0.266   7.082   4.358 -2.4362 -0.7980  2.1124
  171SAPS  H18Y19478  -0.111   6.999   4.364 -1.5487 -0.1317 -1.6053
  171SAPS  H18Z19479  -0.163   7.094   4.512  0.6702 -0.6442  0.0596
  172SAPS     N19480   6.980   6.461   6.216  0.9730 -0.2155 -0.1077
  172SAPS   HN119481   7.025   6.431   6.305 -0.2522 -0.4049  0.4627
  172SAPS   HN219482   7.053   6.523   6.176  0.6467  0.3020  0.1052
  172SAPS   HN319483   6.900   6.517   6.251  1.7118  0.3337  0.7436
  172SAPS   C1219484   6.937   6.355   6.128  0.5374  0.2709  0.7139
  172SAPS  H12A19485   7.017   6.347   6.056  1.6631 -1.1325  2.0743
  172SAPS   C1319486   6.925   6.208   6.179 -0.1767  0.3941 -0.2559
  172SAPS  O13A19487   6.960   6.181   6.301 -0.2207 -0.8539  0.4938
  172SAPS  O13B19488   6.889   6.111   6.105  0.6206 -0.4736  0.1339
  172SAPS   C1119489   6.803   6.402   6.061 -0.5652  0.1523  0.6547
  172SAPS  H11A19490   6.723   6.398   6.138 -0.7159 -0.3468  0.4757
  172SAPS  H11B19491   6.775   6.324   5.987  0.7129  2.2341 -2.1363
  172SAPS     P19492   6.716   6.591   5.897 -0.1246 -0.0138  0.1604
  172SAPS   O1319493   6.580   6.559   5.946  0.1408 -0.6550 -0.0390
  172SAPS   O1419494   6.753   6.733   5.882 -0.4632  0.2806 -0.4583
  172SAPS   O1219495   6.826   6.529   5.994 -0.0480  0.2059  0.4465
  172SAPS   O1119496   6.750   6.516   5.758  1.0201  0.0173 -0.3039
  172SAPS    C119497   6.879   6.474   5.713  0.3554  0.8232 -0.0964
  172SAPS    HA19498   6.961   6.463   5.787  1.8019 -2.3075 -2.0421
  172SAPS    HB19499   6.871   6.373   5.666 -2.3866  0.2850  1.4154
  172SAPS    C219500   6.925   6.551   5.581  0.5222 -0.5435  0.0701
  172SAPS    HS19501   6.952   6.655   5.609 -0.7186 -0.2590  0.2104
  172SAPS   O2119502   6.820   6.530   5.482 -0.0639  0.8001  0.4767
  172SAPS   C2119503   6.802   6.649   5.411  0.4023  0.2015  0.5027
  172SAPS   O2219504   6.859   6.754   5.424  0.0602 -0.2312  0.2047
  172SAPS   C2219505   6.692   6.618   5.308 -0.0200  0.9381 -0.3075
  172SAPS   H2R19506   6.702   6.517   5.264 -2.9715 -0.3620  1.8340
  172SAPS   H2S19507   6.601   6.613   5.372 -0.7204 -2.0484 -1.4773
  172SAPS    C319508   7.063   6.483   5.535 -0.4801 -0.6165 -0.2302
  172SAPS    HX19509   7.043   6.376   5.511 -1.6315 -0.2057 -1.1182
  172SAPS    HY19510   7.147   6.492   5.606 -1.1781 -0.5883  0.6031
  172SAPS   O3119511   7.104   6.529   5.407 -0.1775 -0.1096  0.1417
  172SAPS   C3119512   7.217   6.593   5.390  0.1955 -0.4379 -0.3524
  172SAPS   O3219513   7.298   6.606   5.479 -0.5516  0.0259 -0.0793
  172SAPS   C3219514   7.223   6.656   5.248  0.3535 -0.3339 -0.3740
  172SAPS   H2X19515   7.225   6.764   5.274  0.3549 -0.9676  2.4429
  172SAPS   H2Y19516   7.127   6.638   5.195  0.4164  2.1363 -1.4165
  172SAPS   C2319517   6.670   6.714   5.191 -0.1108 -0.4798  0.1141
  172SAPS   H3R19518   6.662   6.821   5.218 -1.4453 -0.4868 -0.2433
  172SAPS   H3S19519   6.572   6.688   5.146 -0.6265 -1.2116  1.6627
  172SAPS   C2419520   6.783   6.692   5.083  0.3815  0.2337 -0.0991
  172SAPS   H4R19521   6.764   6.596   5.030 -1.2387 -2.2573  4.6152
  172SAPS   H4S19522   6.871   6.675   5.149 -1.6378 -2.0669  2.0945
  172SAPS   C2519523   6.796   6.817   5.004  0.4955 -0.5724  0.8675
  172SAPS   H5R19524   6.708   6.833   4.941  1.2208 -1.0257 -0.2776
  172SAPS   C2619525   6.896   6.914   5.025 -0.0052  0.5344  0.4614
  172SAPS   H6R19526   6.889   7.005   4.963 -0.1005  1.6764  2.1227
  172SAPS   C2719527   7.012   6.913   5.122  0.1262 -0.7824  0.3815
  172SAPS   H7R19528   7.079   6.825   5.115  2.8339  0.9938  2.5068
  172SAPS   H7S19529   6.969   6.909   5.225 -1.9969  1.3165 -0.3860
  172SAPS   C2819530   7.097   7.042   5.134  0.3096 -0.0915  0.3436
  172SAPS   H8R19531   7.076   7.085   5.233 -0.4721 -2.9673  1.4861
  172SAPS   C2919532   7.193   7.086   5.049  0.6085  0.3132  0.5097
  172SAPS   H9R19533   7.240   7.185   5.057 -2.1344  1.5001  2.3960
  172SAPS  C21019534   7.215   7.009   4.912 -0.2359 -0.3103  0.0055
  172SAPS  H10R19535   7.151   6.919   4.896  0.6932 -1.0693  0.4688
  172SAPS  H10S19536   7.322   6.980   4.928 -0.1536  0.7025  1.3183
  172SAPS  C21119537   7.193   7.100   4.796 -0.1356 -0.2846  0.4527
  172SAPS  H11R19538   7.111   7.173   4.807 -1.3079 -1.7215  1.5143
  172SAPS  C21219539   7.276   7.111   4.691  0.1464 -0.9158  0.7822
  172SAPS  H12R19540   7.255   7.185   4.613  1.4460 -1.4592 -0.1101
  172SAPS  C21319541   7.407   7.029   4.675  0.1276  0.6488  0.6098
  172SAPS  H13R19542   7.443   6.989   4.772  0.3604 -2.4646 -0.7120
  172SAPS  H13S19543   7.482   7.106   4.647 -0.7138  1.5107  0.6688
  172SAPS  C21419544   7.395   6.914   4.581 -0.5695  1.1358 -0.5008
  172SAPS  H14R19545   7.320   6.838   4.609  0.1086  0.5516 -0.2548
  172SAPS  C21519546   7.428   6.922   4.456 -0.3181  0.0410  0.3201
  172SAPS  H15R19547   7.393   6.846   4.384  0.0632  1.2514 -1.1651
  172SAPS  C21619548   7.498   7.036   4.391  0.4664  0.3935 -0.0117
  172SAPS  H16R19549   7.607   7.017   4.386  0.1152 -1.7786  0.0900
  172SAPS  H16S19550   7.506   7.129   4.451  0.6576  1.8474 -2.2478
  172SAPS  C21719551   7.440   7.084   4.260 -0.2874  0.1901  0.4023
  172SAPS  H17R19552   7.452   7.015   4.174  1.5996  2.3508 -1.1286
  172SAPS  H17S19553   7.505   7.166   4.223 -1.0772  1.4851  1.8369
  172SAPS  C21819554   7.297   7.124   4.277 -0.2234 -0.7165  0.2096
  172SAPS  H18R19555   7.295   7.197   4.360  3.2733  0.2461 -0.4890
  172SAPS  H18S19556   7.235   7.037   4.309 -1.8472  0.1402 -0.5681
  172SAPS  C21919557   7.239   7.182   4.155  0.0008  0.4177  0.3372
  172SAPS  H19R19558   7.312   7.258   4.119  0.2362 -0.8182 -1.9042
  172SAPS  H19S19559   7.134   7.216   4.165 -0.3245 -0.3832 -0.2770
  172SAPS  C22019560   7.230   7.086   4.029 -0.1194  0.9901  0.3883
  172SAPS  H20R19561   7.196   7.140   3.938  0.1109  0.5477  0.0358
  172SAPS  H20S19562   7.161   7.004   4.055  0.5873  0.6249  1.1186
  172SAPS  H20T19563   7.331   7.046   4.007 -0.0869 -0.1553  2.4633
  172SAPS   C3319564   7.345   6.605   5.170 -0.1126 -0.6013  0.0981
  172SAPS   H3X19565   7.337   6.495   5.158 -0.0455 -0.4569 -1.3195
  172SAPS   H3Y19566   7.437   6.625   5.229 -1.9179 -1.1607  3.2140
  172SAPS   C3419567   7.353   6.656   5.025  0.0768  0.5648  0.3553
  172SAPS   H4X19568   7.349   6.767   5.020  1.1544  0.5889  0.0149
  172SAPS   H4Y19569   7.264   6.613   4.975  0.7770  1.7238 -1.9631
  172SAPS   C3519570   7.484   6.607   4.960  0.4584 -0.4641  0.1370
  172SAPS   H5X19571   7.498   6.499   4.982 -0.2809 -0.1208  2.4071
  172SAPS   H5Y19572   7.572   6.660   5.002 -0.1206 -0.1259  0.9441
  172SAPS   C3619573   7.491   6.634   4.807  0.1238  0.3020  0.1869
  172SAPS   H6X19574   7.505   6.744   4.791 -1.1454  0.4806  0.2842
  172SAPS   H6Y19575   7.394   6.621   4.755 -0.0269  0.8856  0.3134
  172SAPS   C3719576   7.609   6.559   4.741  1.0357 -0.2071  0.3646
  172SAPS   H7X19577   7.598   6.449   4.749  2.4616 -0.2783  1.3510
  172SAPS   H7Y19578   7.692   6.592   4.807 -0.6707  3.5214  0.8352
  172SAPS   C3819579   7.636   6.596   4.591  1.0492 -0.3880 -0.2807
  172SAPS   H8X19580   7.629   6.705   4.573  0.6694 -0.4318 -0.4117
  172SAPS   H8Y19581   7.545   6.564   4.535  1.6409  1.2289 -2.1949
  172SAPS   C3919582   7.765   6.539   4.526  0.1058 -0.6702 -0.7270
  172SAPS   H9X19583   7.856   6.586   4.570 -0.1568 -1.1293  0.3177
  172SAPS   H9Y19584   7.768   6.578   4.422  1.2104  0.9444 -0.1192
  172SAPS  C31019585   7.775   6.389   4.537 -0.2351  0.8063 -0.8894
  172SAPS  H10X19586   7.762   6.365   4.645 -2.2127  2.3470 -0.7652
  172SAPS  H10Y19587   7.879   6.365   4.505  0.3194  1.2292  0.5248
  172SAPS  C31119588   7.676   6.305   4.464  0.6210 -0.5484 -0.0413
  172SAPS  H11X19589   7.572   6.319   4.500  1.2232 -0.2072  1.5903
  172SAPS  H11Y19590   7.707   6.202   4.492  0.0298 -0.7089  0.0301
  172SAPS  C31219591   7.680   6.309   4.305  0.1006  1.0066  0.2350
  172SAPS  H12X19592   7.787   6.283   4.291  0.4973  1.7066  1.8467
  172SAPS  H12Y19593   7.648   6.408   4.265  0.4534  2.1061  2.5777
  172SAPS  C31319594   7.596   6.201   4.231  0.3556  0.2411  0.4312
  172SAPS  H13X19595   7.489   6.215   4.257 -0.0180 -3.2469  1.0084
  172SAPS  H13Y19596   7.630   6.105   4.275 -0.9235 -0.0127  0.8648
  172SAPS  C31419597   7.622   6.209   4.080  0.1225  0.0118 -0.7722
  172SAPS  H14X19598   7.731   6.194   4.073 -0.0279 -1.9048  0.6794
  172SAPS  H14Y19599   7.595   6.308   4.037 -1.7778  1.0007  2.4965
  172SAPS  C31519600   7.565   6.100   3.990  0.2010  0.3910  0.6947
  172SAPS  H15X19601   7.594   6.121   3.885 -3.2553 -0.0861 -0.4442
  172SAPS  H15Y19602   7.456   6.120   3.980  0.0813 -1.8431 -3.5503
  172SAPS  C31619603   7.588   5.956   4.044  0.0868  0.5451  0.4186
  172SAPS  H16X19604   7.696   5.936   4.025  0.0033  0.9966 -0.5853
  172SAPS  H16Y19605   7.569   5.948   4.153 -0.8506  0.6263  0.2574
  172SAPS  C31719606   7.508   5.854   3.966 -0.4390  0.6137 -0.0208
  172SAPS  H17X19607   7.514   5.884   3.859 -0.0205  0.9010  0.0824
  172SAPS  H17Y19608   7.403   5.871   3.996 -0.6673 -0.5147 -0.1909
  172SAPS  C31819609   7.550   5.707   3.978 -0.7002  0.6243 -0.8173
  172SAPS  H18X19610   7.468   5.650   3.929 -2.3607  1.9107  0.3999
  172SAPS  H18Y19611   7.544   5.681   4.086  0.3590  0.3980 -0.8060
  172SAPS  H18Z19612   7.649   5.676   3.940 -1.3307 -1.0199 -1.1666
  173SAPS     N19613   4.970   3.795   1.666  0.0767 -0.3739  0.1830
  173SAPS   HN119614   4.878   3.766   1.705  0.3518 -0.4395  0.7907
  173SAPS   HN219615   4.952   3.842   1.576 -3.5429 -2.0668 -0.0689
  173SAPS   HN319616   5.040   3.719   1.654 -0.1089 -0.4360 -0.5203
  173SAPS   C1219617   5.028   3.887   1.762  0.5018  0.3560 -0.2028
  173SAPS  H12A19618   5.064   3.824   1.842 -3.1956 -0.2493  1.0849
  173SAPS   C1319619   5.149   3.979   1.722 -0.2828 -0.2846  0.1397
  173SAPS  O13A19620   5.196   3.974   1.606 -0.3039  0.2389 -0.4156
  173SAPS  O13B19621   5.183   4.058   1.809 -0.6982  0.5415 -0.1179
  173SAPS   C1119622   4.915   3.982   1.819  0.2149  0.5679  0.0834
  173SAPS  H11A19623   4.890   4.046   1.731 -0.5940 -1.9742 -1.5998
  173SAPS  H11B19624   4.957   4.052   1.894 -1.2541  0.1552  1.2987
  173SAPS     P19625   4.737   3.909   2.013  0.3498  0.0335 -0.6385
  173SAPS   O1319626   4.698   4.048   2.047 -0.7204 -0.2298 -1.0585
  173SAPS   O1419627   4.631   3.809   2.015 -0.2628  0.6772  0.6252
  173SAPS   O1219628   4.798   3.921   1.870  0.1059  0.4892 -0.2852
  173SAPS   O1119629   4.856   3.870   2.100 -0.4424 -0.3000  0.1530
  173SAPS    C119630   4.852   3.753   2.180 -0.6033  0.5667  0.4438
  173SAPS    HA19631   4.799   3.668   2.131 -0.1932 -0.1096  1.1583
  173SAPS    HB19632   4.954   3.711   2.194 -0.5473  0.4698 -0.2329
  173SAPS    C219633   4.784   3.793   2.314 -0.7152  0.4804 -0.0422
  173SAPS    HS19634   4.681   3.829   2.292 -1.6026 -1.7491  0.3011
  173SAPS   O2119635   4.864   3.903   2.372 -0.5685 -0.0472 -0.1755
  173SAPS   C2119636   4.803   3.949   2.484 -0.0983 -0.5747 -0.4444
  173SAPS   O2219637   4.691   3.935   2.520 -0.2751  0.0644  0.3572
  173SAPS   C2219638   4.913   4.018   2.568  1.2674  0.5973  0.0804
  173SAPS   H2R19639   4.875   4.016   2.673 -0.4325  2.8071 -0.4524
  173SAPS   H2S19640   4.994   3.942   2.574  0.8091  0.0736 -0.3142
  173SAPS    C319641   4.767   3.668   2.411 -0.0818  0.8324  1.1971
  173SAPS    HX19642   4.709   3.588   2.360  2.9003 -0.0847 -0.9040
  173SAPS    HY19643   4.689   3.688   2.487 -3.0354  1.9518 -2.0069
  173SAPS   O3119644   4.882   3.603   2.470  0.4647  0.2923 -0.5842
  173SAPS   C3119645   4.934   3.492   2.413 -0.2931 -0.1725  0.0291
  173SAPS   O3219646   4.903   3.438   2.313  0.3526  0.4822 -0.4753
  173SAPS   C3219647   5.048   3.436   2.497 -0.0804  0.2304 -0.2554
  173SAPS   H2X19648   5.138   3.446   2.434 -0.1452 -0.8240 -0.5156
  173SAPS   H2Y19649   5.023   3.328   2.504  0.8712  0.0126 -0.1922
  173SAPS   C2319650   4.959   4.154   2.514  0.0391  0.0078  0.5769
  173SAPS   H3R19651   4.872   4.222   2.525  0.7365  0.6701  2.0860
  173SAPS   H3S19652   4.978   4.160   2.405 -0.0017 -0.6239  0.5311
  173SAPS   C2419653   5.080   4.205   2.584  0.3551 -0.5141  0.0621
  173SAPS   H4R19654   5.076   4.191   2.694  2.3076  1.6608  0.4545
  173SAPS   H4S19655   5.080   4.315   2.569 -0.2703 -0.3502  1.1755
  173SAPS   C2519656   5.198   4.128   2.527  0.0062  0.0758  0.3730
  173SAPS   H5R19657   5.234   4.160   2.428 -3.6322 -0.6580 -1.2393
  173SAPS   C2619658   5.276   4.050   2.607 -0.0593 -0.3020 -0.0105
  173SAPS   H6R19659   5.347   3.986   2.553  0.6529 -0.2081  0.8088
  173SAPS   C2719660   5.254   4.021   2.754  0.1325 -0.3862  0.6381
  173SAPS   H7R19661   5.157   4.056   2.795  0.5522 -0.0554  1.3716
  173SAPS   H7S19662   5.327   4.080   2.814  0.1537  1.8772 -1.5343
  173SAPS   C2819663   5.285   3.885   2.800  0.0894 -0.5764 -0.8208
  173SAPS   H8R19664   5.389   3.859   2.775  0.7542  1.3142 -0.0950
  173SAPS   C2919665   5.213   3.790   2.861  0.2650  0.8647  0.7777
  173SAPS   H9R19666   5.265   3.694   2.872  1.8442  1.7376  1.0015
  173SAPS  C21019667   5.066   3.789   2.908  0.2040  0.0145  0.6847
  173SAPS  H10R19668   5.037   3.689   2.947 -1.8625 -0.2835 -1.5315
  173SAPS  H10S19669   5.011   3.812   2.815  1.9635  1.6183  0.0106
  173SAPS  C21119670   5.053   3.886   3.025 -0.1524 -0.8400 -0.2194
  173SAPS  H11R19671   5.149   3.909   3.075 -0.4346 -0.7861  0.3014
  173SAPS  C21219672   4.941   3.941   3.073 -0.2205  0.3535  0.6203
  173SAPS  H12R19673   4.941   4.015   3.154 -0.3554  0.3423  0.6298
  173SAPS  C21319674   4.798   3.906   3.039 -0.4072  0.6909  0.4054
  173SAPS  H13R19675   4.778   3.917   2.930  1.9734  0.7971 -0.0579
  173SAPS  H13S19676   4.734   3.986   3.082  0.2431  1.7963 -0.6569
  173SAPS  C21419677   4.734   3.776   3.081 -0.3354 -0.6519  0.3889
  173SAPS  H14R19678   4.753   3.741   3.184  1.5447  0.7341  0.5378
  173SAPS  C21519679   4.663   3.694   2.997  0.1041 -0.6401 -0.3592
  173SAPS  H15R19680   4.625   3.595   3.026  0.8806 -0.6274  0.7574
  173SAPS  C21619681   4.628   3.715   2.855 -0.1196 -0.0484  0.0888
  173SAPS  H16R19682   4.609   3.614   2.813  2.6816  0.8987 -3.7102
  173SAPS  H16S19683   4.718   3.737   2.794  0.6590 -0.4611  1.0732
  173SAPS  C21719684   4.508   3.813   2.843  0.5153  0.2802 -0.2940
  173SAPS  H17R19685   4.503   3.835   2.734 -0.6010 -1.4442 -0.6092
  173SAPS  H17S19686   4.522   3.912   2.892 -0.7976  0.3216  0.0226
  173SAPS  C21819687   4.369   3.764   2.889 -0.4540 -0.5002 -0.3890
  173SAPS  H18R19688   4.362   3.763   3.000 -1.0543 -0.6249 -0.4280
  173SAPS  H18S19689   4.370   3.656   2.867 -1.4630 -1.4739  3.8656
  173SAPS  C21919690   4.241   3.819   2.825 -0.9586 -0.4028 -1.2121
  173SAPS  H19R19691   4.271   3.840   2.720 -0.6964  3.2377 -0.5024
  173SAPS  H19S19692   4.220   3.922   2.861  0.3629 -0.2569 -0.8503
  173SAPS  C22019693   4.114   3.729   2.836  0.3694  0.2706  0.5655
  173SAPS  H20R19694   4.129   3.625   2.799  0.6783  0.6718 -0.4583
  173SAPS  H20S19695   4.032   3.759   2.767  1.8040 -0.8806 -1.7274
  173SAPS  H20T19696   4.080   3.714   2.941  1.8040 -0.3227  0.9543
  173SAPS   C3319697   5.059   3.507   2.639  0.3077  0.5341 -0.6539
  173SAPS   H3X19698   5.054   3.618   2.640 -2.4052  0.4507  0.0063
  173SAPS   H3Y19699   5.147   3.467   2.693 -0.8338  0.3702  1.1356
  173SAPS   C3419700   4.943   3.473   2.742  0.4402  0.0297 -0.0005
  173SAPS   H4X19701   4.851   3.526   2.711  0.0025 -0.7731 -0.0824
  173SAPS   H4Y19702   4.966   3.511   2.844 -1.9094 -0.1571  0.6077
  173SAPS   C3519703   4.907   3.327   2.770 -0.8909 -0.1100 -0.1580
  173SAPS   H5X19704   4.998   3.274   2.806 -0.7483  1.1204  1.3279
  173SAPS   H5Y19705   4.862   3.276   2.682 -1.8302 -0.1469  0.3378
  173SAPS   C3619706   4.820   3.302   2.894  0.3061  0.1961 -0.7193
  173SAPS   H6X19707   4.717   3.344   2.888  0.1311 -0.0324  0.7306
  173SAPS   H6Y19708   4.875   3.348   2.979 -0.5609 -1.7178  0.8908
  173SAPS   C3719709   4.809   3.151   2.930 -0.4474 -0.4448 -0.7492
  173SAPS   H7X19710   4.902   3.136   2.989 -1.0562  0.6447  0.5082
  173SAPS   H7Y19711   4.808   3.086   2.840  0.9341  1.3257 -2.0895
  173SAPS   C3819712   4.691   3.123   3.028 -0.0003  0.6561  0.0348
  173SAPS   H8X19713   4.598   3.115   2.968 -1.1944 -0.8473  2.0351
  173SAPS   H8Y19714   4.679   3.209   3.096  1.3542  1.0221 -0.1772
  173SAPS   C3919715   4.697   2.999   3.119  0.3293 -0.5850  0.8166
  173SAPS   H9X19716   4.777   3.018   3.194 -0.3286 -1.5026  1.7644
  173SAPS   H9Y19717   4.727   2.908   3.063  0.1781  0.7629 -1.5033
  173SAPS  C31019718   4.567   2.956   3.190 -0.8885  0.2489  0.0995
  173SAPS  H10X19719   4.498   2.923   3.109  1.1543  1.3038 -2.1654
  173SAPS  H10Y19720   4.527   3.048   3.237 -1.2606  0.4689 -0.6342
  173SAPS  C31119721   4.598   2.857   3.305 -0.3939 -0.0593  0.0180
  173SAPS  H11X19722   4.692   2.895   3.348 -1.0774  2.1384 -0.3502
  173SAPS  H11Y19723   4.619   2.759   3.256  0.2317 -0.1351  0.4363
  173SAPS  C31219724   4.483   2.855   3.407  0.4378 -0.4106  0.6515
  173SAPS  H12X19725   4.469   2.758   3.460 -0.8769 -0.4755  0.2104
  173SAPS  H12Y19726   4.383   2.861   3.359 -0.4235  0.3101  2.5212
  173SAPS  C31319727   4.498   2.971   3.508  0.2453  0.3292  1.0984
  173SAPS  H13X19728   4.470   3.068   3.461 -0.3710 -0.7505 -0.8309
  173SAPS  H13Y19729   4.606   2.979   3.533  0.8420 -1.0762 -0.9339
  173SAPS  C31419730   4.425   2.925   3.632 -0.2299  0.2930 -0.5043
  173SAPS  H14X19731   4.496   2.853   3.677  0.6587 -0.2260 -2.6568
  173SAPS  H14Y19732   4.336   2.866   3.602  0.3752 -0.4326 -0.9045
  173SAPS  C31519733   4.382   3.037   3.725  0.4506 -0.1983  0.1912
  173SAPS  H15X19734   4.302   2.990   3.786 -0.3748  1.2521  0.2483
  173SAPS  H15Y19735   4.330   3.107   3.656 -0.2993 -0.5269  0.4172
  173SAPS  C31619736   4.491   3.097   3.808  0.3315 -0.7628  0.2474
  173SAPS  H16X19737   4.558   3.128   3.725 -1.2478 -1.7391 -1.4420
  173SAPS  H16Y19738   4.531   3.014   3.869  1.5342 -0.8237 -0.6114
  173SAPS  C31719739   4.464   3.216   3.897 -0.6700 -0.4626  0.3336
  173SAPS  H17X19740   4.369   3.204   3.953 -1.0066  1.4430  0.1853
  173SAPS  H17Y19741   4.459   3.310   3.839 -3.5610 -0.5208  0.4291
  173SAPS  C31819742   4.565   3.226   4.015 -0.0195 -0.3568  0.4911
  173SAPS  H18X19743   4.543   3.320   4.071 -1.2261 -1.8865  2.6471
  173SAPS  H18Y19744   4.665   3.219   3.968 -1.0098  0.9060 -1.9522
  173SAPS  H18Z19745   4.563   3.148   4.093  1.0165 -0.9291 -0.0455
  174SAPS     N19746   1.568   3.296   1.906 -0.1617  0.1374  0.0873
  174SAPS   HN119747   1.615   3.384   1.877 -0.3696 -0.6145 -2.6309
  174SAPS   HN219748   1.464   3.300   1.913 -0.0922 -0.9759  2.1295
  174SAPS   HN319749   1.609   3.285   2.001 -0.3022  0.0581  0.1384
  174SAPS   C1219750   1.605   3.188   1.821 -0.3900 -0.4276 -0.4215
  174SAPS  H12A19751   1.572   3.209   1.721  2.4592 -0.6354 -1.4518
  174SAPS   C1319752   1.755   3.163   1.817  0.5323 -0.0933 -0.6999
  174SAPS  O13A19753   1.835   3.216   1.905  0.1749 -0.5310  0.5384
  174SAPS  O13B19754   1.801   3.071   1.739  0.0411 -0.4110  0.1829
  174SAPS   C1119755   1.540   3.062   1.880 -0.3130  0.5717  0.2981
  174SAPS  H11A19756   1.550   3.040   1.988  0.4730  1.8254  0.4923
  174SAPS  H11B19757   1.591   2.978   1.827 -1.2259  0.9410 -1.2043
  174SAPS     P19758   1.273   3.110   1.920 -0.0696 -0.1880  0.0961
  174SAPS   O1319759   1.298   3.258   1.911 -0.6077  0.3898  0.2143
  174SAPS   O1419760   1.147   3.051   1.867  0.4445 -0.5120  0.0852
  174SAPS   O1219761   1.403   3.045   1.842 -0.2125 -0.1462 -0.3360
  174SAPS   O1119762   1.304   3.055   2.065 -0.2940 -0.4883  0.0133
  174SAPS    C119763   1.259   2.926   2.099  0.6109  0.4127 -0.5102
  174SAPS    HA19764   1.151   2.908   2.077  0.4499 -1.6655  1.6950
  174SAPS    HB19765   1.315   2.856   2.034  0.6765  0.0612 -0.0779
  174SAPS    C219766   1.285   2.890   2.248 -0.1459 -0.1949 -0.7087
  174SAPS    HS19767   1.219   2.802   2.264  0.3845 -0.5063 -0.2329
  174SAPS   O2119768   1.239   2.999   2.330  0.0963  0.2445 -0.2747
  174SAPS   C2119769   1.118   3.050   2.326 -1.0429  0.0145  0.0894
  174SAPS   O2219770   1.023   3.000   2.268 -0.0671  0.4092  0.1546
  174SAPS   C2219771   1.127   3.182   2.397  0.0234  0.2883  0.4450
  174SAPS   H2R19772   1.123   3.159   2.506 -0.5499  1.6268  0.7249
  174SAPS   H2S19773   1.228   3.227   2.387  1.4944 -3.3609 -2.1649
  174SAPS    C319774   1.430   2.852   2.283 -0.7864  0.5361 -0.3606
  174SAPS    HX19775   1.494   2.938   2.253 -1.5453  0.9955 -0.6788
  174SAPS    HY19776   1.449   2.776   2.204 -0.5479  0.4445 -0.2138
  174SAPS   O3119777   1.456   2.810   2.416  0.3756 -0.5262  0.0443
  174SAPS   C3119778   1.570   2.746   2.421  0.2683 -0.6265  0.1798
  174SAPS   O3219779   1.646   2.726   2.326  0.6991  0.3422 -0.2717
  174SAPS   C3219780   1.560   2.685   2.561 -0.0164 -1.8572  1.0399
  174SAPS   H2X19781   1.462   2.633   2.572  0.5329 -3.0325  0.4845
  174SAPS   H2Y19782   1.583   2.769   2.629 -0.6851 -0.4292 -0.4586
  174SAPS   C2319783   1.019   3.283   2.346 -0.5413 -0.5411 -0.2519
  174SAPS   H3R19784   0.924   3.227   2.360 -0.4600 -0.5254  0.3397
  174SAPS   H3S19785   1.015   3.307   2.237 -0.9692  1.8559  0.2446
  174SAPS   C2419786   1.004   3.414   2.423 -0.8302  0.1248 -0.0792
  174SAPS   H4R19787   1.015   3.384   2.530  0.2967  1.5452  0.2221
  174SAPS   H4S19788   0.903   3.456   2.407 -1.6054 -1.9268 -0.7536
  174SAPS   C2519789   1.110   3.513   2.381  0.3382 -0.0426 -0.5718
  174SAPS   H5R19790   1.114   3.513   2.271 -1.1739  2.5943 -0.6641
  174SAPS   C2619791   1.196   3.588   2.454  0.1483 -0.3601 -1.5164
  174SAPS   H6R19792   1.274   3.646   2.402  0.5232  0.6133  0.1015
  174SAPS   C2719793   1.208   3.566   2.604 -0.3845  0.0668  0.1181
  174SAPS   H7R19794   1.295   3.501   2.628 -0.7479  0.6649  3.2689
  174SAPS   H7S19795   1.116   3.511   2.634  0.8451 -2.9423 -1.3840
  174SAPS   C2819796   1.216   3.705   2.660  0.8699 -0.4625  0.0193
  174SAPS   H8R19797   1.153   3.774   2.603  0.2664 -1.2117 -0.2416
  174SAPS   C2919798   1.289   3.753   2.758  0.6394  0.4437  0.0277
  174SAPS   H9R19799   1.278   3.858   2.787  1.8090  0.4201  0.6120
  174SAPS  C21019800   1.387   3.674   2.851 -0.3751  0.4497 -0.6126
  174SAPS  H10R19801   1.464   3.743   2.890  0.5739 -0.3571 -1.0607
  174SAPS  H10S19802   1.451   3.603   2.796  1.4816  1.4612  0.2155
  174SAPS  C21119803   1.310   3.599   2.956 -0.2077  0.2484  0.4007
  174SAPS  H11R19804   1.208   3.564   2.933  0.1223 -0.2726 -0.2730
  174SAPS  C21219805   1.352   3.579   3.086 -0.0537 -0.1069 -0.3652
  174SAPS  H12R19806   1.294   3.525   3.162  0.1905  1.3137  0.8526
  174SAPS  C21319807   1.479   3.646   3.131 -0.1374 -0.2573  0.6835
  174SAPS  H13R19808   1.459   3.674   3.237 -0.7944 -4.8944  1.8855
  174SAPS  H13S19809   1.503   3.742   3.080 -1.6586 -0.2288 -0.0154
  174SAPS  C21419810   1.599   3.555   3.128  0.1183 -0.3425 -0.1217
  174SAPS  H14R19811   1.669   3.588   3.050 -0.7991  3.5213  0.6043
  174SAPS  C21519812   1.626   3.446   3.190  0.4497 -0.0162  0.5937
  174SAPS  H15R19813   1.729   3.406   3.187  0.4525 -0.3045  3.2436
  174SAPS  C21619814   1.541   3.382   3.299  0.6048 -0.1308  0.5028
  174SAPS  H16R19815   1.519   3.275   3.280  1.8645 -0.2905 -0.0897
  174SAPS  H16S19816   1.442   3.431   3.288  0.8725  0.6595  1.5278
  174SAPS  C21719817   1.588   3.415   3.445 -0.6157 -0.6684 -0.2921
  174SAPS  H17R19818   1.689   3.373   3.466 -0.0460 -0.4334 -2.4430
  174SAPS  H17S19819   1.514   3.371   3.516 -0.9563 -0.3764 -0.4628
  174SAPS  C21819820   1.608   3.564   3.479 -0.7848  0.1777  1.0374
  174SAPS  H18R19821   1.511   3.613   3.462 -1.9192 -1.5655  2.2790
  174SAPS  H18S19822   1.686   3.598   3.407  0.0293 -2.7056  0.4980
  174SAPS  C21919823   1.643   3.577   3.628  0.4726  0.2742 -0.1015
  174SAPS  H19R19824   1.744   3.530   3.632 -0.0798 -1.0864 -1.8898
  174SAPS  H19S19825   1.574   3.512   3.685  0.9154  0.1789  0.3301
  174SAPS  C22019826   1.633   3.722   3.682 -0.0805 -0.5508  0.2147
  174SAPS  H20R19827   1.631   3.720   3.793  0.6342 -1.4222  0.2237
  174SAPS  H20S19828   1.531   3.755   3.655  0.1513  0.0196  0.0474
  174SAPS  H20T19829   1.711   3.792   3.645 -2.0192  2.4021  1.5396
  174SAPS   C3319830   1.665   2.577   2.575 -0.4827  0.3195 -0.2283
  174SAPS   H3X19831   1.770   2.611   2.558  0.1890 -0.3257  2.3949
  174SAPS   H3Y19832   1.631   2.509   2.494 -0.8564  0.5163 -0.2369
  174SAPS   C3419833   1.663   2.507   2.711  0.3891  0.2213  0.8427
  174SAPS   H4X19834   1.728   2.417   2.705 -0.0331 -0.2814  3.1094
  174SAPS   H4Y19835   1.558   2.473   2.724  1.0622 -1.5437  1.8278
  174SAPS   C3519836   1.716   2.570   2.836  0.2305 -0.3371 -0.4307
  174SAPS   H5X19837   1.677   2.674   2.835 -0.0165 -0.3470  2.6202
  174SAPS   H5Y19838   1.827   2.567   2.831  0.3175 -0.4640  1.2432
  174SAPS   C3619839   1.655   2.487   2.952  0.3209  0.3023  0.2780
  174SAPS   H6X19840   1.684   2.385   2.919 -1.2262  0.3218 -1.2611
  174SAPS   H6Y19841   1.545   2.505   2.954 -0.2469 -2.9871  2.6868
  174SAPS   C3719842   1.703   2.508   3.090 -0.0068  0.4814  0.0985
  174SAPS   H7X19843   1.698   2.612   3.128  0.2897  0.7228 -0.5167
  174SAPS   H7Y19844   1.807   2.469   3.083 -0.1112  0.3864 -1.1024
  174SAPS   C3819845   1.627   2.416   3.193 -0.1173 -0.2597  0.6640
  174SAPS   H8X19846   1.656   2.313   3.162 -1.5685  0.0761 -1.8610
  174SAPS   H8Y19847   1.517   2.428   3.201  0.0094  1.2067  0.3487
  174SAPS   C3919848   1.688   2.433   3.339 -0.0381 -1.0094  0.5241
  174SAPS   H9X19849   1.697   2.543   3.356  2.1773 -1.1033  0.0540
  174SAPS   H9Y19850   1.792   2.395   3.339 -0.6904 -2.9433 -1.8136
  174SAPS  C31019851   1.600   2.380   3.449 -0.3758  0.5836 -0.5182
  174SAPS  H10X19852   1.605   2.269   3.442 -1.3507  0.1063  4.2296
  174SAPS  H10Y19853   1.492   2.403   3.440 -0.7775 -0.2973  1.7313
  174SAPS  C31119854   1.661   2.420   3.589  0.2181 -0.0482 -0.0913
  174SAPS  H11X19855   1.649   2.528   3.613  0.2719 -0.0543 -0.0346
  174SAPS  H11Y19856   1.769   2.393   3.582  0.0749 -0.7717  0.3718
  174SAPS  C31219857   1.607   2.332   3.700  0.2429  0.1645  0.5216
  174SAPS  H12X19858   1.665   2.237   3.696 -0.1084 -0.0515  0.5261
  174SAPS  H12Y19859   1.498   2.313   3.685  0.3347 -0.6266  0.8145
  174SAPS  C31319860   1.640   2.385   3.842  0.1751 -0.2530 -0.2498
  174SAPS  H13X19861   1.599   2.488   3.848  1.1086  0.0169  1.6794
  174SAPS  H13Y19862   1.749   2.384   3.865  0.4986 -1.7473 -1.7312
  174SAPS  C31419863   1.552   2.309   3.949  0.1808  0.5375  0.1241
  174SAPS  H14X19864   1.609   2.216   3.971  0.2925  0.3918 -0.7619
  174SAPS  H14Y19865   1.458   2.280   3.899  1.2524 -0.4201 -1.3664
  174SAPS  C31519866   1.513   2.385   4.074 -0.1965  0.1081 -0.3116
  174SAPS  H15X19867   1.452   2.329   4.148 -1.6308  1.0112 -0.7892
  174SAPS  H15Y19868   1.451   2.473   4.047 -1.3831 -0.1836  1.3419
  174SAPS  C31619869   1.634   2.435   4.152  0.2081 -0.2120  0.4118
  174SAPS  H16X19870   1.717   2.461   4.084  0.3667  1.5952  1.2601
  174SAPS  H16Y19871   1.667   2.350   4.215  0.1442 -0.0865  0.6152
  174SAPS  C31719872   1.597   2.556   4.232  0.5412  0.2021  0.0441
  174SAPS  H17X19873   1.505   2.523   4.285  0.8481  0.0242  0.4741
  174SAPS  H17Y19874   1.564   2.641   4.170 -2.2709  0.2658  1.5410
  174SAPS  C31819875   1.707   2.608   4.324 -0.3167  0.3823 -0.3295
  174SAPS  H18X19876   1.666   2.672   4.405 -2.4158  0.8054 -1.6790
  174SAPS  H18Y19877   1.783   2.665   4.267 -0.1653 -0.0399 -0.5521
  174SAPS  H18Z19878   1.762   2.524   4.372 -1.6871 -0.6262 -0.4676
  175SAPS     N19879   5.023   1.837   2.146 -0.7623  0.8546 -0.0106
  175SAPS   HN119880   5.021   1.742   2.190  0.5784 -0.1339 -1.9944
  175SAPS   HN219881   5.054   1.908   2.216 -1.1633  0.4749  0.5592
  175SAPS   HN319882   4.935   1.867   2.101 -0.5830  0.2758 -0.7676
  175SAPS   C1219883   5.112   1.840   2.027 -0.1129  0.5955 -0.5756
  175SAPS  H12A19884   5.191   1.767   2.034 -1.8672 -1.2246  0.5830
  175SAPS   C1319885   5.041   1.821   1.885  0.2979 -0.7348 -0.5624
  175SAPS  O13A19886   4.922   1.778   1.888 -0.8960 -0.0166  0.2315
  175SAPS  O13B19887   5.111   1.812   1.782 -0.1613  0.8846  0.3647
  175SAPS   C1119888   5.187   1.972   2.020 -0.0079  0.4347 -0.9932
  175SAPS  H11A19889   5.122   2.050   1.975  0.6610  0.5158 -1.8318
  175SAPS  H11B19890   5.275   1.960   1.953 -0.2373 -0.6112 -1.1243
  175SAPS     P19891   5.294   2.158   2.181 -0.0322  0.1209  0.2600
  175SAPS   O1319892   5.409   2.146   2.267 -0.6064 -0.2166  0.5594
  175SAPS   O1419893   5.313   2.227   2.052 -0.3992  0.5304  0.4910
  175SAPS   O1219894   5.234   2.016   2.154 -0.2441  0.1006  0.3039
  175SAPS   O1119895   5.166   2.218   2.252 -0.6774 -0.1913 -0.5533
  175SAPS    C119896   5.140   2.201   2.391 -1.0384  0.4045 -0.6258
  175SAPS    HA19897   5.175   2.103   2.431 -0.9841 -0.1087 -1.8866
  175SAPS    HB19898   5.188   2.289   2.439 -1.3630  0.2657 -0.0480
  175SAPS    C219899   4.984   2.202   2.429 -0.6404 -0.4330  0.3521
  175SAPS    HS19900   4.951   2.301   2.391 -0.3273 -0.8671 -1.0758
  175SAPS   O2119901   4.976   2.180   2.575  0.1828 -0.5800 -0.1191
  175SAPS   C2119902   4.853   2.228   2.612  0.0932  0.2055 -0.3523
  175SAPS   O2219903   4.771   2.277   2.538 -0.5297  0.1424  0.4843
  175SAPS   C2219904   4.831   2.212   2.767 -0.3764 -0.0936 -0.5014
  175SAPS   H2R19905   4.791   2.311   2.796  1.4493  0.5283 -0.0885
  175SAPS   H2S19906   4.756   2.133   2.790 -1.7242  1.3288  0.0704
  175SAPS    C319907   4.913   2.080   2.355 -0.3215 -0.3203 -0.5292
  175SAPS    HX19908   4.927   2.090   2.246  1.1926 -1.1745 -0.4260
  175SAPS    HY19909   4.803   2.085   2.371  0.0653  3.6071  1.5991
  175SAPS   O3119910   4.964   1.950   2.401 -0.2389  0.7291  0.5819
  175SAPS   C3119911   4.905   1.891   2.503  0.6078 -0.3059  0.1614
  175SAPS   O3219912   4.801   1.932   2.554  0.7655  0.3405 -0.1528
  175SAPS   C3219913   4.980   1.775   2.559 -0.0620  0.5930  0.3307
  175SAPS   H2X19914   5.087   1.800   2.580  0.2152 -1.6312  1.7077
  175SAPS   H2Y19915   4.985   1.686   2.494 -2.4969  0.4725  0.2805
  175SAPS   C2319916   4.950   2.199   2.858  0.4003  0.7185  0.1973
  175SAPS   H3R19917   5.034   2.265   2.825  0.4788  1.4030  1.7153
  175SAPS   H3S19918   4.978   2.092   2.861 -1.0859  0.2242 -2.1175
  175SAPS   C2419919   4.903   2.242   3.001 -0.0333  0.2168 -0.1034
  175SAPS   H4R19920   4.843   2.336   2.999  0.4648  0.5338 -0.0550
  175SAPS   H4S19921   4.995   2.253   3.061  0.6738 -1.3949 -0.8587
  175SAPS   C2519922   4.809   2.143   3.065  0.3655  0.2602 -0.7089
  175SAPS   H5R19923   4.707   2.148   3.023 -0.6817  0.0352  1.6853
  175SAPS   C2619924   4.837   2.068   3.179  0.4931 -0.0863 -0.5401
  175SAPS   H6R19925   4.762   1.994   3.213  0.3016 -0.1720 -1.1385
  175SAPS   C2719926   4.965   2.063   3.255  0.3844 -0.2545  0.5015
  175SAPS   H7R19927   5.047   2.133   3.228 -0.2983  0.8244  1.1821
  175SAPS   H7S19928   5.004   1.960   3.246 -1.2112 -0.6938 -1.8992
  175SAPS   C2819929   4.946   2.097   3.400 -0.2910 -0.0180 -0.9617
  175SAPS   H8R19930   4.855   2.152   3.429 -0.9379 -1.6358  0.1745
  175SAPS   C2919931   5.034   2.070   3.499  0.6305  0.4616  0.0541
  175SAPS   H9R19932   5.004   2.099   3.601 -1.5826  1.0133 -0.7136
  175SAPS  C21019933   5.167   2.000   3.495  1.0767 -0.4765 -0.2634
  175SAPS  H10R19934   5.251   2.064   3.530  1.5921 -1.2170 -0.1440
  175SAPS  H10S19935   5.211   1.997   3.393 -0.0971 -0.4284 -0.7812
  175SAPS  C21119936   5.162   1.868   3.564  0.5950 -0.5215  0.3557
  175SAPS  H11R19937   5.083   1.801   3.528  1.4167 -1.7668  0.8207
  175SAPS  C21219938   5.219   1.827   3.678 -0.5787  0.2394  0.4092
  175SAPS  H12R19939   5.202   1.724   3.713 -2.2955 -0.4499 -2.2749
  175SAPS  C21319940   5.304   1.912   3.771 -0.0704  0.5153 -0.1090
  175SAPS  H13R19941   5.230   1.936   3.851  0.7609 -0.1505  0.8677
  175SAPS  H13S19942   5.329   2.007   3.721  0.5670 -0.3018 -1.3417
  175SAPS  C21419943   5.423   1.833   3.839 -0.3459 -0.5022  0.6539
  175SAPS  H14R19944   5.486   1.785   3.763 -1.5185 -1.6361  0.3646
  175SAPS  C21519945   5.452   1.811   3.971  0.4344  0.2566 -0.2531
  175SAPS  H15R19946   5.545   1.762   4.004 -0.3039 -2.1464 -1.6896
  175SAPS  C21619947   5.377   1.872   4.086  0.6510  0.2539  0.5319
  175SAPS  H16R19948   5.350   1.794   4.160 -1.0128  0.9389  0.6513
  175SAPS  H16S19949   5.280   1.913   4.052  1.1268  2.0319  1.2278
  175SAPS  C21719950   5.462   1.973   4.162  0.8381 -0.2885  0.2013
  175SAPS  H17R19951   5.393   2.013   4.240  1.1222  2.0215 -0.6728
  175SAPS  H17S19952   5.498   2.060   4.103 -0.0711 -0.3927 -0.5070
  175SAPS  C21819953   5.579   1.898   4.235  0.1968  0.0507 -0.0199
  175SAPS  H18R19954   5.668   1.896   4.169 -0.1680  0.9735 -0.5607
  175SAPS  H18S19955   5.545   1.801   4.275  0.0401  0.3188  0.5046
  175SAPS  C21919956   5.619   1.989   4.351 -0.5423 -0.6831 -0.2634
  175SAPS  H19R19957   5.531   2.037   4.400  1.0483  0.9482  1.1018
  175SAPS  H19S19958   5.676   2.078   4.315 -3.0591  1.5520  1.0917
  175SAPS  C22019959   5.704   1.908   4.452  0.1387 -0.0520 -0.0547
  175SAPS  H20R19960   5.721   1.970   4.542 -0.5333 -2.0719  1.4956
  175SAPS  H20S19961   5.800   1.879   4.403 -0.4250 -3.2041  0.5989
  175SAPS  H20T19962   5.649   1.821   4.493 -0.1092 -1.2643 -2.8233
  175SAPS   C3319963   4.927   1.731   2.704  0.6721  0.3523  0.5936
  175SAPS   H3X19964   4.820   1.705   2.692  0.7015  0.5729 -0.1812
  175SAPS   H3Y19965   4.944   1.818   2.772 -0.0153  0.8653  0.1117
  175SAPS   C3419966   4.990   1.606   2.761  0.0899 -0.0670 -0.4581
  175SAPS   H4X19967   4.958   1.522   2.697  0.6748 -0.0246 -0.8152
  175SAPS   H4Y19968   4.957   1.588   2.866 -0.6186  0.4703 -0.5876
  175SAPS   C3519969   5.146   1.606   2.760 -0.0464  0.2566  0.8148
  175SAPS   H5X19970   5.176   1.707   2.796  1.5959 -0.3350  1.1298
  175SAPS   H5Y19971   5.194   1.587   2.662 -2.8878 -0.2235 -0.5260
  175SAPS   C3619972   5.200   1.495   2.858  0.2666 -0.0864  0.2366
  175SAPS   H6X19973   5.148   1.399   2.835 -0.5683 -0.0228  1.7700
  175SAPS   H6Y19974   5.177   1.524   2.963 -2.9970 -0.4774 -0.3023
  175SAPS   C3719975   5.353   1.472   2.857  0.3258 -0.2010  0.0591
  175SAPS   H7X19976   5.393   1.576   2.860 -2.1225  0.7816  0.0077
  175SAPS   H7Y19977   5.382   1.442   2.755 -0.4768 -1.6558  0.2564
  175SAPS   C3819978   5.412   1.389   2.972  0.1278  0.0754 -0.0347
  175SAPS   H8X19979   5.344   1.388   3.060  0.9178 -2.0826  0.5818
  175SAPS   H8Y19980   5.502   1.441   3.010  0.7610  1.4003 -3.2515
  175SAPS   C3919981   5.455   1.243   2.939 -0.6551 -0.2828 -0.4781
  175SAPS   H9X19982   5.499   1.244   2.837  0.7368  0.5845  0.1231
  175SAPS   H9Y19983   5.371   1.170   2.939 -1.7946  0.9958 -0.6784
  175SAPS  C31019984   5.577   1.203   3.022 -1.0011 -0.3948  0.2449
  175SAPS  H10X19985   5.644   1.292   3.029 -2.7141  1.0135 -0.7854
  175SAPS  H10Y19986   5.643   1.131   2.970 -0.1619  0.5384  0.0114
  175SAPS  C31119987   5.554   1.149   3.167  0.5999  0.2602  0.5445
  175SAPS  H11X19988   5.486   1.062   3.155  2.6017 -1.6680  2.5466
  175SAPS  H11Y19989   5.496   1.219   3.230  2.0939  1.0851  1.0253
  175SAPS  C31219990   5.679   1.115   3.246 -0.6464 -0.0004 -0.6381
  175SAPS  H12X19991   5.749   1.201   3.249 -0.3410 -0.2755  0.2472
  175SAPS  H12Y19992   5.734   1.034   3.193 -0.2182 -0.7170  0.8565
  175SAPS  C31319993   5.636   1.050   3.387 -0.2632 -0.2472  0.3133
  175SAPS  H13X19994   5.561   0.978   3.349  0.5043 -0.2745 -1.1948
  175SAPS  H13Y19995   5.588   1.139   3.433  0.6669  1.1707 -1.3962
  175SAPS  C31419996   5.745   0.996   3.469  0.4690 -0.1852 -0.3300
  175SAPS  H14X19997   5.774   0.891   3.447 -0.6509 -0.5918  0.1060
  175SAPS  H14Y19998   5.713   0.985   3.575  0.0979 -0.8983 -0.5112
  175SAPS  C31519999   5.876   1.080   3.460  0.2340  0.5557 -0.1431
  175SAPS  H15X20000   5.850   1.181   3.498  0.1452 -0.7185  3.4143
  175SAPS  H15Y20001   5.902   1.102   3.354 -1.6624  0.6423 -0.6152
  175SAPS  C31620002   5.991   1.036   3.542 -0.7634  0.4247 -0.0228
  175SAPS  H16X20003   5.958   1.021   3.647 -1.5365  2.0615 -0.0137
  175SAPS  H16Y20004   6.072   1.112   3.543 -0.5062  0.2054 -2.2918
  175SAPS  C31720005   6.057   0.907   3.512 -0.1187 -0.1422  0.1640
  175SAPS  H17X20006   6.081   0.898   3.404  0.0849 -0.3362  0.2269
  175SAPS  H17Y20007   5.974   0.833   3.513  0.7631 -1.1508 -0.4017
  175SAPS  C31820008   6.164   0.853   3.600 -0.5358 -0.2073 -0.4218
  175SAPS  H18X20009   6.243   0.931   3.612 -1.4350  0.6771 -0.1345
  175SAPS  H18Y20010   6.212   0.764   3.556 -1.2605 -0.4886 -0.6426
  175SAPS  H18Z20011   6.125   0.827   3.701  4.0579 -2.9464  0.8064
  176SAPS     N20012   3.398   1.026   1.999  0.3405  0.3198 -0.3926
  176SAPS   HN120013   3.455   1.040   2.085 -0.4938  2.8200 -0.2166
  176SAPS   HN220014   3.394   0.924   1.978  0.1703  0.3683 -0.6007
  176SAPS   HN320015   3.446   1.074   1.920  0.4517  0.4749 -0.2294
  176SAPS   C1220016   3.264   1.077   2.028 -0.0213  0.1525  0.0006
  176SAPS  H12A20017   3.273   1.154   2.103 -2.3083 -1.1715  1.7032
  176SAPS   C1320018   3.202   1.126   1.897  0.3321  0.1074  0.0607
  176SAPS  O13A20019   3.260   1.083   1.788 -0.5752 -0.8874 -0.4389
  176SAPS  O13B20020   3.114   1.218   1.891 -0.9168 -0.4378  0.1715
  176SAPS   C1120021   3.169   0.967   2.093 -0.4252 -0.1734  0.5219
  176SAPS  H11A20022   3.074   1.019   2.120 -0.4083 -0.2233  0.6778
  176SAPS  H11B20023   3.225   0.954   2.188  0.6636  0.9260  0.0484
  176SAPS     P20024   3.218   0.705   2.031  0.2928  0.3027  0.5755
  176SAPS   O1320025   3.177   0.611   1.929 -0.4350 -0.0391  0.1038
  176SAPS   O1420026   3.363   0.752   2.022  0.1732 -0.1519 -0.4741
  176SAPS   O1220027   3.133   0.843   2.022  0.0093  0.4532  0.2906
  176SAPS   O1120028   3.191   0.648   2.175 -0.1295  0.2590  0.2001
  176SAPS    C120029   3.085   0.680   2.257 -0.5331 -0.1420  0.1323
  176SAPS    HA20030   3.119   0.666   2.362  0.2825  0.9436  0.0251
  176SAPS    HB20031   3.047   0.785   2.252  0.6303  0.3817  2.0128
  176SAPS    C220032   2.971   0.564   2.243  0.1321 -0.1768 -0.4101
  176SAPS    HS20033   2.912   0.596   2.155 -0.8367 -1.4420 -0.2211
  176SAPS   O2120034   2.879   0.548   2.359 -0.2807  0.7351 -0.9587
  176SAPS   C2120035   2.836   0.661   2.414 -0.0272 -0.3909 -0.1477
  176SAPS   O2220036   2.836   0.769   2.367  0.0803 -0.1687  0.2884
  176SAPS   C2220037   2.761   0.618   2.543  0.8988  0.7486  1.1536
  176SAPS   H2R20038   2.770   0.510   2.567  0.9720  0.3992 -0.4171
  176SAPS   H2S20039   2.800   0.679   2.628 -0.2409  0.8342  1.6331
  176SAPS    C320040   3.040   0.427   2.224  1.1327 -0.3906  0.0766
  176SAPS    HX20041   3.102   0.441   2.133  1.4239  1.5485  0.5530
  176SAPS    HY20042   2.966   0.345   2.207  3.7025 -3.0452  1.2202
  176SAPS   O3120043   3.120   0.400   2.338  0.4789 -0.6999 -0.4481
  176SAPS   C3120044   3.252   0.371   2.312  0.0825 -0.4307  0.6059
  176SAPS   O3220045   3.302   0.353   2.202 -0.5931 -0.4304 -0.0130
  176SAPS   C3220046   3.335   0.364   2.439  0.4052 -0.2675 -0.2464
  176SAPS   H2X20047   3.265   0.390   2.521 -3.2677 -1.0180 -2.9942
  176SAPS   H2Y20048   3.415   0.439   2.428  1.6966 -1.5529  0.2563
  176SAPS   C2320049   2.606   0.661   2.527  0.5018 -0.7323  0.9634
  176SAPS   H3R20050   2.569   0.574   2.469 -1.2799  1.2968 -1.0565
  176SAPS   H3S20051   2.594   0.748   2.459  0.1430 -1.5556 -0.0502
  176SAPS   C2420052   2.537   0.671   2.665  0.2470 -0.2251  0.0426
  176SAPS   H4R20053   2.439   0.722   2.649  0.3404 -0.0805 -0.0809
  176SAPS   H4S20054   2.591   0.742   2.732 -0.7580  0.0751  0.5402
  176SAPS   C2520055   2.528   0.535   2.721  0.1008  0.3816  0.5585
  176SAPS   H5R20056   2.466   0.468   2.659  0.6741  0.6584 -0.3167
  176SAPS   C2620057   2.606   0.486   2.826  0.9617 -0.0094  0.5928
  176SAPS   H6R20058   2.601   0.380   2.854  0.4634 -0.1475 -0.0206
  176SAPS   C2720059   2.720   0.548   2.902 -1.1201  0.4479  0.7448
  176SAPS   H7R20060   2.682   0.577   3.002  0.4220  1.0388  1.1718
  176SAPS   H7S20061   2.748   0.646   2.858 -0.3450 -0.0742  0.0715
  176SAPS   C2820062   2.846   0.463   2.931 -0.2941 -0.5560 -0.5661
  176SAPS   H8R20063   2.911   0.447   2.844 -0.9890 -0.2188 -1.1585
  176SAPS   C2920064   2.887   0.409   3.048  0.3114 -0.3420  0.2027
  176SAPS   H9R20065   2.990   0.372   3.052  0.4153 -0.2477 -1.1202
  176SAPS  C21020066   2.825   0.436   3.182  0.0784  0.1745 -0.6666
  176SAPS  H10R20067   2.790   0.539   3.200 -3.0803 -0.5327 -2.2730
  176SAPS  H10S20068   2.905   0.426   3.258  1.2835 -2.2439 -2.1667
  176SAPS  C21120069   2.699   0.349   3.207 -0.0236  0.5345 -0.1201
  176SAPS  H11R20070   2.669   0.289   3.120 -0.5941  0.3368  0.2150
  176SAPS  C21220071   2.621   0.350   3.320 -0.3459  0.1023 -0.2415
  176SAPS  H12R20072   2.549   0.267   3.332  0.4391 -0.5062  0.3353
  176SAPS  C21320073   2.653   0.435   3.444 -0.4811 -0.1046  0.4002
  176SAPS  H13R20074   2.762   0.438   3.466 -0.9766 -0.4107  3.1083
  176SAPS  H13S20075   2.614   0.375   3.529 -1.0200 -1.5549 -0.8514
  176SAPS  C21420076   2.589   0.571   3.451 -0.1615  0.1952 -0.0342
  176SAPS  H14R20077   2.579   0.609   3.349 -0.2406  1.2925  0.3807
  176SAPS  C21520078   2.553   0.652   3.555 -0.2221 -0.5004 -0.1537
  176SAPS  H15R20079   2.497   0.746   3.540  0.6380 -0.1890 -1.5271
  176SAPS  C21620080   2.570   0.628   3.700  0.6598  0.0283  0.3263
  176SAPS  H16R20081   2.630   0.716   3.734  0.3498  0.4542 -0.2268
  176SAPS  H16S20082   2.634   0.540   3.725 -1.3430 -1.6424 -0.3682
  176SAPS  C21720083   2.437   0.624   3.779 -0.0381 -0.1146  0.6483
  176SAPS  H17R20084   2.384   0.722   3.774 -0.1369 -0.2197 -0.4376
  176SAPS  H17S20085   2.459   0.616   3.888 -0.8483 -1.4487  0.7298
  176SAPS  C21820086   2.337   0.521   3.732  0.5315  0.0906  0.1527
  176SAPS  H18R20087   2.344   0.434   3.801 -1.4809  1.5121  2.2394
  176SAPS  H18S20088   2.377   0.486   3.635  1.5825 -0.5119  0.8000
  176SAPS  C21920089   2.188   0.559   3.720 -0.2268  0.4042  0.3153
  176SAPS  H19R20090   2.154   0.603   3.816  2.5840  0.9549  1.1156
  176SAPS  H19S20091   2.125   0.471   3.695 -1.1543  1.5555 -1.4816
  176SAPS  C22020092   2.157   0.675   3.622 -0.3253  0.0826 -0.0081
  176SAPS  H20R20093   2.216   0.675   3.528 -1.2685 -1.0177 -0.6101
  176SAPS  H20S20094   2.177   0.774   3.668  2.0758 -0.4758  0.1973
  176SAPS  H20T20095   2.051   0.663   3.590 -0.2470 -0.6985  0.0158
  176SAPS   C3320096   3.380   0.226   2.466 -0.5002 -0.1364 -1.1261
  176SAPS   H3X20097   3.451   0.203   2.384  2.5092  1.7108  0.8691
  176SAPS   H3Y20098   3.303   0.146   2.459  0.1458 -1.0367  1.4239
  176SAPS   C3420099   3.472   0.206   2.588 -0.1538 -0.5197 -0.1388
  176SAPS   H4X20100   3.562   0.268   2.568 -0.8471  1.2441  1.9523
  176SAPS   H4Y20101   3.497   0.100   2.608 -2.1536 -0.4923  2.7743
  176SAPS   C3520102   3.413   0.264   2.716 -0.6155 -0.7796 -0.6526
  176SAPS   H5X20103   3.320   0.212   2.748  0.4495  0.0513  4.2024
  176SAPS   H5Y20104   3.393   0.372   2.702  2.8292 -0.1041 -0.7921
  176SAPS   C3620105   3.514   0.250   2.835 -0.2658  0.1246  0.3038
  176SAPS   H6X20106   3.600   0.318   2.818  0.6047 -1.7263 -3.1773
  176SAPS   H6Y20107   3.571   0.156   2.818 -0.1562  0.7566 -3.1392
  176SAPS   C3720108   3.457   0.270   2.973  0.1732 -0.2660  0.1053
  176SAPS   H7X20109   3.531   0.261   3.055 -0.8956 -1.8629  0.9065
  176SAPS   H7Y20110   3.394   0.181   2.991 -0.7308  0.5284  0.9176
  176SAPS   C3820111   3.399   0.410   2.983 -0.2351 -0.1785  0.5792
  176SAPS   H8X20112   3.309   0.432   2.922 -0.4940 -2.0628  0.2373
  176SAPS   H8Y20113   3.472   0.481   2.939 -1.2039 -1.2389 -2.9356
  176SAPS   C3920114   3.374   0.463   3.121  0.0194  0.3282  0.0584
  176SAPS   H9X20115   3.458   0.427   3.185 -1.1866 -0.6138  1.1491
  176SAPS   H9Y20116   3.286   0.412   3.165  0.4929 -0.0966  0.5303
  176SAPS  C31020117   3.364   0.612   3.134 -0.0274 -0.5499  0.2787
  176SAPS  H10X20118   3.297   0.658   3.057 -0.4611 -0.5719  0.6425
  176SAPS  H10Y20119   3.464   0.659   3.122  0.2822 -1.8023 -2.5609
  176SAPS  C31120120   3.325   0.664   3.270 -0.0702 -0.3684  0.8329
  176SAPS  H11X20121   3.385   0.607   3.345  3.4658  1.6816 -0.3169
  176SAPS  H11Y20122   3.221   0.632   3.293 -0.5481  0.1829 -0.5262
  176SAPS  C31220123   3.347   0.817   3.280  1.4370 -0.5247  0.8851
  176SAPS  H12X20124   3.281   0.861   3.202  1.7914 -0.1474  0.7970
  176SAPS  H12Y20125   3.453   0.840   3.254  0.4747  1.9007 -1.1035
  176SAPS  C31320126   3.327   0.871   3.426  0.1955  0.3809  0.1989
  176SAPS  H13X20127   3.392   0.818   3.499 -0.9105  0.2339  1.0877
  176SAPS  H13Y20128   3.222   0.849   3.455  0.6170  1.0681  2.3659
  176SAPS  C31420129   3.346   1.025   3.441  0.5640 -0.0018 -0.4773
  176SAPS  H14X20130   3.288   1.061   3.354  0.1664 -0.0670 -0.2391
  176SAPS  H14Y20131   3.455   1.040   3.427  0.3285  1.6765 -0.5633
  176SAPS  C31520132   3.298   1.084   3.568  0.9245 -0.7850 -0.5315
  176SAPS  H15X20133   3.328   1.027   3.659 -2.1136 -1.3633  0.1487
  176SAPS  H15Y20134   3.187   1.083   3.564  0.7931  2.5483  0.6909
  176SAPS  C31620135   3.336   1.234   3.587  0.2987  0.5830 -0.0045
  176SAPS  H16X20136   3.266   1.292   3.522  0.1339  0.8148  0.3769
  176SAPS  H16Y20137   3.442   1.253   3.557  1.5622 -3.8755  1.3647
  176SAPS  C31720138   3.308   1.285   3.732 -0.2081 -0.0657  0.0268
  176SAPS  H17X20139   3.210   1.238   3.752 -0.6798  1.7024  1.9533
  176SAPS  H17Y20140   3.302   1.395   3.726  1.2682  0.0327  0.1387
  176SAPS  C31820141   3.411   1.256   3.845  0.1910  0.1889 -0.2122
  176SAPS  H18X20142   3.381   1.288   3.947 -3.1727 -1.2205 -0.6918
  176SAPS  H18Y20143   3.508   1.306   3.822  0.4191  0.7815  1.9175
  176SAPS  H18Z20144   3.430   1.147   3.852  0.6666  0.3827  1.8359
  177SAPS     N20145   0.282   2.578   2.323 -0.0090 -0.4006 -0.7795
  177SAPS   HN120146   0.310   2.675   2.301  0.0346  0.3608  2.3458
  177SAPS   HN220147   0.216   2.587   2.403 -1.1146 -2.1074 -1.4767
  177SAPS   HN320148   0.361   2.520   2.357 -0.2851 -0.4927 -0.2849
  177SAPS   C1220149   0.213   2.503   2.209 -0.3561  0.3814  0.1938
  177SAPS  H12A20150   0.133   2.573   2.187 -0.4623 -0.3841 -2.0331
  177SAPS   C1320151   0.309   2.477   2.087  0.4690  0.2722 -0.7296
  177SAPS  O13A20152   0.418   2.535   2.090 -0.5466 -0.3444 -0.5086
  177SAPS  O13B20153   0.263   2.437   1.978 -0.1842 -0.0166  0.1055
  177SAPS   C1120154   0.143   2.363   2.249 -0.2186 -0.2723  0.0688
  177SAPS  H11A20155   0.125   2.357   2.358  0.4282 -2.6592  0.0583
  177SAPS  H11B20156   0.214   2.281   2.226 -0.5807 -0.3135 -0.9377
  177SAPS     P20157  -0.033   2.220   2.143  0.3222 -0.3866 -0.1848
  177SAPS   O1320158  -0.180   2.233   2.121  0.3062 -0.3646  0.1562
  177SAPS   O1420159   0.041   2.157   2.031 -0.5502  0.3850  0.0504
  177SAPS   O1220160   0.022   2.358   2.177  0.3759 -0.1948  0.1060
  177SAPS   O1120161  -0.019   2.131   2.273  0.3394  0.6545 -0.3324
  177SAPS    C120162  -0.075   2.170   2.400  0.8824  0.1019  0.6157
  177SAPS    HA20163   0.008   2.192   2.470  1.7889  0.9545 -0.7158
  177SAPS    HB20164  -0.131   2.266   2.401 -0.2012 -0.4792 -1.6878
  177SAPS    C220165  -0.167   2.047   2.440 -0.0978 -0.3432  0.3753
  177SAPS    HS20166  -0.240   2.028   2.358  1.9672 -1.1665 -1.3130
  177SAPS   O2120167  -0.230   2.091   2.566 -0.3975  0.0282 -0.3652
  177SAPS   C2120168  -0.336   2.016   2.590 -0.0095 -0.4148  0.2595
  177SAPS   O2220169  -0.386   1.934   2.510 -0.0748 -0.1365 -0.1421
  177SAPS   C2220170  -0.379   2.038   2.733 -0.2614 -0.3515 -0.1207
  177SAPS   H2R20171  -0.289   2.058   2.795  0.5433  1.4847 -1.8099
  177SAPS   H2S20172  -0.422   2.140   2.740  0.2452 -0.1888  0.7153
  177SAPS    C320173  -0.084   1.912   2.465 -0.1392  0.5577 -0.1275
  177SAPS    HX20174  -0.039   1.879   2.369 -0.6533  0.8249 -0.4607
  177SAPS    HY20175  -0.156   1.830   2.487  1.6062 -0.6743  1.0846
  177SAPS   O3120176   0.026   1.933   2.558 -0.1215  0.2278  0.5254
  177SAPS   C3120177  -0.000   1.908   2.686 -0.0569  0.3056  0.3663
  177SAPS   O3220178  -0.108   1.865   2.726 -0.1611 -0.3973  0.1392
  177SAPS   C3220179   0.117   1.948   2.777  0.2580  0.2472 -0.5463
  177SAPS   H2X20180   0.148   2.053   2.759  0.9239 -0.1288 -1.6752
  177SAPS   H2Y20181   0.203   1.885   2.746  1.4832  0.8081  1.6179
  177SAPS   C2320182  -0.472   1.924   2.794  0.8018 -0.1785  0.6629
  177SAPS   H3R20183  -0.425   1.824   2.783  0.1074 -0.1888 -2.6155
  177SAPS   H3S20184  -0.564   1.920   2.732  0.4088  0.6522  1.1933
  177SAPS   C2420185  -0.503   1.937   2.945 -0.6191  0.0944 -0.2031
  177SAPS   H4R20186  -0.570   1.854   2.976 -1.5335  1.0294  0.3534
  177SAPS   H4S20187  -0.557   2.034   2.945 -2.0586 -0.6870  0.6538
  177SAPS   C2520188  -0.380   1.949   3.031 -0.2953 -0.6328 -0.4454
  177SAPS   H5R20189  -0.339   2.051   3.032 -0.7897 -0.4372  0.3127
  177SAPS   C2620190  -0.325   1.859   3.110 -0.6135  0.7565 -0.4591
  177SAPS   H6R20191  -0.237   1.886   3.170  0.3592 -0.3337 -1.3638
  177SAPS   C2720192  -0.386   1.725   3.140  1.1837 -0.1030  0.3577
  177SAPS   H7R20193  -0.358   1.659   3.055 -1.7719 -1.8281  0.6554
  177SAPS   H7S20194  -0.497   1.735   3.140  1.3214  1.5905  1.1583
  177SAPS   C2820195  -0.335   1.664   3.270 -0.2199  0.1984 -0.9770
  177SAPS   H8R20196  -0.238   1.614   3.261 -1.0090 -1.8347  1.2186
  177SAPS   C2920197  -0.385   1.682   3.400 -0.1982  0.0672 -0.0690
  177SAPS   H9R20198  -0.342   1.647   3.495 -1.9025  0.5193  0.8880
  177SAPS  C21020199  -0.494   1.779   3.434  0.1478 -0.2630 -0.0668
  177SAPS  H10R20200  -0.494   1.870   3.369  0.7174 -1.9432 -2.5187
  177SAPS  H10S20201  -0.472   1.809   3.538  0.0237 -0.5170  0.0325
  177SAPS  C21120202  -0.629   1.713   3.421  0.4007  0.3669 -0.0216
  177SAPS  H11R20203  -0.640   1.651   3.331  0.7480  1.0331 -0.5264
  177SAPS  C21220204  -0.716   1.695   3.524  0.1912  0.0558  0.4596
  177SAPS  H12R20205  -0.815   1.657   3.495  1.0242 -1.1755 -0.8092
  177SAPS  C21320206  -0.694   1.744   3.668 -0.8552  0.3143  0.1907
  177SAPS  H13R20207  -0.675   1.853   3.656  1.7858 -0.1555 -0.1220
  177SAPS  H13S20208  -0.603   1.694   3.708 -0.6985  2.0677  2.0635
  177SAPS  C21420209  -0.801   1.736   3.772 -0.8930  0.5216 -0.5633
  177SAPS  H14R20210  -0.844   1.836   3.789 -0.8026  0.3540  0.7134
  177SAPS  C21520211  -0.827   1.634   3.860 -0.2055  0.7047  0.1545
  177SAPS  H15R20212  -0.891   1.658   3.945 -0.3356  0.0364  0.2507
  177SAPS  C21620213  -0.767   1.490   3.861 -0.1730 -0.2902  0.2427
  177SAPS  H16R20214  -0.681   1.471   3.928 -0.4323 -1.2115  0.3291
  177SAPS  H16S20215  -0.735   1.476   3.755 -2.5037 -0.7948 -0.4274
  177SAPS  C21720216  -0.863   1.375   3.868 -0.4136 -0.5625  0.5193
  177SAPS  H17R20217  -0.927   1.379   3.777  0.4351  1.5300 -0.0069
  177SAPS  H17S20218  -0.933   1.368   3.954 -0.7894 -0.4529  0.2258
  177SAPS  C21820219  -0.793   1.230   3.863 -0.4528 -0.4471 -0.4570
  177SAPS  H18R20220  -0.722   1.228   3.949 -0.0771  2.5605 -0.6338
  177SAPS  H18S20221  -0.732   1.215   3.772  0.3371 -2.7536  0.4105
  177SAPS  C21920222  -0.895   1.115   3.878  0.5723 -0.5135  0.1056
  177SAPS  H19R20223  -0.946   1.095   3.782 -1.2011  0.7180  0.7744
  177SAPS  H19S20224  -0.975   1.157   3.943  2.0259 -0.7211  2.0842
  177SAPS  C22020225  -0.837   0.975   3.928  0.7003 -0.3541  0.2964
  177SAPS  H20R20226  -0.796   0.996   4.029  0.3469  1.0648  0.1518
  177SAPS  H20S20227  -0.742   0.943   3.880 -0.1067 -2.4679  0.0219
  177SAPS  H20T20228  -0.913   0.894   3.929  1.5610 -1.1700  0.7156
  177SAPS   C3320229   0.094   1.924   2.925  0.9487  0.1281 -0.2386
  177SAPS   H3X20230   0.191   1.950   2.973  2.5400 -1.0250 -2.7110
  177SAPS   H3Y20231   0.063   1.819   2.943  2.3347 -0.5968 -1.8259
  177SAPS   C3420232  -0.021   2.020   2.979 -0.1981  0.0692 -0.3598
  177SAPS   H4X20233  -0.037   1.987   3.084  2.1777  1.0967  0.3412
  177SAPS   H4Y20234  -0.113   2.001   2.920  1.8591 -2.4102 -2.8990
  177SAPS   C3520235   0.015   2.172   2.985 -0.0327  0.0531 -0.0798
  177SAPS   H5X20236   0.058   2.219   2.894  0.5572 -0.4596 -0.0724
  177SAPS   H5Y20237   0.102   2.186   3.053  1.0992 -2.2361 -1.0133
  177SAPS   C3620238  -0.107   2.261   3.023  0.0005 -0.0358 -0.2961
  177SAPS   H6X20239  -0.133   2.252   3.131 -1.0237  0.8462 -0.4674
  177SAPS   H6Y20240  -0.196   2.224   2.969  0.9472 -0.5268 -1.5434
  177SAPS   C3720241  -0.092   2.408   2.985 -0.3106 -0.3086  0.1843
  177SAPS   H7X20242  -0.194   2.452   2.997  0.2239  0.6513  1.3418
  177SAPS   H7Y20243  -0.070   2.422   2.877  0.6577 -0.3051  0.3809
  177SAPS   C3820244   0.015   2.485   3.064  0.3903 -0.3866 -0.6260
  177SAPS   H8X20245   0.028   2.587   3.024  0.1785  0.7910  2.1717
  177SAPS   H8Y20246   0.106   2.421   3.061 -0.3283 -1.6033  1.8434
  177SAPS   C3920247  -0.018   2.513   3.213 -0.0160 -0.7418 -0.7895
  177SAPS   H9X20248   0.070   2.553   3.266 -1.4083  0.0203  0.9920
  177SAPS   H9Y20249  -0.054   2.420   3.263 -1.5067  0.9742  1.4200
  177SAPS  C31020250  -0.137   2.609   3.240  0.2692 -0.0865  0.6856
  177SAPS  H10X20251  -0.207   2.609   3.154  1.7997  1.1212 -0.5801
  177SAPS  H10Y20252  -0.106   2.715   3.251  1.0360 -0.1888 -0.4278
  177SAPS  C31120253  -0.219   2.578   3.360  0.1857 -0.1651  0.5233
  177SAPS  H11X20254  -0.168   2.609   3.454 -1.2245  0.3208  1.1449
  177SAPS  H11Y20255  -0.231   2.468   3.373  2.4920 -0.2930  1.9497
  177SAPS  C31220256  -0.366   2.634   3.348 -0.4448  0.9931  0.4901
  177SAPS  H12X20257  -0.431   2.589   3.270  0.0937 -1.0547  1.1989
  177SAPS  H12Y20258  -0.359   2.744   3.334  2.8020  0.5263 -2.0169
  177SAPS  C31320259  -0.437   2.609   3.480 -1.4643  0.8841 -0.7194
  177SAPS  H13X20260  -0.388   2.678   3.551 -0.0834 -1.1063  0.2854
  177SAPS  H13Y20261  -0.421   2.514   3.536 -1.7840  0.3227 -1.5701
  177SAPS  C31420262  -0.584   2.648   3.467 -0.3738  0.1610  0.1132
  177SAPS  H14X20263  -0.650   2.591   3.399 -2.4989  1.4193  1.0701
  177SAPS  H14Y20264  -0.574   2.747   3.417 -3.1928  0.2101 -0.4347
  177SAPS  C31520265  -0.658   2.672   3.597  0.1725 -0.2030 -0.5744
  177SAPS  H15X20266  -0.593   2.738   3.658 -0.0969 -0.6097  0.1633
  177SAPS  H15Y20267  -0.656   2.574   3.649 -0.1644  0.4504  0.6874
  177SAPS  C31620268  -0.803   2.724   3.587  0.3668  0.3658  1.1278
  177SAPS  H16X20269  -0.860   2.660   3.516  0.4890  1.1633  0.3027
  177SAPS  H16Y20270  -0.791   2.821   3.534  0.5865  0.3383  1.1226
  177SAPS  C31720271  -0.885   2.739   3.724  0.4861 -0.2377  0.1640
  177SAPS  H17X20272  -0.817   2.798   3.789 -0.9232  1.8366 -0.2181
  177SAPS  H17Y20273  -0.906   2.648   3.784  1.8299 -0.6236  0.0808
  177SAPS  C31820274  -1.018   2.821   3.710  0.5734  0.3158  0.2523
  177SAPS  H18X20275  -0.998   2.925   3.677 -0.8507  0.7344  0.6624
  177SAPS  H18Y20276  -1.074   2.832   3.805  0.9946 -1.0696  0.6775
  177SAPS  H18Z20277  -1.076   2.774   3.628 -1.2827  2.4378  0.2994
  178SAPS     N20278   4.455   6.865   2.032 -0.3320 -0.5936 -0.3019
  178SAPS   HN120279   4.393   6.816   1.965 -0.1549 -1.1405 -0.0671
  178SAPS   HN220280   4.494   6.799   2.102 -0.4022 -0.2426  0.0758
  178SAPS   HN320281   4.387   6.922   2.086  0.9490  0.8738 -0.1858
  178SAPS   C1220282   4.545   6.968   1.965 -0.2206  0.1278 -0.3049
  178SAPS  H12A20283   4.630   6.925   1.914  0.3097  0.5118  0.2481
  178SAPS   C1320284   4.470   7.060   1.861 -0.0570 -0.5602 -0.1640
  178SAPS  O13A20285   4.347   7.048   1.857 -0.1151  0.2594  0.5963
  178SAPS  O13B20286   4.541   7.148   1.799  0.0087  0.1614 -0.7203
  178SAPS   C1120287   4.614   7.052   2.065 -0.7155 -0.5765  0.0048
  178SAPS  H11A20288   4.544   7.124   2.112  3.2335  1.9307  2.3433
  178SAPS  H11B20289   4.694   7.108   2.011  1.1311 -1.5945  1.6105
  178SAPS     P20290   4.792   6.874   2.161  0.0437 -0.5860 -0.0685
  178SAPS   O1320291   4.734   6.746   2.116  0.0425 -0.4951 -0.7437
  178SAPS   O1420292   4.906   6.934   2.084  0.2957  0.3259  0.6186
  178SAPS   O1220293   4.674   6.985   2.173 -0.5689  0.2850  0.0482
  178SAPS   O1120294   4.841   6.862   2.316  0.0820 -0.1883  0.3984
  178SAPS    C120295   4.821   6.980   2.397 -0.6897 -0.6837  0.5124
  178SAPS    HA20296   4.718   7.023   2.400 -0.0202  0.9051  1.0268
  178SAPS    HB20297   4.846   6.946   2.500 -3.8575 -1.7934  1.0029
  178SAPS    C220298   4.925   7.098   2.362  0.0857  0.9435  0.2153
  178SAPS    HS20299   4.981   7.075   2.269 -0.4554 -1.0622  0.3753
  178SAPS   O2120300   5.020   7.113   2.466 -0.4334 -0.1325 -0.5420
  178SAPS   C2120301   5.115   7.198   2.434  0.0436  0.3540  0.0667
  178SAPS   O2220302   5.137   7.256   2.330 -0.3984  0.2438  0.7832
  178SAPS   C2220303   5.191   7.242   2.556 -0.7490  0.3095 -0.0070
  178SAPS   H2R20304   5.137   7.327   2.602  0.1204  0.6310  0.4295
  178SAPS   H2S20305   5.201   7.155   2.626 -1.4316 -0.2018 -0.5413
  178SAPS    C320306   4.840   7.225   2.339 -0.8247  0.5740 -0.4946
  178SAPS    HX20307   4.774   7.205   2.252 -0.4223 -1.5253 -0.3524
  178SAPS    HY20308   4.906   7.309   2.311  0.4990 -0.5633 -0.8045
  178SAPS   O3120309   4.772   7.240   2.463  0.2554  0.0004  0.1621
  178SAPS   C3120310   4.794   7.348   2.530 -0.5295  1.2791 -0.1134
  178SAPS   O3220311   4.878   7.437   2.503 -0.2612  0.9512  0.4501
  178SAPS   C3220312   4.717   7.342   2.654  0.7482  0.1162 -0.4586
  178SAPS   H2X20313   4.609   7.359   2.633  0.5593 -0.5368 -0.0098
  178SAPS   H2Y20314   4.747   7.432   2.712 -1.3525  0.4126  0.2198
  178SAPS   C2320315   5.335   7.287   2.517  0.3175  0.3501 -0.2324
  178SAPS   H3R20316   5.338   7.335   2.417 -1.3168 -1.7649 -1.3367
  178SAPS   H3S20317   5.404   7.200   2.530 -1.3727 -0.8326  1.0059
  178SAPS   C2420318   5.388   7.389   2.626 -0.8813 -0.5411 -0.1844
  178SAPS   H4R20319   5.336   7.488   2.625  1.6401  0.8297 -0.5479
  178SAPS   H4S20320   5.487   7.423   2.589 -0.4813 -2.0627 -0.5206
  178SAPS   C2520321   5.402   7.325   2.762  0.0986  0.5648 -0.1947
  178SAPS   H5R20322   5.486   7.254   2.767 -1.4654 -1.1761  2.9223
  178SAPS   C2620323   5.330   7.338   2.874  0.8799  0.1193  0.8143
  178SAPS   H6R20324   5.353   7.269   2.956 -0.8908  0.7924  1.9140
  178SAPS   C2720325   5.209   7.418   2.921 -0.9117 -0.7872  0.1346
  178SAPS   H7R20326   5.185   7.509   2.862  1.3055 -0.3874 -0.1940
  178SAPS   H7S20327   5.238   7.465   3.018 -0.6951 -1.2852  0.3084
  178SAPS   C2820328   5.088   7.333   2.941 -0.4653 -0.0997 -0.7971
  178SAPS   H8R20329   5.037   7.306   2.847 -0.7949 -0.1152 -0.6161
  178SAPS   C2920330   5.026   7.306   3.060  0.5155  0.1255 -0.6302
  178SAPS   H9R20331   4.930   7.252   3.058  0.0494  0.9695 -1.1052
  178SAPS  C21020332   5.073   7.345   3.199  0.0703 -0.8410 -0.1294
  178SAPS  H10R20333   5.107   7.451   3.200 -1.7171 -0.2075 -2.2032
  178SAPS  H10S20334   5.171   7.296   3.218 -0.0375 -0.6337  0.9895
  178SAPS  C21120335   4.968   7.325   3.311  0.0915 -0.2689 -0.4920
  178SAPS  H11R20336   4.979   7.227   3.359  0.7551  1.1282  2.3545
  178SAPS  C21220337   4.877   7.412   3.355  0.3682  0.3750  0.3732
  178SAPS  H12R20338   4.807   7.379   3.434 -1.0413 -0.6318 -1.2747
  178SAPS  C21320339   4.857   7.551   3.302 -0.0088 -0.4296 -0.4657
  178SAPS  H13R20340   4.885   7.555   3.195  1.2145  2.5311 -0.0877
  178SAPS  H13S20341   4.900   7.628   3.370 -1.8383  1.7023 -1.6670
  178SAPS  C21420342   4.713   7.589   3.290 -0.2762  0.1022  0.5986
  178SAPS  H14R20343   4.674   7.599   3.188 -0.0551 -1.4252  0.3558
  178SAPS  C21520344   4.624   7.625   3.383  0.4500 -0.2438 -0.3513
  178SAPS  H15R20345   4.516   7.621   3.363  0.2799  0.1574  0.4759
  178SAPS  C21620346   4.652   7.649   3.533  0.0200  0.3568  0.2107
  178SAPS  H16R20347   4.732   7.726   3.540  1.2663 -1.1116  2.6410
  178SAPS  H16S20348   4.694   7.557   3.578 -1.5881 -0.8113 -0.6198
  178SAPS  C21720349   4.528   7.700   3.614 -0.5137 -0.2574 -0.4899
  178SAPS  H17R20350   4.441   7.631   3.610 -0.9490  0.3967 -2.3740
  178SAPS  H17S20351   4.481   7.793   3.577 -0.6679 -0.3086 -0.4270
  178SAPS  C21820352   4.562   7.730   3.764 -0.0310  0.2173  0.2265
  178SAPS  H18R20353   4.649   7.799   3.771  2.7505 -3.2551  1.7738
  178SAPS  H18S20354   4.594   7.636   3.815 -1.3267 -1.3151 -1.7314
  178SAPS  C21920355   4.440   7.790   3.841  0.0947 -0.4674 -0.4429
  178SAPS  H19R20356   4.364   7.709   3.846  1.4020 -1.7123 -0.5502
  178SAPS  H19S20357   4.388   7.859   3.772  1.2716 -1.2232 -2.1356
  178SAPS  C22020358   4.469   7.850   3.977 -0.4458 -0.1974 -0.4078
  178SAPS  H20R20359   4.381   7.906   4.016 -2.5131 -2.5284 -1.5629
  178SAPS  H20S20360   4.552   7.923   3.971 -0.9680  0.2388 -2.6084
  178SAPS  H20T20361   4.480   7.780   4.062  0.2379  1.8805  1.2539
  178SAPS   C3320362   4.754   7.211   2.734  0.7672  0.2336  0.4807
  178SAPS   H3X20363   4.860   7.184   2.715  0.4567  0.2072 -1.3288
  178SAPS   H3Y20364   4.693   7.133   2.683  0.8895  1.0906 -1.0018
  178SAPS   C3420365   4.711   7.220   2.879  0.5931  0.0943 -0.2296
  178SAPS   H4X20366   4.603   7.242   2.891  0.8505  1.2627  0.0392
  178SAPS   H4Y20367   4.760   7.310   2.924 -0.7400  1.0534 -0.6938
  178SAPS   C3520368   4.727   7.091   2.963  0.3901 -1.0223 -0.1311
  178SAPS   H5X20369   4.834   7.061   2.962  0.6530 -0.1623  0.8173
  178SAPS   H5Y20370   4.657   7.022   2.913  0.4020 -0.2340 -1.2596
  178SAPS   C3620371   4.686   7.112   3.114 -0.6367  0.3187 -0.1576
  178SAPS   H6X20372   4.596   7.177   3.115 -2.2358 -1.8283 -0.3314
  178SAPS   H6Y20373   4.765   7.178   3.156 -1.7147  2.1512 -0.9525
  178SAPS   C3720374   4.671   6.982   3.201  0.0488 -0.6545  0.2411
  178SAPS   H7X20375   4.772   6.937   3.184  0.5850  0.9554 -0.9754
  178SAPS   H7Y20376   4.590   6.918   3.162 -1.6250  1.1471  0.6740
  178SAPS   C3820377   4.643   7.030   3.343  0.2969 -0.5404 -0.2412
  178SAPS   H8X20378   4.546   7.083   3.347  0.1126 -0.9022  0.2081
  178SAPS   H8Y20379   4.719   7.103   3.377  1.1329 -0.7221 -1.6666
  178SAPS   C3920380   4.650   6.907   3.445 -0.2678  0.3846 -0.2045
  178SAPS   H9X20381   4.750   6.910   3.494 -0.1268 -1.6608 -0.3247
  178SAPS   H9Y20382   4.646   6.817   3.379  0.2999  0.7197 -0.7046
  178SAPS  C31020383   4.543   6.913   3.554  0.2511 -0.6461  0.0240
  178SAPS  H10X20384   4.556   6.820   3.613  0.9440 -0.1274  0.6836
  178SAPS  H10Y20385   4.441   6.899   3.511 -0.2731  0.7098  0.8029
  178SAPS  C31120386   4.560   7.031   3.648 -0.1039  0.5398  0.2611
  178SAPS  H11X20387   4.564   7.115   3.575  2.8542 -1.4422 -2.0103
  178SAPS  H11Y20388   4.655   7.032   3.705 -0.0441  1.4943  0.1524
  178SAPS  C31220389   4.445   7.048   3.740  0.6751  0.1345 -0.6019
  178SAPS  H12X20390   4.449   6.969   3.817  1.7945  0.1125 -0.6740
  178SAPS  H12Y20391   4.348   7.034   3.687 -1.0378  1.8949  1.9471
  178SAPS  C31320392   4.439   7.186   3.798 -0.1727 -0.6091 -0.4719
  178SAPS  H13X20393   4.331   7.206   3.816 -0.8493 -1.2567 -3.5760
  178SAPS  H13Y20394   4.473   7.258   3.721 -1.1255  0.9420  0.5177
  178SAPS  C31420395   4.525   7.224   3.924  0.3212 -0.7630 -0.3081
  178SAPS  H14X20396   4.618   7.164   3.915  0.1195 -1.2616  0.8930
  178SAPS  H14Y20397   4.474   7.185   4.015 -0.6206  0.0194 -0.4905
  178SAPS  C31520398   4.569   7.370   3.929 -0.3509 -0.2958 -0.3302
  178SAPS  H15X20399   4.473   7.425   3.913 -0.6913 -0.6647  0.4116
  178SAPS  H15Y20400   4.632   7.381   3.838  0.5847 -0.3280  0.3101
  178SAPS  C31620401   4.657   7.411   4.044  0.8513  0.2353 -0.3142
  178SAPS  H16X20402   4.598   7.368   4.128 -1.4679  2.4366 -0.7826
  178SAPS  H16Y20403   4.646   7.519   4.066  2.0672  0.1239  0.9725
  178SAPS  C31720404   4.803   7.364   4.050  0.1479  0.0640 -0.2568
  178SAPS  H17X20405   4.877   7.442   4.022  0.7166  0.0343  1.0874
  178SAPS  H17Y20406   4.809   7.291   3.967  1.2916 -0.3935  0.2157
  178SAPS  C31820407   4.865   7.297   4.170 -0.0516  0.3527 -1.0273
  178SAPS  H18X20408   4.853   7.189   4.149 -1.8701  0.4335 -0.4533
  178SAPS  H18Y20409   4.798   7.311   4.258 -0.1213  1.0782 -1.1903
  178SAPS  H18Z20410   4.969   7.329   4.192 -0.0492 -0.6722  0.5433
  179SAPS     N20411   0.441   1.208   2.119  0.2322  0.5071 -0.3247
  179SAPS   HN120412   0.376   1.191   2.198 -1.1885 -0.8443 -1.7268
  179SAPS   HN220413   0.535   1.207   2.164  0.5720  0.0050 -1.0196
  179SAPS   HN320414   0.424   1.297   2.068 -0.8892 -0.4852 -1.7429
  179SAPS   C1220415   0.439   1.098   2.024 -0.6159 -0.0451 -0.3617
  179SAPS  H12A20416   0.354   1.109   1.959 -0.3391 -0.1711 -0.7495
  179SAPS   C1320417   0.557   1.083   1.934  0.3777 -0.5925 -0.4181
  179SAPS  O13A20418   0.667   1.141   1.955 -0.4711 -0.4077  0.1516
  179SAPS  O13B20419   0.530   1.034   1.823 -0.5560 -0.1242 -0.2245
  179SAPS   C1120420   0.431   0.965   2.100  0.4051  0.8617 -0.3420
  179SAPS  H11A20421   0.519   0.959   2.167  0.9581  0.2837 -1.1222
  179SAPS  H11B20422   0.439   0.881   2.029 -0.1415  2.1729 -1.9814
  179SAPS     P20423   0.204   0.841   2.197  0.5866  0.1598  0.4702
  179SAPS   O1320424   0.059   0.891   2.204  0.0922  0.4837  0.0836
  179SAPS   O1420425   0.228   0.732   2.101  0.3358  0.3569 -0.5229
  179SAPS   O1220426   0.308   0.963   2.175 -0.2354 -0.2327 -0.3340
  179SAPS   O1120427   0.254   0.801   2.341 -0.0131 -0.2167  0.0800
  179SAPS    C120428   0.254   0.903   2.438  0.2312  0.3694  1.2281
  179SAPS    HA20429   0.239   1.005   2.396 -1.8983 -1.0436 -1.6303
  179SAPS    HB20430   0.185   0.885   2.522  0.0836 -0.0679  1.0133
  179SAPS    C220431   0.390   0.894   2.508  0.3132 -0.1553 -0.2869
  179SAPS    HS20432   0.467   0.883   2.428  1.3157  1.4931  0.4251
  179SAPS   O2120433   0.383   0.792   2.609  0.4371 -0.9916  0.4919
  179SAPS   C2120434   0.485   0.721   2.614 -0.7647 -0.3463  0.2817
  179SAPS   O2220435   0.587   0.724   2.543  0.5686 -0.4347 -0.0325
  179SAPS   C2220436   0.458   0.606   2.721  0.2187  0.2046  0.3431
  179SAPS   H2R20437   0.370   0.648   2.774  0.1313  1.3473 -0.6861
  179SAPS   H2S20438   0.418   0.514   2.674 -0.6422  0.9252 -0.3566
  179SAPS    C320439   0.432   1.023   2.587  0.1130 -0.6451 -0.2259
  179SAPS    HX20440   0.368   1.049   2.675  1.2173  3.3850 -0.5166
  179SAPS    HY20441   0.424   1.114   2.523 -3.9374  0.9196  2.2750
  179SAPS   O3120442   0.567   1.000   2.646 -0.1311 -0.8658 -0.6653
  179SAPS   C3120443   0.613   1.110   2.719 -0.2210  0.3808  0.9722
  179SAPS   O3220444   0.557   1.217   2.725 -0.2940  0.1543 -0.0176
  179SAPS   C3220445   0.735   1.067   2.795  0.0427  0.1231  0.3501
  179SAPS   H2X20446   0.813   1.024   2.728 -1.5330 -0.8084 -0.8999
  179SAPS   H2Y20447   0.692   0.988   2.859  0.5639  0.0936  0.6669
  179SAPS   C2320448   0.577   0.588   2.819  0.2461  0.3545  0.1178
  179SAPS   H3R20449   0.579   0.676   2.887 -0.7396  1.1823 -0.9107
  179SAPS   H3S20450   0.678   0.589   2.773  0.2118  2.0635  0.0672
  179SAPS   C2420451   0.564   0.468   2.906 -0.0591 -0.2901 -0.3289
  179SAPS   H4R20452   0.664   0.443   2.946  0.3524  0.2577 -1.0060
  179SAPS   H4S20453   0.546   0.389   2.829  1.4493  0.6721 -1.6939
  179SAPS   C2520454   0.454   0.477   3.005 -0.5923  0.3378  0.6590
  179SAPS   H5R20455   0.353   0.466   2.963 -0.9154 -1.4185  1.8397
  179SAPS   C2620456   0.475   0.502   3.133  0.2215 -0.3082 -0.2542
  179SAPS   H6R20457   0.392   0.491   3.205  0.8018 -0.6366  0.3742
  179SAPS   C2720458   0.601   0.503   3.210 -0.0893 -0.3971 -0.1647
  179SAPS   H7R20459   0.653   0.600   3.199  2.4176 -1.9501 -2.6808
  179SAPS   H7S20460   0.674   0.424   3.180 -0.9008  0.1285 -3.7917
  179SAPS   C2820461   0.592   0.481   3.359  0.2646 -0.0695  0.7003
  179SAPS   H8R20462   0.636   0.388   3.397 -2.9235 -2.3588 -0.9846
  179SAPS   C2920463   0.534   0.558   3.448 -0.6116  0.0003  0.4778
  179SAPS   H9R20464   0.519   0.529   3.553 -0.2480  1.2564  0.8817
  179SAPS  C21020465   0.444   0.674   3.412 -0.2424  0.2397  0.0426
  179SAPS  H10R20466   0.343   0.634   3.392  0.2672 -1.1243  0.1616
  179SAPS  H10S20467   0.479   0.725   3.320  1.3959 -1.2813 -0.1938
  179SAPS  C21120468   0.447   0.778   3.525  0.1243 -0.4695 -0.6992
  179SAPS  H11R20469   0.541   0.800   3.579  0.3050 -1.5698 -0.5585
  179SAPS  C21220470   0.356   0.876   3.535  0.2475 -0.0990  0.8180
  179SAPS  H12R20471   0.382   0.956   3.607  1.4557  0.1669  0.0955
  179SAPS  C21320472   0.241   0.895   3.437  0.2213 -0.4533  0.4979
  179SAPS  H13R20473   0.190   0.796   3.427  0.9932 -0.5516 -3.4037
  179SAPS  H13S20474   0.264   0.927   3.333 -0.5643 -0.6311  0.2650
  179SAPS  C21420475   0.142   0.991   3.501 -0.6570  0.3957 -0.5358
  179SAPS  H14R20476   0.179   1.095   3.507  1.2959 -0.3145  0.0930
  179SAPS  C21520477   0.016   0.969   3.533 -0.3532  0.2322  0.4311
  179SAPS  H15R20478  -0.034   1.031   3.608 -0.6994  1.6808 -0.9877
  179SAPS  C21620479  -0.058   0.840   3.524  0.0647  0.5526 -0.6292
  179SAPS  H16R20480  -0.049   0.796   3.626 -0.5574 -1.9738 -1.6361
  179SAPS  H16S20481  -0.017   0.773   3.445 -0.2425  2.4293 -2.4145
  179SAPS  C21720482  -0.206   0.845   3.491  1.2247 -0.4277 -0.3435
  179SAPS  H17R20483  -0.254   0.920   3.557  3.8725  0.1377  1.0002
  179SAPS  H17S20484  -0.262   0.754   3.522  2.0034 -0.4239  1.1474
  179SAPS  C21820485  -0.242   0.862   3.344  0.8406  1.2884 -0.2914
  179SAPS  H18R20486  -0.178   0.791   3.287  1.0732  0.9301  0.4223
  179SAPS  H18S20487  -0.218   0.967   3.317 -1.2089  2.4625  2.2732
  179SAPS  C21920488  -0.388   0.838   3.323 -0.4993 -0.5786  0.3629
  179SAPS  H19R20489  -0.442   0.902   3.395  0.7311  0.6276  0.2260
  179SAPS  H19S20490  -0.403   0.731   3.350 -2.1911 -0.4980 -0.1607
  179SAPS  C22020491  -0.451   0.875   3.182  0.4264  0.1105  0.0859
  179SAPS  H20R20492  -0.444   0.982   3.153  3.6935  0.1724  0.9145
  179SAPS  H20S20493  -0.559   0.853   3.190  0.2924  1.5276  2.6230
  179SAPS  H20T20494  -0.413   0.806   3.104 -3.7867 -0.4668 -1.5480
  179SAPS   C3320495   0.808   1.178   2.879 -0.1901  0.1478 -0.0805
  179SAPS   H3X20496   0.750   1.270   2.901 -1.0505 -0.8679  2.0139
  179SAPS   H3Y20497   0.893   1.205   2.813  1.6664 -0.7310  1.8922
  179SAPS   C3420498   0.861   1.121   3.016  0.2790  0.3287  0.1045
  179SAPS   H4X20499   0.943   1.051   2.992 -0.8786 -0.5085 -1.4958
  179SAPS   H4Y20500   0.787   1.061   3.072 -1.6523  2.7093  0.2122
  179SAPS   C3520501   0.905   1.226   3.114  0.7245  0.1649 -0.5260
  179SAPS   H5X20502   0.828   1.306   3.120  2.0282  1.3130  1.2577
  179SAPS   H5Y20503   1.002   1.268   3.079  0.8201  1.6864  1.5006
  179SAPS   C3620504   0.912   1.164   3.252 -0.2451 -0.0812  0.8483
  179SAPS   H6X20505   0.976   1.074   3.243  0.1296  0.4542 -2.6711
  179SAPS   H6Y20506   0.809   1.129   3.273 -0.8021  0.2655 -1.1795
  179SAPS   C3720507   0.973   1.252   3.367  0.5532 -0.1022 -1.2163
  179SAPS   H7X20508   0.915   1.347   3.375  1.7997  0.4322  2.0645
  179SAPS   H7Y20509   1.081   1.270   3.353  0.6640 -0.4210 -0.7585
  179SAPS   C3820510   0.961   1.183   3.503 -0.1997  0.6550  0.6349
  179SAPS   H8X20511   1.039   1.106   3.522 -0.6985 -0.3049 -1.1316
  179SAPS   H8Y20512   0.862   1.133   3.495 -0.4858  1.5970 -1.8091
  179SAPS   C3920513   0.941   1.283   3.617 -0.8843 -0.0046  0.4645
  179SAPS   H9X20514   0.880   1.369   3.581  1.2242  1.5493  0.4801
  179SAPS   H9Y20515   1.038   1.326   3.650 -1.2392  0.6910  0.6320
  179SAPS  C31020516   0.858   1.232   3.743 -0.9091  0.3407  0.6740
  179SAPS  H10X20517   0.912   1.154   3.801 -1.9186 -1.8003 -1.2131
  179SAPS  H10Y20518   0.773   1.178   3.697  0.4283 -0.7855 -0.4916
  179SAPS  C31120519   0.827   1.341   3.845 -0.4927 -0.4780 -0.2123
  179SAPS  H11X20520   0.769   1.421   3.794  1.3290  0.4570 -0.8416
  179SAPS  H11Y20521   0.922   1.383   3.885 -0.0522 -1.0693 -0.6449
  179SAPS  C31220522   0.741   1.280   3.960  0.1771  0.1964  0.5751
  179SAPS  H12X20523   0.800   1.193   3.995  0.2485  0.4044  0.9764
  179SAPS  H12Y20524   0.655   1.242   3.901  1.2185 -1.4967  0.1121
  179SAPS  C31320525   0.706   1.363   4.086 -0.1190  0.2490  0.7700
  179SAPS  H13X20526   0.638   1.445   4.054  0.6687  0.9547  0.9074
  179SAPS  H13Y20527   0.797   1.415   4.121  2.7254 -0.6789 -4.7541
  179SAPS  C31420528   0.644   1.281   4.199  0.4592 -0.1897  0.0023
  179SAPS  H14X20529   0.652   1.342   4.292  4.0361 -0.8545  0.1767
  179SAPS  H14Y20530   0.691   1.182   4.213 -0.3434 -0.3618  1.6491
  179SAPS  C31520531   0.492   1.269   4.174  0.4130  0.0490 -0.0701
  179SAPS  H15X20532   0.479   1.207   4.083  2.4047 -2.4843  1.3258
  179SAPS  H15Y20533   0.437   1.365   4.163 -0.4875 -0.3555  0.7861
  179SAPS  C31620534   0.427   1.176   4.284  0.6285 -0.3243  0.7116
  179SAPS  H16X20535   0.498   1.093   4.302  2.2938  0.9605  0.2918
  179SAPS  H16Y20536   0.330   1.147   4.240  0.3278  0.4726  0.8352
  179SAPS  C31720537   0.397   1.263   4.415 -0.2299  0.4967 -0.1237
  179SAPS  H17X20538   0.337   1.353   4.387 -0.1287  0.2936 -1.0021
  179SAPS  H17Y20539   0.496   1.301   4.448  0.1958 -1.0743  0.4515
  179SAPS  C31820540   0.317   1.189   4.525 -1.4852  0.6025  0.3853
  179SAPS  H18X20541   0.365   1.100   4.571  0.5922  1.1190 -0.7246
  179SAPS  H18Y20542   0.223   1.141   4.492 -0.4792  0.2085 -2.0274
  179SAPS  H18Z20543   0.283   1.265   4.599 -2.0431  1.3145 -0.5967
  180SAPS     N20544   6.713   6.622   1.843  0.3399 -0.2567 -0.3872
  180SAPS   HN120545   6.763   6.616   1.934 -0.7863  1.2655  0.3519
  180SAPS   HN220546   6.617   6.657   1.860  0.1631 -0.8348 -0.1789
  180SAPS   HN320547   6.715   6.527   1.800  2.8160 -2.2011  3.7584
  180SAPS   C1220548   6.782   6.729   1.760  0.6483  0.2133  0.3689
  180SAPS  H12A20549   6.883   6.696   1.739  1.6277  2.4883  1.3920
  180SAPS   C1320550   6.715   6.770   1.627 -0.5003  0.2334 -0.6361
  180SAPS  O13A20551   6.617   6.699   1.586  0.3873  0.4118  0.7291
  180SAPS  O13B20552   6.756   6.875   1.566  0.0559 -0.1172  0.1919
  180SAPS   C1120553   6.795   6.848   1.855  0.1337  0.0224 -0.1338
  180SAPS  H11A20554   6.696   6.892   1.879  0.9476  1.2325  1.1723
  180SAPS  H11B20555   6.845   6.936   1.808  0.6082  0.2451  0.7618
  180SAPS     P20556   7.014   6.851   1.991 -0.0703 -0.1573  0.5571
  180SAPS   O1320557   7.067   6.744   2.075 -0.1930  0.1231  0.0058
  180SAPS   O1420558   7.079   6.854   1.859  0.6169  0.2050  0.1543
  180SAPS   O1220559   6.861   6.817   1.973 -0.2127 -0.0835  0.2746
  180SAPS   O1120560   7.038   6.982   2.074  0.4515  0.3557 -0.5595
  180SAPS    C120561   6.954   7.096   2.073 -0.0027 -0.3905  0.4334
  180SAPS    HA20562   7.014   7.178   2.028 -1.4629 -0.8399 -2.4445
  180SAPS    HB20563   6.872   7.097   1.998  0.3188  0.0269  0.0828
  180SAPS    C220564   6.900   7.145   2.210 -0.5504 -0.5137  0.3206
  180SAPS    HS20565   6.902   7.256   2.217  0.4954 -0.5683  1.0529
  180SAPS   O2120566   6.978   7.092   2.314 -0.3555  0.2585  0.0789
  180SAPS   C2120567   7.092   7.155   2.331  0.3457 -0.2187 -0.1150
  180SAPS   O2220568   7.130   7.254   2.270  0.0683 -0.0906 -0.0252
  180SAPS   C2220569   7.172   7.091   2.445  0.6227 -0.3082  0.3684
  180SAPS   H2R20570   7.276   7.128   2.428 -0.0559  2.0714  1.1765
  180SAPS   H2S20571   7.132   7.146   2.533 -2.5129 -3.8727  1.2677
  180SAPS    C320572   6.756   7.107   2.233 -0.0289  0.4988 -0.3230
  180SAPS    HX20573   6.759   6.997   2.215 -0.5432  0.5540 -0.7677
  180SAPS    HY20574   6.699   7.149   2.147 -1.9107  0.0991  0.7038
  180SAPS   O3120575   6.693   7.134   2.365 -0.2339  0.3186  0.0610
  180SAPS   C3120576   6.625   7.249   2.368 -0.4818 -0.4948 -0.2189
  180SAPS   O3220577   6.639   7.344   2.292 -0.6492  0.1467 -0.3012
  180SAPS   C3220578   6.521   7.254   2.472 -0.0714  0.1485 -0.4968
  180SAPS   H2X20579   6.470   7.156   2.477 -1.3954  0.8775  0.8449
  180SAPS   H2Y20580   6.455   7.339   2.441 -1.4978  1.3258  5.1114
  180SAPS   C2320581   7.173   6.937   2.457  0.0984  0.0459 -0.3093
  180SAPS   H3R20582   7.259   6.899   2.398 -0.1455 -2.5202  0.9086
  180SAPS   H3S20583   7.095   6.891   2.393  1.2587 -1.1424 -0.8979
  180SAPS   C2420584   7.192   6.886   2.605  0.2748 -0.7464 -0.0440
  180SAPS   H4R20585   7.284   6.918   2.658  1.0832 -2.7985 -0.1462
  180SAPS   H4S20586   7.213   6.777   2.599  0.3270 -0.8429  1.7889
  180SAPS   C2520587   7.065   6.915   2.680  0.1225 -0.8024  1.0829
  180SAPS   H5R20588   6.973   6.884   2.630 -0.9397  0.2908  2.3249
  180SAPS   C2620589   7.038   6.979   2.790 -0.0789  0.2580  0.4206
  180SAPS   H6R20590   6.934   6.996   2.823 -0.3397 -1.5962  0.6431
  180SAPS   C2720591   7.131   7.063   2.870  0.1179  0.1421  0.0626
  180SAPS   H7R20592   7.065   7.108   2.947 -0.4778 -1.1492  0.3304
  180SAPS   H7S20593   7.186   7.134   2.805  0.7487  0.8003  1.3022
  180SAPS   C2820594   7.238   6.984   2.938 -0.1378  0.4353 -0.5539
  180SAPS   H8R20595   7.327   6.958   2.878  1.0725 -0.2870  1.5118
  180SAPS   C2920596   7.238   6.943   3.065 -0.4468  0.9453 -0.5444
  180SAPS   H9R20597   7.321   6.894   3.117  0.0038  2.2504 -0.0317
  180SAPS  C21020598   7.123   6.973   3.162 -0.5763  0.0521 -0.5536
  180SAPS  H10R20599   7.032   6.956   3.100 -1.6659  1.5845  0.5855
  180SAPS  H10S20600   7.128   7.078   3.197 -1.4816 -0.2390  0.5003
  180SAPS  C21120601   7.114   6.887   3.284 -0.2172 -0.4337  0.0719
  180SAPS  H11R20602   7.044   6.802   3.274 -0.6294  0.1426 -2.2085
  180SAPS  C21220603   7.188   6.906   3.392 -0.1128 -1.1175 -0.0331
  180SAPS  H12R20604   7.174   6.839   3.478 -1.4411  1.0221  1.4829
  180SAPS  C21320605   7.291   7.010   3.415  0.2905  0.0294  0.8224
  180SAPS  H13R20606   7.257   7.073   3.500  0.8333 -0.5209  1.4555
  180SAPS  H13S20607   7.304   7.083   3.332 -0.9205  0.8281  1.3202
  180SAPS  C21420608   7.427   6.945   3.441 -0.3471  0.4260 -0.6470
  180SAPS  H14R20609   7.471   6.895   3.353  0.2125  1.3531 -0.8962
  180SAPS  C21520610   7.498   6.931   3.557 -0.9906  0.4183 -0.2032
  180SAPS  H15R20611   7.592   6.874   3.551 -0.4136  1.2695  0.6210
  180SAPS  C21620612   7.448   6.971   3.690  0.0187  0.1124  0.4658
  180SAPS  H16R20613   7.389   7.065   3.681  3.1665  2.1556  0.4247
  180SAPS  H16S20614   7.529   6.996   3.762  1.3550 -1.8388 -0.3151
  180SAPS  C21720615   7.341   6.872   3.743  0.1003 -0.2896  0.4609
  180SAPS  H17R20616   7.259   6.849   3.671  1.2454  0.0505 -0.9647
  180SAPS  H17S20617   7.296   6.919   3.834  1.7122  0.4480  0.8949
  180SAPS  C21820618   7.408   6.745   3.789  0.4261 -0.3863  0.4957
  180SAPS  H18R20619   7.480   6.770   3.869  1.0563 -1.2110  0.2027
  180SAPS  H18S20620   7.467   6.705   3.703  0.3232 -0.2426  0.3561
  180SAPS  C21920621   7.312   6.635   3.833 -0.3864 -0.0703 -0.1444
  180SAPS  H19R20622   7.244   6.606   3.751  0.8632  0.7695 -1.5208
  180SAPS  H19S20623   7.248   6.670   3.916 -2.1204 -0.9056 -1.0946
  180SAPS  C22020624   7.394   6.517   3.887 -0.4373 -0.3400  0.5233
  180SAPS  H20R20625   7.471   6.484   3.815  2.4401  0.6289  3.0543
  180SAPS  H20S20626   7.451   6.562   3.971  0.9957 -1.7914  0.3619
  180SAPS  H20T20627   7.338   6.436   3.939 -0.0583 -1.7535 -1.2121
  180SAPS   C3320628   6.582   7.279   2.610  0.8208  0.0322 -0.9454
  180SAPS   H3X20629   6.618   7.384   2.610 -1.8637  0.9991 -0.4554
  180SAPS   H3Y20630   6.663   7.208   2.638  1.1695  0.7380 -0.1748
  180SAPS   C3420631   6.486   7.246   2.724 -0.2266  0.6120  0.4711
  180SAPS   H4X20632   6.423   7.157   2.700 -2.6808  1.7308  2.5265
  180SAPS   H4Y20633   6.409   7.326   2.728 -0.5467  0.2796  1.1609
  180SAPS   C3520634   6.550   7.239   2.860 -0.4768 -0.4440 -0.5937
  180SAPS   H5X20635   6.620   7.325   2.869  0.5324 -1.5065  2.5585
  180SAPS   H5Y20636   6.618   7.152   2.847  0.4368 -0.2477  2.3360
  180SAPS   C3620637   6.458   7.235   2.986  0.4582  0.3461  0.4494
  180SAPS   H6X20638   6.399   7.142   2.972 -1.5095  1.6744 -0.2421
  180SAPS   H6Y20639   6.394   7.324   3.000 -1.4051 -0.2994 -3.2769
  180SAPS   C3720640   6.557   7.216   3.108 -0.2323 -0.0956 -0.2703
  180SAPS   H7X20641   6.632   7.298   3.103  0.3189 -0.5116  0.9834
  180SAPS   H7Y20642   6.614   7.120   3.107 -1.6571 -0.9445 -1.4503
  180SAPS   C3820643   6.489   7.213   3.246  0.2904 -1.5496  0.3133
  180SAPS   H8X20644   6.452   7.109   3.258 -1.1094 -1.1245 -0.1249
  180SAPS   H8Y20645   6.391   7.265   3.241  0.7745 -0.5039  1.3547
  180SAPS   C3920646   6.581   7.252   3.359 -0.3827  0.3876  0.0544
  180SAPS   H9X20647   6.522   7.264   3.453  0.4056 -0.8855  0.7168
  180SAPS   H9Y20648   6.619   7.355   3.340 -1.4366  0.8569  0.4428
  180SAPS  C31020649   6.702   7.160   3.393  0.7710  0.3624  0.1867
  180SAPS  H10X20650   6.763   7.168   3.301  0.0100  0.2112 -0.3429
  180SAPS  H10Y20651   6.667   7.054   3.402 -1.4093  1.1726  1.8462
  180SAPS  C31120652   6.771   7.200   3.523 -0.2982  0.3885 -0.8373
  180SAPS  H11X20653   6.694   7.211   3.602  0.3859  3.5447 -0.5322
  180SAPS  H11Y20654   6.819   7.297   3.499  2.0221 -0.8707 -1.4876
  180SAPS  C31220655   6.882   7.104   3.576  0.0292  0.0436 -0.4565
  180SAPS  H12X20656   6.944   7.159   3.651 -0.7267  1.0480 -0.5499
  180SAPS  H12Y20657   6.958   7.077   3.501  1.4457  0.4004  0.8226
  180SAPS  C31320658   6.820   6.977   3.638 -0.4083 -0.3440 -0.1636
  180SAPS  H13X20659   6.795   6.905   3.557 -3.5952  1.6812 -1.0743
  180SAPS  H13Y20660   6.726   7.002   3.691 -0.4783 -1.6062  0.3308
  180SAPS  C31420661   6.912   6.904   3.733  0.0566 -0.0002 -0.7959
  180SAPS  H14X20662   6.958   6.976   3.804  0.3011 -0.9207 -0.0053
  180SAPS  H14Y20663   6.995   6.852   3.679  0.3809 -1.0522  0.6744
  180SAPS  C31520664   6.847   6.792   3.817 -0.5998  0.0140 -0.4478
  180SAPS  H15X20665   6.926   6.723   3.855  0.0398  0.6428 -0.6176
  180SAPS  H15Y20666   6.780   6.732   3.752 -1.2333 -1.0083  1.1076
  180SAPS  C31620667   6.775   6.862   3.933  0.6922 -0.3359  0.0392
  180SAPS  H16X20668   6.716   6.949   3.898  1.4929  0.0162 -0.4562
  180SAPS  H16Y20669   6.847   6.924   3.992  0.8530  1.2081 -1.7430
  180SAPS  C31720670   6.705   6.760   4.023 -0.3689 -0.5183  0.1709
  180SAPS  H17X20671   6.769   6.674   4.053  1.5491  1.0741  0.7616
  180SAPS  H17Y20672   6.621   6.716   3.965  0.1826 -0.3185 -0.8039
  180SAPS  C31820673   6.642   6.811   4.158 -0.3927  0.3344  0.0086
  180SAPS  H18X20674   6.600   6.718   4.201  2.1009 -2.3918 -3.1617
  180SAPS  H18Y20675   6.565   6.888   4.134  0.0674  1.3375  1.6566
  180SAPS  H18Z20676   6.721   6.864   4.216 -1.0167 -0.1469  1.2943
  181POPC     N20677   5.828   2.847   5.940  0.0775  0.3283  0.5429
  181POPC   C1220678   5.850   2.703   5.900  0.3620 -0.2638 -0.2760
  181POPC  H12A20679   5.933   2.672   5.962  0.3494  2.4063  1.1699
  181POPC  H12B20680   5.880   2.697   5.797  0.9132  0.2244 -0.1437
  181POPC   C1320681   5.751   2.922   5.837  0.1504  0.0750  0.8304
  181POPC  H13A20682   5.651   2.886   5.821 -0.1281  1.9466 -2.0794
  181POPC  H13B20683   5.748   3.028   5.855 -0.2013  0.7647 -2.8628
  181POPC  H13C20684   5.783   2.900   5.736 -3.8091 -0.6705 -0.3303
  181POPC   C1420685   5.767   2.867   6.071  0.1707 -0.1072 -1.0069
  181POPC  H14A20686   5.666   2.829   6.068 -0.1721  0.1494  3.8540
  181POPC  H14B20687   5.817   2.813   6.150 -1.8271  1.1367  1.1413
  181POPC  H14C20688   5.770   2.970   6.103  2.1437  0.1164 -1.8267
  181POPC   C1520689   5.967   2.913   5.939  0.0001  0.2707  0.4383
  181POPC  H15A20690   5.957   3.017   5.965 -0.6211  0.8670 -2.0743
  181POPC  H15B20691   6.018   2.908   5.844 -1.2315 -1.9390 -0.1573
  181POPC  H15C20692   6.017   2.870   6.025  0.1096 -1.6367 -0.5564
  181POPC   C1120693   5.730   2.609   5.920  0.0082  0.6521  0.4189
  181POPC  H11A20694   5.677   2.606   6.017  1.4197  1.9620  1.2376
  181POPC  H11B20695   5.774   2.506   5.916 -2.8345 -0.7419  3.0418
  181POPC     P20696   5.483   2.639   5.840  0.2641  0.1056  0.0999
  181POPC   O1320697   5.407   2.695   5.726  0.1405 -0.2957 -0.1279
  181POPC   O1420698   5.471   2.708   5.969 -0.5207 -0.3826  0.7199
  181POPC   O1220699   5.636   2.618   5.808 -0.2360 -0.0935 -0.9632
  181POPC   O1120700   5.416   2.499   5.865 -0.8950  0.2176 -0.3130
  181POPC    C120701   5.485   2.378   5.818 -0.2188 -0.1960  0.1356
  181POPC    HA20702   5.495   2.308   5.903 -1.8709  1.1824  1.4972
  181POPC    HB20703   5.590   2.389   5.784  0.5172 -3.0762  1.4017
  181POPC    C220704   5.391   2.313   5.709  0.1171 -0.2914 -0.1603
  181POPC    HS20705   5.439   2.221   5.670 -0.4032 -1.4962  1.9639
  181POPC   O2120706   5.376   2.403   5.600 -0.5465  0.5780  0.3833
  181POPC   C2120707   5.475   2.399   5.514 -0.3047  0.1318 -0.3279
  181POPC   O2220708   5.576   2.328   5.532  0.4548 -0.5756 -0.0191
  181POPC   C2220709   5.446   2.506   5.408 -0.0464  0.0857 -0.0743
  181POPC   H2R20710   5.538   2.524   5.349 -0.7770  2.4154 -0.5705
  181POPC   H2S20711   5.417   2.597   5.464 -0.5895 -0.3767  0.3993
  181POPC    C320712   5.257   2.264   5.776  0.6184  0.3082  1.0540
  181POPC    HX20713   5.236   2.337   5.857  0.5490  0.0031  1.3080
  181POPC    HY20714   5.270   2.162   5.818  1.8654 -0.2254 -0.5965
  181POPC   O3120715   5.155   2.278   5.674 -0.3628  0.3306  0.6980
  181POPC   C3120716   5.048   2.200   5.691  0.1254 -0.4385 -0.2819
  181POPC   O3220717   5.027   2.124   5.786  0.0639  0.1319  0.1728
  181POPC   C3220718   4.947   2.209   5.573  0.0092  0.0261 -0.0695
  181POPC   H2X20719   4.943   2.314   5.535 -0.4532 -0.0447 -0.2285
  181POPC   H2Y20720   4.847   2.196   5.620  0.7591  4.2019  2.9611
  181POPC   C2320721   5.325   2.458   5.316 -0.4274 -1.6336  0.8156
  181POPC   H3R20722   5.283   2.545   5.261  0.6986 -0.8016  1.2639
  181POPC   H3S20723   5.241   2.422   5.380 -4.3838  1.9548 -2.0550
  181POPC   C2420724   5.368   2.352   5.208  0.0949  0.6001  0.1265
  181POPC   H4R20725   5.418   2.262   5.251 -1.1066 -0.0678  0.1731
  181POPC   H4S20726   5.440   2.399   5.138 -1.3825  0.5803 -1.4300
  181POPC   C2520727   5.237   2.302   5.139  0.2223  0.3728  0.6637
  181POPC   H5R20728   5.188   2.399   5.116  0.3091  0.6624  1.6756
  181POPC   H5S20729   5.184   2.236   5.212 -0.6582  2.0098  1.5278
  181POPC   C2620730   5.262   2.214   5.010 -0.2397 -0.4946  0.2712
  181POPC   H6R20731   5.348   2.147   5.033 -0.1555 -0.2503  0.7009
  181POPC   H6S20732   5.308   2.284   4.937  0.0462 -0.5110  0.4322
  181POPC   C2720733   5.127   2.157   4.957  0.8508  0.3182 -0.2708
  181POPC   H7R20734   5.096   2.077   5.028 -0.0616  1.5185  0.7137
  181POPC   H7S20735   5.131   2.112   4.856 -0.9357  2.9098 -1.5713
  181POPC   C2820736   5.005   2.255   4.949  0.2170  0.1477 -0.6262
  181POPC   H8R20737   4.982   2.297   5.049  2.3383 -1.2319  0.4823
  181POPC   H8S20738   4.916   2.195   4.920  2.0889 -2.5562 -0.9946
  181POPC   C2920739   5.021   2.369   4.846  0.9754  0.8480  0.3486
  181POPC   H9120740   5.121   2.412   4.859  1.9143 -0.5630 -1.9892
  181POPC  C21020741   4.937   2.400   4.740  0.7245 -0.2607 -0.2855
  181POPC  H10120742   4.970   2.485   4.679 -1.6714  0.4754 -0.5656
  181POPC  C21120743   4.808   2.335   4.698  0.0018 -0.1224  0.2500
  181POPC  H11R20744   4.723   2.378   4.756 -1.7932 -0.8111 -1.8049
  181POPC  H11S20745   4.815   2.227   4.724  3.4318 -0.4546 -1.8184
  181POPC  C21220746   4.757   2.334   4.556  0.0457  0.1461 -0.2394
  181POPC  H12R20747   4.647   2.313   4.557  0.0425  0.1995  0.8706
  181POPC  H12S20748   4.819   2.261   4.499  0.4761  0.6888 -0.4586
  181POPC  C21320749   4.763   2.474   4.487  0.0005  0.6162 -0.2519
  181POPC  H13R20750   4.842   2.470   4.410  1.3223 -1.2004  1.1437
  181POPC  H13S20751   4.806   2.548   4.557  1.2438  0.1240 -0.4806
  181POPC  C21420752   4.625   2.527   4.434  0.3001 -0.2540 -0.1434
  181POPC  H14R20753   4.557   2.525   4.522 -2.1334 -0.8650 -1.9527
  181POPC  H14S20754   4.581   2.453   4.364  2.1211 -2.4239  0.9574
  181POPC  C21520755   4.634   2.664   4.374 -0.4975 -0.2877 -0.0282
  181POPC  H15R20756   4.706   2.655   4.290  0.5671 -0.0742  0.8462
  181POPC  H15S20757   4.676   2.730   4.453  1.5315 -0.8814 -0.5665
  181POPC  C21620758   4.497   2.717   4.334 -0.0782  0.0315  0.4913
  181POPC  H16R20759   4.441   2.742   4.427  0.4518 -1.3964  1.2023
  181POPC  H16S20760   4.437   2.637   4.286 -0.3894  0.2817  0.4598
  181POPC  C21720761   4.514   2.844   4.244 -0.1976  0.3662 -0.0788
  181POPC  H17R20762   4.620   2.873   4.257 -0.6675  1.8714  0.5405
  181POPC  H17S20763   4.442   2.923   4.276  0.0588  0.3596  0.5170
  181POPC  C21820764   4.487   2.820   4.089  0.6828  0.1216  0.0715
  181POPC  H18R20765   4.562   2.746   4.054 -1.7523 -3.2689  1.6451
  181POPC  H18S20766   4.489   2.918   4.039  0.0846  0.7696  1.2956
  181POPC  H18T20767   4.386   2.774   4.091  0.3394  0.8678  0.0266
  181POPC   C3320768   4.957   2.112   5.457 -0.1410  0.6247  0.0723
  181POPC   H3X20769   4.915   2.014   5.487  1.2616  0.4059  1.4210
  181POPC   H3Y20770   5.067   2.114   5.440  0.0335 -1.2758  0.8115
  181POPC   C3420771   4.894   2.159   5.320 -0.5200  0.9132  0.4657
  181POPC   H4X20772   4.934   2.108   5.230 -1.1922 -0.0512  0.7101
  181POPC   H4Y20773   4.923   2.266   5.312  0.6922  0.3642 -3.7589
  181POPC   C3520774   4.750   2.148   5.332  0.0830  0.5197 -0.7164
  181POPC   H5X20775   4.701   2.207   5.413 -0.0251  0.7738 -0.9661
  181POPC   H5Y20776   4.723   2.042   5.351 -0.7007  0.8752  0.1675
  181POPC   C3620777   4.684   2.180   5.197  1.0440  0.0676 -0.8219
  181POPC   H6X20778   4.727   2.113   5.119 -0.9925 -1.9942 -0.2647
  181POPC   H6Y20779   4.707   2.286   5.178  1.4569  0.4936  1.8485
  181POPC   C3720780   4.532   2.161   5.197 -0.5358  1.0526 -0.2471
  181POPC   H7X20781   4.502   2.235   5.274  1.3706  0.6821  0.8789
  181POPC   H7Y20782   4.506   2.060   5.236 -0.1949 -0.0658 -2.8198
  181POPC   C3820783   4.464   2.197   5.071  0.4411 -0.3581 -0.4045
  181POPC   H8X20784   4.510   2.294   5.041 -0.5192  0.0838 -0.4947
  181POPC   H8Y20785   4.354   2.212   5.077  0.1429 -2.7835  0.5502
  181POPC   C3920786   4.495   2.099   4.964 -0.4380 -0.0264 -0.3426
  181POPC   H9X20787   4.471   1.994   4.991 -0.0298 -0.4211 -1.4874
  181POPC   H9Y20788   4.603   2.111   4.942 -0.1507  0.3652  1.2372
  181POPC  C31020789   4.426   2.139   4.831 -0.0265  0.5441  0.0773
  181POPC  H10X20790   4.456   2.243   4.808 -2.1229  0.9223 -1.0575
  181POPC  H10Y20791   4.315   2.128   4.826  0.1215 -3.4795  2.9126
  181POPC  C31120792   4.486   2.056   4.712 -0.0506 -0.2699 -0.3735
  181POPC  H11X20793   4.465   1.950   4.740  2.0281 -0.9468 -1.2172
  181POPC  H11Y20794   4.593   2.071   4.685  0.7223  1.2766  3.2875
  181POPC  C31220795   4.401   2.064   4.584  0.4065  0.0672  0.3370
  181POPC  H12X20796   4.408   2.163   4.534  0.4088 -0.4882 -0.7926
  181POPC  H12Y20797   4.294   2.050   4.613  1.0219 -0.1103  2.5918
  181POPC  C31320798   4.452   1.959   4.481 -0.5299  0.1777  0.2057
  181POPC  H13X20799   4.478   1.873   4.546  1.7489  1.7784  1.5066
  181POPC  H13Y20800   4.545   1.997   4.433 -1.0614 -1.8438 -2.4527
  181POPC  C31420801   4.349   1.908   4.385 -0.2985  0.0654 -1.0100
  181POPC  H14X20802   4.324   1.996   4.323  0.8594  0.7820 -0.4849
  181POPC  H14Y20803   4.255   1.874   4.434 -0.3305  0.4304 -0.8140
  181POPC  C31520804   4.412   1.796   4.298  0.0970  0.0343 -1.5643
  181POPC  H15X20805   4.515   1.830   4.275  0.2658 -0.8423 -2.1407
  181POPC  H15Y20806   4.358   1.789   4.201 -1.5501  0.4912 -0.6891
  181POPC  C31620807   4.418   1.656   4.364 -0.4750  0.4247 -0.2410
  181POPC  H16X20808   4.503   1.660   4.436  1.9515  0.2999 -3.0141
  181POPC  H16Y20809   4.433   1.573   4.292 -0.1396 -0.6598  1.0563
  181POPC  H16Z20810   4.324   1.625   4.414 -0.5643  0.1686 -0.5711
  182POPC     N20811   3.094   1.532   6.174  0.2446 -0.3764  0.1180
  182POPC   C1220812   2.963   1.577   6.118  0.1922  0.3778 -0.4557
  182POPC  H12A20813   2.976   1.679   6.088  0.6177  0.7566  0.9727
  182POPC  H12B20814   2.884   1.580   6.192  1.9184 -1.6199  1.5625
  182POPC   C1320815   3.073   1.402   6.257  0.2402  0.2910  0.5621
  182POPC  H13A20816   3.010   1.414   6.344 -0.4340  2.8838 -0.2402
  182POPC  H13B20817   3.020   1.334   6.191 -0.9564  1.8953 -0.1667
  182POPC  H13C20818   3.161   1.348   6.287  0.5184  0.3250 -0.1921
  182POPC   C1420819   3.189   1.493   6.072 -0.1403  0.3451  0.3260
  182POPC  H14A20820   3.155   1.399   6.030 -0.5666 -0.2794  2.0155
  182POPC  H14B20821   3.205   1.574   6.004  0.4216  0.2860  0.3884
  182POPC  H14C20822   3.286   1.480   6.117  0.9539 -0.7452 -2.2485
  182POPC   C1520823   3.148   1.637   6.269  0.2052 -0.4952  0.0832
  182POPC  H15A20824   3.066   1.678   6.325  0.5616  1.8642 -1.0891
  182POPC  H15B20825   3.200   1.711   6.211  0.3560 -2.0014 -1.7716
  182POPC  H15C20826   3.215   1.598   6.344 -0.3581 -2.4861 -0.4165
  182POPC   C1120827   2.912   1.495   5.997  0.2760 -0.0831 -0.3386
  182POPC  H11A20828   2.994   1.474   5.925  0.6201  0.9110 -0.2373
  182POPC  H11B20829   2.831   1.558   5.955  0.7740 -0.4236 -1.8511
  182POPC     P20830   2.874   1.231   5.987 -0.3990  0.1212 -0.0007
  182POPC   O1320831   2.745   1.161   5.975  0.0882 -0.1187 -0.1599
  182POPC   O1420832   2.978   1.175   6.076 -0.1573 -0.1871 -0.4291
  182POPC   O1220833   2.843   1.373   6.041 -0.4465  0.1357 -0.1578
  182POPC   O1120834   2.925   1.266   5.839  0.4699  0.5309  0.2420
  182POPC    C120835   3.036   1.208   5.762 -0.3861 -0.1893 -0.0798
  182POPC    HA20836   3.054   1.104   5.795  0.0740 -0.1529 -0.2115
  182POPC    HB20837   3.133   1.254   5.791  0.3439  0.0794 -2.8141
  182POPC    C220838   3.012   1.202   5.612  0.1763 -0.7511  0.0479
  182POPC    HS20839   3.106   1.173   5.560  1.5712 -0.6803  2.4773
  182POPC   O2120840   2.971   1.330   5.569  0.1714 -0.0245 -0.4433
  182POPC   C2120841   3.048   1.430   5.570  0.4010 -0.3653  0.3310
  182POPC   O2220842   3.170   1.428   5.588  0.6439  0.2922 -0.4692
  182POPC   C2220843   2.970   1.560   5.542  0.0009 -0.0300 -0.0183
  182POPC   H2R20844   3.049   1.620   5.493  0.0282 -1.3065 -1.5779
  182POPC   H2S20845   2.943   1.609   5.638  1.2071  2.4169 -0.8884
  182POPC    C320846   2.905   1.089   5.570 -0.4481  0.3987  0.0881
  182POPC    HX20847   2.809   1.114   5.619  0.1963 -0.2041  1.6864
  182POPC    HY20848   2.944   0.999   5.624 -1.2814 -0.4164 -0.6623
  182POPC   O3120849   2.895   1.078   5.424 -0.2666  0.3662  0.0508
  182POPC   C3120850   2.777   1.136   5.373  0.1293 -0.1005  0.5125
  182POPC   O3220851   2.695   1.194   5.449 -0.0536  0.4211  0.6173
  182POPC   C3220852   2.759   1.107   5.226 -0.1996  0.1139 -0.2678
  182POPC   H2X20853   2.671   1.166   5.194 -0.2950  0.1676  0.0870
  182POPC   H2Y20854   2.740   0.999   5.208  3.5801 -0.3802 -1.8499
  182POPC   C2320855   2.838   1.540   5.466 -0.7726  0.2427 -0.3886
  182POPC   H3R20856   2.775   1.631   5.477 -1.7114 -0.4168 -0.2638
  182POPC   H3S20857   2.777   1.458   5.509  0.0463  0.7100  1.7123
  182POPC   C2420858   2.851   1.517   5.317 -0.1964  0.0890 -0.2974
  182POPC   H4R20859   2.900   1.420   5.293  0.7953  0.4623  0.2148
  182POPC   H4S20860   2.926   1.589   5.279  0.3074 -0.1141  0.3031
  182POPC   C2520861   2.715   1.545   5.249  0.1735 -0.0183  0.5176
  182POPC   H5R20862   2.660   1.630   5.296 -0.6084 -0.0004 -0.4055
  182POPC   H5S20863   2.659   1.449   5.247 -0.2560  0.2034 -3.3225
  182POPC   C2620864   2.745   1.585   5.097  0.5108  0.8571 -0.0706
  182POPC   H6R20865   2.804   1.500   5.058 -0.1057  0.2672  0.2599
  182POPC   H6S20866   2.810   1.675   5.100 -0.1662  1.3158  1.3957
  182POPC   C2720867   2.625   1.588   4.996 -0.0321 -0.3823  0.0481
  182POPC   H7R20868   2.557   1.668   5.031  0.3204 -1.5782  3.6394
  182POPC   H7S20869   2.580   1.486   5.003  3.0768 -1.8704 -0.5971
  182POPC   C2820870   2.664   1.622   4.852  0.6804 -0.1584 -0.8052
  182POPC   H8R20871   2.746   1.558   4.814  2.3665  2.2513 -1.3104
  182POPC   H8S20872   2.718   1.718   4.866 -0.6957  0.2346  2.2518
  182POPC   C2920873   2.544   1.634   4.766  0.1702  0.8430 -0.0855
  182POPC   H9120874   2.454   1.672   4.817 -0.8606 -0.3333 -1.0206
  182POPC  C21020875   2.534   1.595   4.641 -0.4689 -0.2298  0.4240
  182POPC  H10120876   2.437   1.599   4.590 -0.0656  0.0721 -0.3436
  182POPC  C21120877   2.641   1.526   4.564 -1.1273  0.3489 -0.2010
  182POPC  H11R20878   2.591   1.439   4.515 -0.1123 -0.3895  0.0572
  182POPC  H11S20879   2.732   1.489   4.616  0.9137  2.1255 -2.3796
  182POPC  C21220880   2.692   1.624   4.460  0.4641  0.6458  0.0847
  182POPC  H12R20881   2.777   1.577   4.406 -1.5051 -1.1265 -1.5871
  182POPC  H12S20882   2.737   1.714   4.507 -0.5090  0.7603  0.8064
  182POPC  C21320883   2.578   1.665   4.358 -0.8835 -0.2287  0.3671
  182POPC  H13R20884   2.509   1.733   4.413 -2.2471 -2.5901  1.6725
  182POPC  H13S20885   2.514   1.576   4.337 -1.0120  0.4218 -2.1188
  182POPC  C21420886   2.631   1.745   4.241 -0.0540 -0.4000  0.2088
  182POPC  H14R20887   2.712   1.691   4.188 -1.0582 -1.6204 -0.1193
  182POPC  H14S20888   2.675   1.837   4.283 -2.6372  1.8512 -1.8481
  182POPC  C21520889   2.524   1.775   4.135  0.4106  0.2750 -0.1778
  182POPC  H15R20890   2.573   1.831   4.052 -1.1859  0.9103 -0.7187
  182POPC  H15S20891   2.445   1.838   4.180 -0.6133 -0.9367 -0.2456
  182POPC  C21620892   2.464   1.650   4.076  0.0284  0.3070 -0.8596
  182POPC  H16R20893   2.393   1.612   4.153  1.9004 -1.0427  0.2569
  182POPC  H16S20894   2.546   1.578   4.058  0.1316 -0.0441  0.9514
  182POPC  C21720895   2.399   1.655   3.940 -0.9696 -0.2904 -0.0059
  182POPC  H17R20896   2.469   1.697   3.864 -0.2367 -1.4540  0.0088
  182POPC  H17S20897   2.314   1.726   3.936  0.2665  1.3338  1.6501
  182POPC  C21820898   2.359   1.510   3.896 -0.0477  0.4195  0.0543
  182POPC  H18R20899   2.442   1.436   3.894 -2.3615 -2.2970 -3.1478
  182POPC  H18S20900   2.314   1.520   3.795 -0.0792  1.4761  0.1673
  182POPC  H18T20901   2.280   1.478   3.968 -2.5013  1.7975 -1.9441
  182POPC   C3320902   2.871   1.145   5.130  0.0262  0.2813 -0.3222
  182POPC   H3X20903   2.940   1.058   5.121  1.3154  1.4840 -2.6042
  182POPC   H3Y20904   2.921   1.241   5.157 -0.5321  0.5768 -0.3466
  182POPC   C3420905   2.823   1.169   4.985  0.1494  0.3830  0.5126
  182POPC   H4X20906   2.908   1.222   4.936 -0.2782  0.0789 -0.5776
  182POPC   H4Y20907   2.741   1.244   4.979 -0.0130  0.2431  0.9832
  182POPC   C3520908   2.788   1.041   4.898  0.1936 -0.1069 -0.1370
  182POPC   H5X20909   2.709   0.993   4.959  2.4420  1.1898  3.9648
  182POPC   H5Y20910   2.881   0.981   4.896 -0.1892 -0.7286  0.7438
  182POPC   C3620911   2.727   1.075   4.759 -0.5460  0.0936 -0.5419
  182POPC   H6X20912   2.645   1.149   4.768  0.6304  1.4750 -0.8315
  182POPC   H6Y20913   2.687   0.979   4.719 -1.2307 -0.4001  1.2712
  182POPC   C3720914   2.830   1.132   4.658  0.7186  0.3770 -0.4284
  182POPC   H7X20915   2.910   1.055   4.653  1.0756  0.7117  0.0864
  182POPC   H7Y20916   2.877   1.225   4.696  2.1924 -0.7848  0.6595
  182POPC   C3820917   2.782   1.158   4.510 -0.3289  0.1200  0.1491
  182POPC   H8X20918   2.684   1.209   4.526 -0.7547 -0.9872  1.2065
  182POPC   H8Y20919   2.763   1.055   4.474 -0.4043  0.4350 -0.7180
  182POPC   C3920920   2.882   1.235   4.420 -0.0510  0.4055  0.6443
  182POPC   H9X20921   2.986   1.196   4.420  0.2786  1.2468 -0.8572
  182POPC   H9Y20922   2.878   1.338   4.460 -0.1162  0.5296  0.3244
  182POPC  C31020923   2.823   1.246   4.279  0.0196  0.3250 -0.0889
  182POPC  H10X20924   2.734   1.312   4.282 -1.6658 -1.8185 -1.0397
  182POPC  H10Y20925   2.780   1.149   4.244 -1.9891  1.0348  0.3543
  182POPC  C31120926   2.921   1.318   4.186 -0.2192 -0.1484  0.1559
  182POPC  H11X20927   3.004   1.252   4.153  1.0505  0.9882  1.0372
  182POPC  H11Y20928   2.975   1.395   4.246  0.0409 -0.3922  0.2311
  182POPC  C31220929   2.849   1.394   4.067 -0.0250  0.8708  0.4918
  182POPC  H12X20930   2.788   1.466   4.126 -0.0318  0.4572  0.9942
  182POPC  H12Y20931   2.783   1.325   4.011 -0.8701  0.9082  1.4143
  182POPC  C31320932   2.945   1.463   3.972 -0.1338  0.5391  0.3962
  182POPC  H13X20933   2.971   1.393   3.890 -0.1627 -1.3068  1.9365
  182POPC  H13Y20934   3.039   1.475   4.029 -0.9125 -0.5926  1.9644
  182POPC  C31420935   2.889   1.595   3.920 -0.0865 -0.2244  0.3571
  182POPC  H14X20936   2.964   1.665   3.876 -0.1338 -0.0226  0.5938
  182POPC  H14Y20937   2.850   1.658   4.003  0.3782 -0.2044  0.5620
  182POPC  C31520938   2.784   1.576   3.813  0.5072  0.0425 -0.4878
  182POPC  H15X20939   2.706   1.519   3.866 -0.5219  1.0921 -0.8644
  182POPC  H15Y20940   2.823   1.513   3.730 -0.5801  0.1324 -1.0670
  182POPC  C31620941   2.728   1.713   3.771 -0.3428  0.0864  0.0526
  182POPC  H16X20942   2.803   1.751   3.698  2.2912 -0.5381  2.3389
  182POPC  H16Y20943   2.709   1.801   3.835  0.8499 -0.5844  1.3731
  182POPC  H16Z20944   2.639   1.691   3.708  1.1184 -0.5128 -1.8739
  183POPC     N20945   2.985   7.028   6.340 -0.5218 -0.0647 -0.8753
  183POPC   C1220946   2.903   6.928   6.262  0.6144  0.4602  0.3759
  183POPC  H12A20947   2.807   6.966   6.231  1.6779  3.0356  0.1264
  183POPC  H12B20948   2.874   6.846   6.326  1.6075 -0.3158 -0.1382
  183POPC   C1320949   3.021   7.147   6.249 -0.9971  0.5706 -0.4941
  183POPC  H13A20950   2.936   7.205   6.218 -2.9655 -1.2416  1.4026
  183POPC  H13B20951   3.080   7.219   6.304 -2.2847 -0.2789  2.0527
  183POPC  H13C20952   3.069   7.100   6.164 -0.3110 -1.5633  1.0270
  183POPC   C1420953   2.909   7.070   6.459  0.2655  0.1188  0.5638
  183POPC  H14A20954   2.880   6.978   6.507  1.4012 -0.4409  0.2039
  183POPC  H14B20955   2.959   7.137   6.527  0.1343  0.6340  0.1607
  183POPC  H14C20956   2.816   7.111   6.423 -0.0293  0.2140  1.4297
  183POPC   C1520957   3.114   6.974   6.393  0.1061  0.5827 -0.0994
  183POPC  H15A20958   3.184   7.047   6.432  0.5463  0.0183  0.1787
  183POPC  H15B20959   3.172   6.924   6.317  0.9581  0.2805  0.7359
  183POPC  H15C20960   3.085   6.898   6.464  2.6384 -1.1710 -0.8742
  183POPC   C1120961   2.980   6.862   6.147  0.5461  0.0431  0.5664
  183POPC  H11A20962   2.936   6.767   6.110 -0.0313  0.6841 -0.4437
  183POPC  H11B20963   3.080   6.824   6.176  1.1737 -2.0177 -3.8406
  183POPC     P20964   2.930   6.955   5.895 -0.2048 -0.1267  0.1254
  183POPC   O1320965   2.902   7.097   5.864  0.9748  0.0169  0.1895
  183POPC   O1420966   2.835   6.841   5.870  0.8064 -0.3560  0.2590
  183POPC   O1220967   2.998   6.953   6.035 -0.4653  0.4668  0.4478
  183POPC   O1120968   3.054   6.914   5.801 -0.3591 -0.1096  0.6962
  183POPC    C120969   3.169   6.849   5.846 -0.2861 -0.0496  0.1703
  183POPC    HA20970   3.145   6.754   5.899  0.2030 -0.2586  0.0218
  183POPC    HB20971   3.233   6.916   5.908 -0.3584  3.0873 -3.0111
  183POPC    C220972   3.252   6.821   5.723 -0.7506 -0.8315  0.0300
  183POPC    HS20973   3.355   6.799   5.758  1.1245  1.2949 -3.7855
  183POPC   O2120974   3.250   6.927   5.625 -0.4265  0.9752 -0.0831
  183POPC   C2120975   3.314   7.043   5.659  0.2915  1.0004  0.0358
  183POPC   O2220976   3.382   7.058   5.759  0.1365 -0.0660  0.1709
  183POPC   C2220977   3.292   7.148   5.549  0.3212  0.7912 -0.1806
  183POPC   H2R20978   3.307   7.244   5.603  0.4480  0.5300  0.2462
  183POPC   H2S20979   3.185   7.149   5.516 -0.1904 -2.5712  1.2121
  183POPC    C320980   3.185   6.702   5.655  0.0584  0.2545  0.1806
  183POPC    HX20981   3.076   6.718   5.647  0.2661  1.9981  0.6286
  183POPC    HY20982   3.201   6.617   5.724 -0.3047  0.4146  0.4653
  183POPC   O3120983   3.240   6.681   5.525 -0.1732  0.1919  0.8796
  183POPC   C3120984   3.369   6.651   5.505  0.3790  0.1861 -0.4236
  183POPC   O3220985   3.451   6.635   5.595  0.1321  0.2109 -0.2951
  183POPC   C3220986   3.389   6.625   5.355  0.1894 -0.3833 -0.5828
  183POPC   H2X20987   3.317   6.686   5.296  0.7805  1.4766  0.5704
  183POPC   H2Y20988   3.357   6.520   5.343 -0.8659 -0.1754  0.3576
  183POPC   C2320989   3.397   7.147   5.428 -0.4171  0.0515  0.0015
  183POPC   H3R20990   3.500   7.147   5.470  0.3458 -3.0653 -1.6705
  183POPC   H3S20991   3.376   7.239   5.369 -1.5775 -0.2384 -0.0636
  183POPC   C2420992   3.375   7.038   5.324 -0.2112  0.0684 -0.1966
  183POPC   H4R20993   3.267   7.046   5.299 -0.8965 -2.0022  1.9042
  183POPC   H4S20994   3.384   6.939   5.375 -1.7186  0.1640  0.2644
  183POPC   C2520995   3.456   7.060   5.195  0.3162  0.6672 -0.2738
  183POPC   H5R20996   3.562   7.039   5.222 -0.0359 -1.4010 -0.3623
  183POPC   H5S20997   3.463   7.167   5.169  0.5280  0.5300 -0.7887
  183POPC   C2620998   3.396   6.991   5.076 -0.0700  0.8461 -0.7402
  183POPC   H6R20999   3.299   7.040   5.056  1.4618  3.9750 -0.7534
  183POPC   H6S21000   3.379   6.883   5.097  0.6831  1.0529  0.9976
  183POPC   C2721001   3.489   6.992   4.955  0.5811 -0.3919  0.1587
  183POPC   H7R21002   3.590   6.949   4.973  0.2430 -0.6444  1.5130
  183POPC   H7S21003   3.512   7.098   4.934  0.9888 -0.2785  1.1066
  183POPC   C2821004   3.420   6.912   4.843  0.5844 -0.2604  0.1144
  183POPC   H8R21005   3.373   6.819   4.880  0.1974 -0.4453 -0.8242
  183POPC   H8S21006   3.496   6.883   4.767  0.9834 -2.2239  1.2323
  183POPC   C2921007   3.304   6.993   4.780  0.4197  0.1161 -0.1379
  183POPC   H9121008   3.233   7.030   4.856  3.1602  2.7366  1.2570
  183POPC  C21021009   3.283   7.006   4.651 -0.7176 -0.0917 -0.2399
  183POPC  H10121010   3.197   7.064   4.614  1.8049  4.1649  0.1737
  183POPC  C21121011   3.358   6.948   4.529 -0.6259 -0.5804 -0.3001
  183POPC  H11R21012   3.286   6.905   4.456 -1.9097 -1.4727  1.4674
  183POPC  H11S21013   3.422   6.863   4.561 -0.2602  0.2909  1.3638
  183POPC  C21221014   3.444   7.056   4.463  0.3350  0.0422  0.0100
  183POPC  H12R21015   3.389   7.153   4.460  0.9771  0.3696 -2.3738
  183POPC  H12S21016   3.450   7.034   4.354  0.7652 -0.6805  0.1798
  183POPC  C21321017   3.585   7.085   4.522  0.1357 -0.3891  0.6857
  183POPC  H13R21018   3.583   7.118   4.628 -0.2318  0.6873  0.3421
  183POPC  H13S21019   3.616   7.174   4.463 -0.3089 -0.9301 -0.3798
  183POPC  C21421020   3.689   6.967   4.502 -0.3628 -0.3750  0.3364
  183POPC  H14R21021   3.644   6.868   4.524 -0.6014 -0.9573 -2.6668
  183POPC  H14S21022   3.764   6.984   4.583  0.2945 -0.8773 -0.1636
  183POPC  C21521023   3.765   6.975   4.364 -0.4583 -0.1487 -0.3734
  183POPC  H15R21024   3.811   7.076   4.359 -0.8318 -0.0544 -2.5603
  183POPC  H15S21025   3.687   6.972   4.284 -0.3496  1.5221 -0.5523
  183POPC  C21621026   3.884   6.872   4.341 -0.4833  0.3165  0.6175
  183POPC  H16R21027   3.920   6.882   4.237  1.7168 -0.3411  1.2773
  183POPC  H16S21028   3.824   6.779   4.351 -0.0239  0.1285  1.8082
  183POPC  C21721029   4.006   6.881   4.430  0.2439  0.3894  0.1453
  183POPC  H17R21030   4.043   6.777   4.439  2.3728  0.8741 -2.4505
  183POPC  H17S21031   3.978   6.916   4.531 -2.3272  2.7024 -1.3003
  183POPC  C21821032   4.120   6.960   4.367 -0.3611 -0.8211 -0.4352
  183POPC  H18R21033   4.170   6.909   4.281  0.2973  0.8306 -1.0458
  183POPC  H18S21034   4.193   6.982   4.448 -1.0578 -0.0888 -0.0083
  183POPC  H18T21035   4.082   7.057   4.330  0.1482 -1.2477 -2.1292
  183POPC   C3321036   3.535   6.638   5.311  0.1152  0.9532 -0.0302
  183POPC   H3X21037   3.593   6.559   5.364 -0.4388  0.0752 -0.7307
  183POPC   H3Y21038   3.570   6.740   5.336 -0.1105  1.3325 -1.2374
  183POPC   C3421039   3.557   6.629   5.163  0.1811 -0.0188  0.4310
  183POPC   H4X21040   3.479   6.687   5.108  1.2383 -0.8751 -2.0195
  183POPC   H4Y21041   3.549   6.524   5.129 -1.3450  1.4962 -4.2953
  183POPC   C3521042   3.687   6.696   5.119 -0.2352 -0.8570 -0.4541
  183POPC   H5X21043   3.712   6.773   5.195 -1.1757 -1.3077  0.3316
  183POPC   H5Y21044   3.671   6.746   5.022  0.7781  0.0898 -0.1321
  183POPC   C3621045   3.813   6.599   5.111 -0.8268  0.1169 -0.1775
  183POPC   H6X21046   3.786   6.502   5.065 -0.3763  0.0268 -0.2464
  183POPC   H6Y21047   3.842   6.579   5.217 -1.1448  1.8881  0.2707
  183POPC   C3721048   3.923   6.670   5.040 -0.2901  0.5036  0.4605
  183POPC   H7X21049   4.014   6.667   5.103  1.5552 -2.0943 -2.1598
  183POPC   H7Y21050   3.899   6.775   5.014  0.6882  0.0357 -2.5450
  183POPC   C3821051   3.957   6.592   4.905 -0.5593 -0.6713 -1.0289
  183POPC   H8X21052   3.868   6.596   4.839 -1.2519  0.7079 -0.0553
  183POPC   H8Y21053   3.977   6.488   4.937 -2.7829 -0.2715  1.9280
  183POPC   C3921054   4.060   6.670   4.835  0.5742 -0.4225  0.1343
  183POPC   H9X21055   4.147   6.697   4.898  2.0640 -1.9315 -1.2031
  183POPC   H9Y21056   4.008   6.763   4.803 -2.7033 -2.1854  0.0714
  183POPC  C31021057   4.106   6.607   4.699  0.1175 -0.0436  0.2367
  183POPC  H10X21058   4.020   6.617   4.629 -1.4231  0.2900  2.1402
  183POPC  H10Y21059   4.127   6.502   4.725 -0.1061 -0.1578 -0.0443
  183POPC  C31121060   4.230   6.677   4.645 -0.2159  0.6044 -0.1054
  183POPC  H11X21061   4.312   6.672   4.720  0.0773  0.1212 -0.4566
  183POPC  H11Y21062   4.219   6.787   4.629 -0.0248  0.9002  1.7096
  183POPC  C31221063   4.284   6.604   4.514 -0.3871  0.1590 -0.4344
  183POPC  H12X21064   4.194   6.610   4.449 -0.8259  2.1704  0.3272
  183POPC  H12Y21065   4.307   6.498   4.537  0.7346  0.9757  2.4948
  183POPC  C31321066   4.411   6.664   4.446 -0.0234  0.2829 -0.2661
  183POPC  H13X21067   4.505   6.642   4.500  0.5165  2.4121 -0.2949
  183POPC  H13Y21068   4.389   6.773   4.438  1.5047  0.5146 -1.4479
  183POPC  C31421069   4.428   6.631   4.298 -0.2888 -0.1501  0.3095
  183POPC  H14X21070   4.512   6.695   4.265  0.9478 -1.1509  1.4704
  183POPC  H14Y21071   4.344   6.657   4.231  0.1032 -0.1778 -0.1937
  183POPC  C31521072   4.457   6.483   4.280  0.5011 -0.1382  0.0995
  183POPC  H15X21073   4.392   6.420   4.344  0.2024 -0.3061 -0.3621
  183POPC  H15Y21074   4.559   6.460   4.317  1.2878  0.5810 -1.5448
  183POPC  C31621075   4.458   6.449   4.125 -0.1591  0.2266 -0.1747
  183POPC  H16X21076   4.513   6.533   4.077 -0.0578  0.6223  0.6206
  183POPC  H16Y21077   4.350   6.444   4.101 -0.4774 -1.6907  1.4692
  183POPC  H16Z21078   4.499   6.346   4.111 -0.3368 -0.2017  2.2905
  184POPC     N21079   4.094   0.017   5.940  0.3565 -0.4390 -0.2750
  184POPC   C1221080   4.193   0.056   5.834 -0.2009  0.6004 -0.7799
  184POPC  H12A21081   4.272   0.111   5.883 -1.8257  0.7109  1.8081
  184POPC  H12B21082   4.150   0.122   5.760  1.9746  0.8453 -1.8564
  184POPC   C1321083   3.981  -0.051   5.878 -0.5723  0.4459 -0.3155
  184POPC  H13A21084   4.027  -0.135   5.828 -0.7064  0.9369 -1.2650
  184POPC  H13B21085   3.910  -0.081   5.954  2.1860  0.5549  2.3922
  184POPC  H13C21086   3.927   0.012   5.809 -1.0167 -0.4648 -0.8062
  184POPC   C1421087   4.161  -0.062   6.040  0.0276  0.1877  0.2805
  184POPC  H14A21088   4.243  -0.009   6.087 -0.9495  0.3906  1.7657
  184POPC  H14B21089   4.097  -0.113   6.110  1.4837 -0.8674  0.8899
  184POPC  H14C21090   4.205  -0.150   5.994 -2.4103 -0.8295 -0.1674
  184POPC   C1521091   4.030   0.134   6.013 -0.0425 -0.0875  0.4404
  184POPC  H15A21092   3.955   0.099   6.082  0.8418  0.4100  1.6822
  184POPC  H15B21093   3.982   0.197   5.940 -1.0779  0.6710  1.7546
  184POPC  H15C21094   4.103   0.195   6.065  1.8323 -2.6121  0.9098
  184POPC   C1121095   4.266  -0.046   5.746  0.0349 -0.2014 -0.6569
  184POPC  H11A21096   4.323  -0.008   5.659  1.7852 -2.3953 -0.5010
  184POPC  H11B21097   4.182  -0.112   5.715  0.6634 -1.3461  0.0356
  184POPC     P21098   4.501  -0.075   5.849  0.1556  0.1069  0.0655
  184POPC   O1321099   4.531  -0.107   5.991  0.7874  0.5928 -0.0982
  184POPC   O1421100   4.510   0.067   5.805 -0.1787 -0.3458 -0.1047
  184POPC   O1221101   4.351  -0.130   5.825  0.2146  0.4457  0.0574
  184POPC   O1121102   4.583  -0.161   5.749  0.0614  0.5700 -0.2236
  184POPC    C121103   4.689  -0.121   5.661  0.2780  0.7269  0.0766
  184POPC    HA21104   4.693  -0.010   5.654 -0.4227  0.8213  1.0133
  184POPC    HB21105   4.663  -0.167   5.563 -2.1025 -2.0235  1.9031
  184POPC    C221106   4.827  -0.169   5.703 -0.0764 -0.6719 -0.2457
  184POPC    HS21107   4.857  -0.128   5.802 -0.3129 -1.6667  0.2424
  184POPC   O2121108   4.919  -0.128   5.591 -0.0139  0.4231 -0.1521
  184POPC   C2121109   4.941  -0.006   5.581 -0.4068 -0.2774  0.0381
  184POPC   O2221110   4.931   0.084   5.663  0.4408  0.1796 -0.0815
  184POPC   C2221111   5.013   0.027   5.445  0.5143  0.6529 -0.0334
  184POPC   H2R21112   5.118  -0.008   5.451 -0.7566 -3.6906 -1.5636
  184POPC   H2S21113   5.013   0.138   5.441 -0.6988  0.6495 -0.2787
  184POPC    C321114   4.829  -0.320   5.709  0.4105 -0.4789 -0.1299
  184POPC    HX21115   4.754  -0.363   5.779 -0.3535 -1.0401 -1.2754
  184POPC    HY21116   4.930  -0.350   5.742  0.5879 -0.7715 -0.9364
  184POPC   O3121117   4.810  -0.371   5.575 -0.0228 -0.6696 -0.3892
  184POPC   C3121118   4.909  -0.435   5.514  0.3707 -0.1202 -0.0782
  184POPC   O3221119   4.999  -0.494   5.574  0.6129 -0.5062 -0.5240
  184POPC   C3221120   4.895  -0.436   5.362 -0.3907  0.1961 -0.1817
  184POPC   H2X21121   4.957  -0.521   5.326  3.0851  1.9055  1.5212
  184POPC   H2Y21122   4.953  -0.350   5.320 -2.5204  0.7287 -2.1310
  184POPC   C2321123   4.941  -0.037   5.318  0.5424 -0.2744 -0.4706
  184POPC   H3R21124   4.935  -0.148   5.323 -0.6809 -0.1734  0.5152
  184POPC   H3S21125   4.998  -0.009   5.227 -1.9261  1.1779 -1.6415
  184POPC   C2421126   4.800   0.018   5.292 -0.4051 -0.7846 -0.2012
  184POPC   H4R21127   4.727  -0.009   5.371 -0.3447 -2.8369 -0.8290
  184POPC   H4S21128   4.766  -0.025   5.196 -1.0554  0.7275 -0.6750
  184POPC   C2521129   4.800   0.165   5.266 -0.0737 -0.7322 -0.6234
  184POPC   H5R21130   4.870   0.188   5.183  0.3981  1.5351  0.3863
  184POPC   H5S21131   4.822   0.236   5.348 -2.4293 -2.4168  1.5637
  184POPC   C2621132   4.657   0.200   5.219  0.1741  0.6752  0.3827
  184POPC   H6R21133   4.599   0.160   5.305 -0.0666  1.1088  0.4181
  184POPC   H6S21134   4.632   0.143   5.127  3.2607 -0.2793  0.0562
  184POPC   C2721135   4.631   0.351   5.205 -1.2229  0.0675 -0.5353
  184POPC   H7R21136   4.673   0.392   5.111  1.1207 -1.7400 -0.3184
  184POPC   H7S21137   4.686   0.404   5.285 -0.6078 -0.9248 -0.2803
  184POPC   C2821138   4.483   0.377   5.194  0.3111 -0.3548 -0.1254
  184POPC   H8R21139   4.434   0.329   5.282  0.3708  0.6844  0.4865
  184POPC   H8S21140   4.436   0.330   5.105 -0.1525  0.4457 -0.3067
  184POPC   C2921141   4.435   0.521   5.199  0.9982 -0.1322 -0.0317
  184POPC   H9121142   4.401   0.553   5.299  0.8204  0.8929 -0.4105
  184POPC  C21021143   4.423   0.620   5.103  0.7497  0.2917 -0.7175
  184POPC  H10121144   4.368   0.711   5.132  0.3347 -0.9659  2.7171
  184POPC  C21121145   4.449   0.604   4.959 -0.5086  0.0706  0.3910
  184POPC  H11R21146   4.540   0.541   4.944 -0.5412  0.1164 -0.0157
  184POPC  H11S21147   4.464   0.703   4.911 -0.2062 -0.9047 -1.5702
  184POPC  C21221148   4.330   0.544   4.885  0.4185  0.1329 -0.4382
  184POPC  H12R21149   4.298   0.450   4.935 -1.1936  1.5561  1.3197
  184POPC  H12S21150   4.363   0.518   4.783 -0.3395  0.0658 -0.6706
  184POPC  C21321151   4.211   0.645   4.884 -0.3427 -0.0687 -0.5727
  184POPC  H13R21152   4.236   0.719   4.804  1.8296 -1.2781 -1.0405
  184POPC  H13S21153   4.196   0.710   4.972 -0.5145 -0.6589 -0.1651
  184POPC  C21421154   4.074   0.575   4.860  1.2765  0.4071 -0.5327
  184POPC  H14R21155   4.079   0.490   4.931  1.5242  1.0751  0.2718
  184POPC  H14S21156   4.057   0.541   4.756 -1.5521  2.1789 -0.7040
  184POPC  C21521157   3.954   0.662   4.893 -0.9156  0.0634  0.6524
  184POPC  H15R21158   3.951   0.681   5.002 -1.0158 -0.3514  0.7218
  184POPC  H15S21159   3.865   0.609   4.853 -2.1394  1.7231  1.1354
  184POPC  C21621160   3.964   0.789   4.806  0.2282 -0.7262  0.0051
  184POPC  H16R21161   3.970   0.768   4.697  1.6258  0.8533 -0.2517
  184POPC  H16S21162   4.058   0.842   4.834 -0.5125  0.7002 -0.1856
  184POPC  C21721163   3.836   0.871   4.834 -0.2341 -0.0720 -0.3786
  184POPC  H17R21164   3.821   0.877   4.944  2.1248  0.7901 -0.0884
  184POPC  H17S21165   3.750   0.818   4.788 -0.5261  0.4724 -0.4615
  184POPC  C21821166   3.839   1.010   4.770 -0.1516 -0.5609  0.2936
  184POPC  H18R21167   3.752   1.071   4.801 -1.3576 -1.0043 -2.1578
  184POPC  H18S21168   3.852   1.007   4.660 -0.6859  1.8440  0.1372
  184POPC  H18T21169   3.935   1.061   4.793 -0.2540  0.5795 -1.7320
  184POPC   C3321170   4.749  -0.442   5.305 -0.3477 -0.2379  0.1577
  184POPC   H3X21171   4.702  -0.343   5.321 -0.7598 -0.0372 -2.1124
  184POPC   H3Y21172   4.687  -0.520   5.354 -0.3430  0.6660  1.6558
  184POPC   C3421173   4.738  -0.469   5.150 -0.3774 -0.2348 -0.2717
  184POPC   H4X21174   4.631  -0.490   5.131 -0.4961  0.5279 -0.4507
  184POPC   H4Y21175   4.802  -0.553   5.114 -1.5879 -0.3087 -2.3232
  184POPC   C3521176   4.772  -0.338   5.075  0.6098  0.3388 -0.4306
  184POPC   H5X21177   4.879  -0.311   5.085  1.0676 -1.8183  0.8254
  184POPC   H5Y21178   4.708  -0.257   5.116  0.7110 -0.2474  0.9098
  184POPC   C3621179   4.753  -0.360   4.927 -0.1691 -0.8672 -0.6291
  184POPC   H6X21180   4.767  -0.261   4.879 -0.3332 -0.3160  0.4550
  184POPC   H6Y21181   4.643  -0.355   4.908 -0.2637  4.4180  0.3715
  184POPC   C3721182   4.821  -0.473   4.854  0.1456 -0.2473 -0.4403
  184POPC   H7X21183   4.790  -0.566   4.906 -1.8212  0.6380  0.0107
  184POPC   H7Y21184   4.931  -0.466   4.868  0.0572 -2.8600  2.1331
  184POPC   C3821185   4.786  -0.483   4.706  0.0577 -0.0651  0.5131
  184POPC   H8X21186   4.836  -0.400   4.653  1.0178 -0.2469  1.1104
  184POPC   H8Y21187   4.676  -0.479   4.691  0.2426  2.3147 -0.3235
  184POPC   C3921188   4.834  -0.618   4.646 -0.2287 -0.0933 -0.2597
  184POPC   H9X21189   4.781  -0.697   4.703 -1.2558  0.1146 -0.9096
  184POPC   H9Y21190   4.940  -0.632   4.675  0.5939  1.4813 -2.3104
  184POPC  C31021191   4.805  -0.632   4.493 -0.2799  0.6090 -0.2348
  184POPC  H10X21192   4.832  -0.534   4.449 -1.2875  1.3100  0.6795
  184POPC  H10Y21193   4.698  -0.659   4.475  0.1784 -1.2070 -0.3332
  184POPC  C31121194   4.895  -0.728   4.418  1.0424 -0.0527  0.4716
  184POPC  H11X21195   4.889  -0.828   4.466 -2.2548  0.3527  1.0508
  184POPC  H11Y21196   5.004  -0.720   4.438  1.0910  1.7894 -0.4054
  184POPC  C31221197   4.864  -0.749   4.272 -0.1082 -0.4749  0.3678
  184POPC  H12X21198   4.827  -0.650   4.235  1.1250 -0.4402 -0.8190
  184POPC  H12Y21199   4.795  -0.834   4.254 -0.4002  0.1760 -1.7598
  184POPC  C31321200   4.988  -0.765   4.179 -0.2068 -0.6968 -0.7638
  184POPC  H13X21201   4.947  -0.815   4.089 -1.3658 -2.6130  0.8030
  184POPC  H13Y21202   5.055  -0.845   4.218  0.2337  0.1435  0.2585
  184POPC  C31421203   5.064  -0.636   4.148  0.3851  0.1389  0.7846
  184POPC  H14X21204   5.075  -0.583   4.245 -1.8830  2.8827 -0.3825
  184POPC  H14Y21205   5.013  -0.581   4.066  1.0649 -2.1181 -1.2228
  184POPC  C31521206   5.208  -0.671   4.109 -0.1586 -0.4607 -0.6106
  184POPC  H15X21207   5.237  -0.769   4.151  0.3268 -0.9174 -1.9700
  184POPC  H15Y21208   5.277  -0.598   4.158 -0.6354  1.1881 -2.3156
  184POPC  C31621209   5.226  -0.672   3.956  0.0673  0.0797  0.4469
  184POPC  H16X21210   5.332  -0.699   3.939  0.2203  1.1014 -0.2867
  184POPC  H16Y21211   5.229  -0.567   3.919 -2.4191  0.1733  0.4450
  184POPC  H16Z21212   5.149  -0.736   3.908  0.4518 -0.4881  0.5903
  185POPC     N21213   3.970   3.670   1.893 -0.1267 -0.0204  0.7856
  185POPC   C1221214   3.987   3.656   2.043  0.0635 -0.3808  0.0196
  185POPC  H12A21215   3.889   3.656   2.088 -0.2861 -0.2114 -0.7323
  185POPC  H12B21216   4.036   3.742   2.085  0.7041 -1.4312  1.4514
  185POPC   C1321217   3.892   3.797   1.870 -0.5677  0.2240  0.8947
  185POPC  H13A21218   3.874   3.807   1.764 -2.7277  3.5656  1.5123
  185POPC  H13B21219   3.792   3.791   1.909 -0.2862 -1.2615  1.4482
  185POPC  H13C21220   3.950   3.883   1.897 -2.2454  1.6877 -0.0639
  185POPC   C1421221   4.106   3.675   1.817  0.5073  0.1992  0.4446
  185POPC  H14A21222   4.159   3.762   1.851  1.5725 -0.0216 -0.6229
  185POPC  H14B21223   4.164   3.586   1.835 -0.7687 -0.6912  0.2698
  185POPC  H14C21224   4.095   3.692   1.711  0.6842  1.3730  0.6154
  185POPC   C1521225   3.900   3.550   1.846 -0.3020  0.6781 -0.3653
  185POPC  H15A21226   3.878   3.562   1.741  0.6235  2.7321 -0.3491
  185POPC  H15B21227   3.811   3.526   1.903  0.8196  0.5711  1.3781
  185POPC  H15C21228   3.960   3.461   1.858 -0.1720  0.8809  0.5471
  185POPC   C1121229   4.068   3.531   2.102 -0.1709  0.1598 -0.4097
  185POPC  H11A21230   4.065   3.543   2.212 -0.2236 -0.0364 -0.3876
  185POPC  H11B21231   4.175   3.545   2.075  0.3429 -1.0390  0.9001
  185POPC     P21232   3.921   3.324   2.157  0.0014  0.2866  0.2685
  185POPC   O1321233   3.882   3.197   2.086 -0.3855  0.3298  0.0804
  185POPC   O1421234   3.808   3.405   2.206  0.2482  0.4921 -0.5748
  185POPC   O1221235   4.013   3.411   2.059  0.0502 -0.3962  0.2018
  185POPC   O1121236   4.017   3.286   2.277 -0.2086  0.3909 -0.2045
  185POPC    C121237   4.155   3.259   2.266  0.5407  0.5884  0.5593
  185POPC    HA21238   4.211   3.352   2.290  2.1578  0.2210 -1.5778
  185POPC    HB21239   4.184   3.243   2.160 -2.0397  2.0867 -0.4041
  185POPC    C221240   4.208   3.122   2.330  0.1656  0.1994  0.7577
  185POPC    HS21241   4.150   3.045   2.273 -0.0655  0.9803 -0.0742
  185POPC   O2121242   4.168   3.117   2.468 -0.1092 -0.4295 -0.2524
  185POPC   C2121243   4.171   2.989   2.523  0.5952  0.3977  0.1775
  185POPC   O2221244   4.185   2.887   2.457  1.3782 -0.1546 -0.4432
  185POPC   C2221245   4.157   3.004   2.671  0.0019 -0.4716  1.0729
  185POPC   H2R21246   4.075   3.071   2.702  2.1792  1.8205  2.0799
  185POPC   H2S21247   4.252   3.047   2.709 -0.8650  1.5349  1.0179
  185POPC    C321248   4.361   3.092   2.312  0.2711  0.6278 -0.6134
  185POPC    HX21249   4.390   3.087   2.205  2.3479 -2.5573  0.0072
  185POPC    HY21250   4.385   2.989   2.347 -1.1551 -0.5602 -3.0497
  185POPC   O3121251   4.440   3.190   2.379 -0.3517  0.3035  0.6910
  185POPC   C3121252   4.490   3.162   2.496  0.2979 -0.1962  0.4540
  185POPC   O3221253   4.490   3.047   2.546 -0.3866  0.3441  0.5533
  185POPC   C3221254   4.543   3.291   2.562  0.2245  0.2652  0.0826
  185POPC   H2X21255   4.616   3.326   2.486  0.3132 -0.7622 -0.3099
  185POPC   H2Y21256   4.595   3.268   2.657  1.2428 -0.6350 -0.6752
  185POPC   C2321257   4.126   2.861   2.726 -0.5420  0.1720 -0.1626
  185POPC   H3R21258   4.205   2.788   2.700  0.3777  0.5063  1.5769
  185POPC   H3S21259   4.035   2.812   2.685 -0.9312  0.6453  0.1181
  185POPC   C2421260   4.113   2.867   2.878 -0.1752  0.6594  0.1825
  185POPC   H4R21261   4.050   2.953   2.910  0.4295  0.8972  0.7603
  185POPC   H4S21262   4.214   2.887   2.921 -0.4277 -0.2290  1.2201
  185POPC   C2521263   4.068   2.732   2.928 -0.9384 -0.0268  0.0589
  185POPC   H5R21264   4.122   2.651   2.874 -3.2314 -1.1275 -0.6378
  185POPC   H5S21265   3.961   2.713   2.905 -0.3261  0.6864 -3.7119
  185POPC   C2621266   4.089   2.725   3.080 -0.3445  0.4977 -0.4228
  185POPC   H6R21267   4.026   2.796   3.137 -0.1033  0.9484 -0.7096
  185POPC   H6S21268   4.194   2.756   3.103 -0.3474 -1.9025  3.2808
  185POPC   C2721269   4.068   2.583   3.143 -0.7124 -0.0047 -0.0560
  185POPC   H7R21270   4.158   2.525   3.113 -0.0816  0.6051  0.6554
  185POPC   H7S21271   3.975   2.537   3.104 -0.7623  0.6377 -0.6962
  185POPC   C2821272   4.072   2.593   3.298 -0.6969 -0.5660  0.2400
  185POPC   H8R21273   4.026   2.503   3.345 -0.6983 -0.5332  0.3013
  185POPC   H8S21274   4.002   2.673   3.327 -0.3967  0.1250 -0.9051
  185POPC   C2921275   4.199   2.635   3.373  0.7693  0.1514 -0.7214
  185POPC   H9121276   4.244   2.725   3.329 -1.9391  0.4167 -3.0260
  185POPC  C21021277   4.256   2.573   3.477  0.1528  0.8244  0.5219
  185POPC  H10121278   4.356   2.608   3.507  0.1678  0.3370  1.0532
  185POPC  C21121279   4.218   2.438   3.535 -0.3795  0.3570 -0.1172
  185POPC  H11R21280   4.291   2.358   3.514  1.6335  1.2554  3.0917
  185POPC  H11S21281   4.117   2.409   3.497 -0.9216  3.8838 -1.5598
  185POPC  C21221282   4.213   2.446   3.691 -0.6937 -0.0852  0.3230
  185POPC  H12R21283   4.162   2.542   3.715  2.3174  1.3198  1.3601
  185POPC  H12S21284   4.308   2.467   3.744 -1.4693  1.8300  1.0185
  185POPC  C21321285   4.145   2.325   3.756  0.1097 -0.1636 -0.3556
  185POPC  H13R21286   4.061   2.284   3.696  0.8443 -1.4464 -0.5174
  185POPC  H13S21287   4.125   2.353   3.862  1.8812  0.0040 -0.0516
  185POPC  C21421288   4.250   2.216   3.770 -0.0961 -0.1955 -0.1728
  185POPC  H14R21289   4.313   2.253   3.853  1.4452 -1.3518 -0.8114
  185POPC  H14S21290   4.295   2.200   3.669 -1.1829  2.1354 -1.0579
  185POPC  C21521291   4.181   2.087   3.818  0.8121 -0.8306 -0.4876
  185POPC  H15R21292   4.090   2.066   3.758 -0.1953  1.9372 -0.0056
  185POPC  H15S21293   4.145   2.109   3.921  0.9822 -0.9575 -0.4011
  185POPC  C21621294   4.292   1.979   3.824  0.5149 -0.1339 -0.0077
  185POPC  H16R21295   4.384   2.010   3.879  1.2275 -0.0864 -1.2097
  185POPC  H16S21296   4.331   1.971   3.720 -0.4738 -0.2270 -0.3793
  185POPC  C21721297   4.238   1.847   3.880  0.3752 -0.3578 -0.6144
  185POPC  H17R21298   4.145   1.823   3.822 -0.6397 -0.2968  0.9680
  185POPC  H17S21299   4.207   1.843   3.986  0.5298 -2.1031 -0.6159
  185POPC  C21821300   4.340   1.728   3.852 -0.0391 -0.3114  0.1416
  185POPC  H18R21301   4.435   1.736   3.907 -0.0800 -0.7759  0.2745
  185POPC  H18S21302   4.378   1.746   3.749  0.5196  0.9218  0.5577
  185POPC  H18T21303   4.290   1.629   3.861 -1.7692  0.5649  0.5245
  185POPC   C3321304   4.437   3.404   2.600  0.0162  0.7797  0.0056
  185POPC   H3X21305   4.387   3.431   2.505  0.0317 -1.0116 -0.5351
  185POPC   H3Y21306   4.480   3.502   2.630 -1.5987  1.5957 -0.3017
  185POPC   C3421307   4.320   3.368   2.694 -0.2157  0.0514 -0.5924
  185POPC   H4X21308   4.228   3.324   2.648 -1.9136  0.9485  1.8575
  185POPC   H4Y21309   4.293   3.474   2.716  2.0589  0.1793  1.7040
  185POPC   C3521310   4.373   3.307   2.824  0.0967 -0.2150 -0.3058
  185POPC   H5X21311   4.451   3.373   2.869  0.6189 -0.0739 -1.4203
  185POPC   H5Y21312   4.413   3.207   2.801  1.1537  0.2612 -0.5568
  185POPC   C3621313   4.254   3.283   2.916  0.4831 -0.9527  0.0078
  185POPC   H6X21314   4.164   3.241   2.867  0.7641 -1.6351  0.0675
  185POPC   H6Y21315   4.214   3.379   2.954  1.1549  0.0885 -1.8457
  185POPC   C3721316   4.289   3.191   3.034 -0.5060 -0.6129 -1.1003
  185POPC   H7X21317   4.378   3.234   3.086  0.3092 -1.9112 -1.4008
  185POPC   H7Y21318   4.319   3.095   2.987  2.9557  0.6190 -1.6472
  185POPC   C3821319   4.169   3.176   3.133 -0.1410  0.3964 -0.5786
  185POPC   H8X21320   4.096   3.104   3.093  0.5725  0.6760 -2.4188
  185POPC   H8Y21321   4.133   3.281   3.134 -0.8150  0.2068 -2.7542
  185POPC   C3921322   4.183   3.134   3.279 -0.3357  0.4287 -0.9220
  185POPC   H9X21323   4.253   3.207   3.325 -0.5661 -0.8201  1.5067
  185POPC   H9Y21324   4.243   3.041   3.288  0.3596  1.0969  2.3492
  185POPC  C31021325   4.058   3.107   3.361 -0.1921  0.6175  0.2556
  185POPC  H10X21326   3.993   3.034   3.310  0.1710  1.4427 -1.4011
  185POPC  H10Y21327   3.999   3.200   3.373 -1.2394  0.1024 -0.8691
  185POPC  C31121328   4.086   3.067   3.506  0.4838 -0.3102 -0.9193
  185POPC  H11X21329   4.130   3.160   3.547  2.9581 -1.3848 -1.0256
  185POPC  H11Y21330   4.158   2.983   3.516  0.0782 -0.4238  1.2516
  185POPC  C31221331   3.963   3.027   3.591  0.0999  0.0020 -0.2745
  185POPC  H12X21332   3.897   3.116   3.586  1.4274  1.2808  3.0385
  185POPC  H12Y21333   4.000   3.021   3.696  0.6716 -0.6424 -0.5035
  185POPC  C31321334   3.898   2.899   3.549  0.3682  0.1547 -0.3777
  185POPC  H13X21335   3.978   2.826   3.523  0.7258  0.0172  1.0815
  185POPC  H13Y21336   3.846   2.925   3.454  3.1778 -0.3159 -2.1135
  185POPC  C31421337   3.791   2.836   3.646  0.3325 -0.1887  0.4830
  185POPC  H14X21338   3.761   2.732   3.621 -0.3465 -0.1190  1.0090
  185POPC  H14Y21339   3.702   2.903   3.647 -0.5050 -1.2802  1.2920
  185POPC  C31521340   3.827   2.828   3.798 -0.8179 -0.5367  0.8173
  185POPC  H15X21341   3.815   2.935   3.829  2.1401 -0.4449  1.7856
  185POPC  H15Y21342   3.935   2.805   3.805 -1.4809 -4.0836 -0.0672
  185POPC  C31621343   3.759   2.727   3.882 -0.0707  0.3154  0.0643
  185POPC  H16X21344   3.789   2.724   3.989 -1.5062 -1.8988  0.4285
  185POPC  H16Y21345   3.783   2.626   3.842 -1.9320 -0.5295  1.0397
  185POPC  H16Z21346   3.650   2.743   3.873 -0.2481 -1.2964 -0.8181
  186POPC     N21347   4.146   4.646   1.768  0.9629 -0.3182  0.2529
  186POPC   C1221348   4.195   4.645   1.911  0.3511 -0.2077  0.6467
  186POPC  H12A21349   4.251   4.555   1.933  0.7113 -0.9925 -3.1773
  186POPC  H12B21350   4.110   4.638   1.977  0.2920  0.9043  0.7051
  186POPC   C1321351   4.052   4.531   1.751 -0.0148 -0.4181 -0.1543
  186POPC  H13A21352   4.096   4.434   1.766 -1.1620 -0.8818  0.2878
  186POPC  H13B21353   3.962   4.540   1.811  0.7092  1.4755  0.6926
  186POPC  H13C21354   4.003   4.532   1.655  0.1438  0.6086 -0.2302
  186POPC   C1421355   4.071   4.777   1.732  0.1994  0.3950 -0.1318
  186POPC  H14A21356   3.989   4.803   1.797  0.2382 -1.0729  0.5352
  186POPC  H14B21357   4.141   4.859   1.741 -0.9633  1.4576 -0.7635
  186POPC  H14C21358   4.046   4.772   1.627 -1.9533  0.9311  0.3325
  186POPC   C1521359   4.271   4.619   1.684 -0.0618 -0.6707 -0.2680
  186POPC  H15A21360   4.341   4.693   1.720  0.0925 -1.0220  0.1635
  186POPC  H15B21361   4.255   4.626   1.577 -2.4265  0.3759  0.1181
  186POPC  H15C21362   4.324   4.527   1.705  0.1389 -0.5634 -0.2987
  186POPC   C1121363   4.274   4.768   1.960 -0.3637 -0.8747  0.0644
  186POPC  H11A21364   4.288   4.755   2.069 -1.7202 -1.9918  0.1157
  186POPC  H11B21365   4.213   4.859   1.941 -0.0840 -0.5436  0.7551
  186POPC     P21366   4.492   4.894   1.915  0.1088  0.3693 -0.5683
  186POPC   O1321367   4.413   5.014   1.954  0.7798  0.5500  0.0579
  186POPC   O1421368   4.580   4.910   1.804 -0.3910 -0.0339 -0.0768
  186POPC   O1221369   4.396   4.773   1.890 -0.5278 -0.0951 -0.7668
  186POPC   O1121370   4.579   4.849   2.040 -0.1088  0.5969 -0.3634
  186POPC    C121371   4.677   4.744   2.023 -0.4507  0.2408  0.0018
  186POPC    HA21372   4.776   4.784   2.054 -0.2744  0.2969 -0.6252
  186POPC    HB21373   4.698   4.731   1.915  1.1235 -1.5271  0.4987
  186POPC    C221374   4.640   4.604   2.079  0.6566 -0.0336 -0.4871
  186POPC    HS21375   4.549   4.566   2.027 -0.5084  0.7032  0.9869
  186POPC   O2121376   4.622   4.617   2.223 -0.0635 -0.5619 -0.0071
  186POPC   C2121377   4.553   4.520   2.268  0.8750  0.1419  0.1566
  186POPC   O2221378   4.507   4.426   2.208  0.1002 -0.3679 -0.0841
  186POPC   C2221379   4.521   4.546   2.419  0.1959  0.0384  0.4299
  186POPC   H2R21380   4.413   4.540   2.444  0.6727  1.3273  2.9486
  186POPC   H2S21381   4.559   4.648   2.440 -0.3140  0.0510  1.3026
  186POPC    C321382   4.754   4.504   2.048 -0.2766  0.0987 -0.3080
  186POPC    HX21383   4.780   4.509   1.941 -0.0687 -1.0144 -0.3226
  186POPC    HY21384   4.711   4.406   2.079  0.3656  0.0229  0.3815
  186POPC   O3121385   4.880   4.538   2.123 -0.5444 -0.0566  0.0007
  186POPC   C3121386   4.909   4.456   2.223  0.1609  0.0652 -0.7302
  186POPC   O3221387   4.836   4.361   2.259  0.2598 -0.4190 -0.0218
  186POPC   C3221388   5.035   4.502   2.302 -0.1795  0.3433  0.5625
  186POPC   H2X21389   5.126   4.512   2.240 -0.4814  0.0898  0.0737
  186POPC   H2Y21390   5.041   4.425   2.382  0.1054 -0.1949  0.0230
  186POPC   C2321391   4.588   4.451   2.525  0.7271  0.2193 -0.3861
  186POPC   H3R21392   4.623   4.354   2.484 -2.9459 -1.6351  0.6509
  186POPC   H3S21393   4.513   4.419   2.601  1.7768 -2.1614 -0.3403
  186POPC   C2421394   4.704   4.519   2.596 -0.2185 -0.4755 -0.4125
  186POPC   H4R21395   4.664   4.616   2.633 -1.6559 -0.4871 -1.8982
  186POPC   H4S21396   4.792   4.535   2.531 -0.1586  0.3933 -0.1278
  186POPC   C2521397   4.753   4.428   2.709  0.0313 -0.4751  0.7441
  186POPC   H5R21398   4.767   4.332   2.655  2.3799 -0.3841  1.1329
  186POPC   H5S21399   4.674   4.412   2.786  0.0293  1.2799  1.1149
  186POPC   C2621400   4.872   4.467   2.791 -0.5877  1.0458 -0.2744
  186POPC   H6R21401   4.861   4.572   2.824 -3.2502  0.2420  1.5385
  186POPC   H6S21402   4.960   4.472   2.723 -1.6334  1.0400 -1.6704
  186POPC   C2721403   4.896   4.359   2.907  0.0424 -0.8674 -0.0406
  186POPC   H7R21404   4.880   4.260   2.859  1.5474 -0.7264 -0.8593
  186POPC   H7S21405   4.815   4.375   2.982  0.7922  1.4508  0.3122
  186POPC   C2821406   5.030   4.369   2.969  0.0232  0.1615  0.1555
  186POPC   H8R21407   5.067   4.474   2.967  0.7660 -0.0975 -1.9846
  186POPC   H8S21408   5.100   4.328   2.892  0.3579  2.2151 -0.6667
  186POPC   C2921409   5.063   4.291   3.098  0.4977  0.9421  0.3807
  186POPC   H9121410   5.140   4.213   3.094 -1.5544 -1.1008 -0.0444
  186POPC  C21021411   5.007   4.314   3.222  0.4660  0.0291  0.2154
  186POPC  H10121412   5.039   4.253   3.307  1.3650  2.0270  1.3366
  186POPC  C21121413   4.900   4.413   3.259  0.2479  0.1543 -0.4455
  186POPC  H11R21414   4.892   4.497   3.187 -1.2573  0.5093  0.1200
  186POPC  H11S21415   4.945   4.462   3.348 -0.2576 -1.8388  0.9579
  186POPC  C21221416   4.763   4.344   3.301 -0.0838  0.6477  0.0944
  186POPC  H12R21417   4.699   4.426   3.340  1.1141  1.1024  1.1349
  186POPC  H12S21418   4.788   4.277   3.386 -1.0562 -0.1518 -0.2446
  186POPC  C21321419   4.691   4.266   3.201  0.7586  0.0745  0.0303
  186POPC  H13R21420   4.766   4.188   3.175  1.6714  0.9073  0.1420
  186POPC  H13S21421   4.663   4.331   3.115  0.4214  0.4746  0.4391
  186POPC  C21421422   4.552   4.206   3.234 -0.3818 -0.0762  0.0181
  186POPC  H14R21423   4.501   4.166   3.144  0.5386 -4.8195  1.5042
  186POPC  H14S21424   4.491   4.280   3.292 -0.1355 -0.1234  0.3368
  186POPC  C21521425   4.558   4.086   3.325 -0.1768  0.4558 -0.3782
  186POPC  H15R21426   4.577   4.117   3.431 -0.5380 -2.2332  0.5007
  186POPC  H15S21427   4.634   4.011   3.297 -2.6977 -2.9279  1.4765
  186POPC  C21621428   4.425   4.017   3.324 -0.0496 -0.1633 -0.5276
  186POPC  H16R21429   4.351   4.081   3.270  1.0581  1.0425 -0.6367
  186POPC  H16S21430   4.386   4.016   3.428 -0.1860  4.0947 -0.4150
  186POPC  C21721431   4.435   3.880   3.265  0.5269 -0.6232  0.2228
  186POPC  H17R21432   4.522   3.826   3.308 -0.0795 -0.2638  1.9301
  186POPC  H17S21433   4.471   3.880   3.160 -1.3835 -0.0014 -0.4450
  186POPC  C21821434   4.306   3.794   3.276  0.0611 -0.1534  0.1546
  186POPC  H18R21435   4.305   3.700   3.217  0.9231 -1.3168  1.9544
  186POPC  H18S21436   4.266   3.761   3.375 -2.2444 -0.3724 -0.8242
  186POPC  H18T21437   4.229   3.855   3.224  0.8229  1.3440  0.7393
  186POPC   C3321438   5.012   4.638   2.367  0.5099  0.6505  0.2176
  186POPC   H3X21439   4.905   4.650   2.394  0.2729  0.2351 -0.5367
  186POPC   H3Y21440   5.031   4.721   2.296 -1.2799  1.5113  0.7187
  186POPC   C3421441   5.096   4.658   2.497 -0.0672  0.0165 -0.3893
  186POPC   H4X21442   5.202   4.666   2.464 -0.0126  1.1601  0.0402
  186POPC   H4Y21443   5.082   4.569   2.561  0.3511 -0.0486 -0.3838
  186POPC   C3521444   5.039   4.783   2.570 -0.9498 -0.2641 -0.2388
  186POPC   H5X21445   4.935   4.755   2.598 -1.1478 -0.4587 -1.1735
  186POPC   H5Y21446   5.036   4.864   2.494 -2.2481  0.5913  0.6864
  186POPC   C3621447   5.109   4.842   2.692  0.0398 -0.0769  0.4265
  186POPC   H6X21448   5.064   4.937   2.725 -1.1020 -0.7703  0.8955
  186POPC   H6Y21449   5.214   4.867   2.664 -0.9567  2.3528 -1.2644
  186POPC   C3721450   5.116   4.752   2.824  0.1570 -0.0393 -0.1074
  186POPC   H7X21451   5.156   4.653   2.793 -0.8160 -0.0399 -1.4531
  186POPC   H7Y21452   5.012   4.728   2.855 -0.7615 -0.2884 -3.1704
  186POPC   C3821453   5.213   4.818   2.925  0.6895 -0.6522 -0.2176
  186POPC   H8X21454   5.166   4.913   2.959  0.5534 -1.0817  0.7951
  186POPC   H8Y21455   5.306   4.830   2.865  0.9170  0.2420  0.3012
  186POPC   C3921456   5.235   4.725   3.046  0.0543  0.4580  0.3511
  186POPC   H9X21457   5.338   4.715   3.086  0.2868  0.0728 -0.3295
  186POPC   H9Y21458   5.214   4.621   3.016  0.4759  0.5039 -0.1175
  186POPC  C31021459   5.133   4.775   3.148  0.0642  0.1860 -0.6749
  186POPC  H10X21460   5.029   4.752   3.119 -0.7927  2.7780  0.2426
  186POPC  H10Y21461   5.133   4.883   3.172 -1.9584 -0.0073  0.2722
  186POPC  C31121462   5.176   4.701   3.283  0.4136  0.4206  0.5920
  186POPC  H11X21463   5.267   4.748   3.327  0.0303  3.8355 -1.9609
  186POPC  H11Y21464   5.178   4.592   3.261 -0.0910  0.3318  0.9995
  186POPC  C31221465   5.079   4.719   3.398 -0.7719 -0.5477 -0.0714
  186POPC  H12X21466   5.100   4.650   3.483 -0.6499 -0.7316 -0.2483
  186POPC  H12Y21467   4.978   4.689   3.362 -0.6742  0.8310 -1.5003
  186POPC  C31321468   5.071   4.863   3.471  0.6843  0.0420  1.0742
  186POPC  H13X21469   4.962   4.872   3.489 -0.0860 -4.1613 -1.0223
  186POPC  H13Y21470   5.110   4.938   3.398  3.1915 -1.5706  0.6847
  186POPC  C31421471   5.147   4.857   3.596 -0.6337 -0.4475 -0.1183
  186POPC  H14X21472   5.255   4.840   3.576 -0.9037 -3.3965  0.8012
  186POPC  H14Y21473   5.109   4.766   3.646 -1.9246 -1.2360 -2.4718
  186POPC  C31521474   5.124   4.988   3.684  0.8870 -0.2635 -0.6831
  186POPC  H15X21475   5.160   5.070   3.618 -2.0591  1.1660 -0.6115
  186POPC  H15Y21476   5.189   4.986   3.775  2.9432  0.6813 -2.0974
  186POPC  C31621477   4.978   5.019   3.726  0.0387 -0.0103  0.0177
  186POPC  H16X21478   4.972   5.121   3.770 -0.7146 -0.4011  0.8263
  186POPC  H16Y21479   4.942   4.948   3.803  0.8026 -1.8422 -1.2870
  186POPC  H16Z21480   4.910   5.002   3.639 -0.5455 -1.4988  0.7539
  187POPC     N21481   3.795   1.250   1.688 -0.3835 -0.0138  0.1315
  187POPC   C1221482   3.868   1.287   1.820 -0.0230 -0.0159  0.3785
  187POPC  H12A21483   3.951   1.220   1.833 -1.1312 -1.2009  1.4186
  187POPC  H12B21484   3.803   1.271   1.905 -1.6797 -0.5458 -0.9653
  187POPC   C1321485   3.786   1.103   1.684  0.1127  0.1136 -0.2309
  187POPC  H13A21486   3.886   1.069   1.705  0.3463 -0.9331 -2.8636
  187POPC  H13B21487   3.718   1.059   1.755 -2.0132  0.1893 -2.1665
  187POPC  H13C21488   3.749   1.063   1.591  2.3424 -1.2758 -0.5677
  187POPC   C1421489   3.662   1.327   1.680 -0.1616 -0.3157 -0.5376
  187POPC  H14A21490   3.603   1.290   1.763  1.8541 -1.3500  0.4621
  187POPC  H14B21491   3.687   1.427   1.709 -0.4528 -0.1527 -0.8403
  187POPC  H14C21492   3.608   1.302   1.589  0.3442 -0.5429 -0.7749
  187POPC   C1521493   3.875   1.279   1.567  0.0569  0.0291  0.3271
  187POPC  H15A21494   3.962   1.215   1.558  0.8981  0.9004  2.0945
  187POPC  H15B21495   3.907   1.382   1.563  0.3063 -0.0636 -0.1894
  187POPC  H15C21496   3.813   1.256   1.481  1.5460  2.9589 -1.6316
  187POPC   C1121497   3.931   1.431   1.819 -0.3840 -0.3223  0.5376
  187POPC  H11A21498   3.958   1.444   1.925  3.7390  1.0136 -0.5919
  187POPC  H11B21499   3.845   1.497   1.792 -0.4149 -0.1438  1.0771
  187POPC     P21500   4.188   1.417   1.789 -0.5723 -0.0704  0.0098
  187POPC   O1321501   4.266   1.363   1.677 -0.5714  0.0533 -0.4494
  187POPC   O1421502   4.179   1.331   1.907  0.2146  0.2071 -0.7033
  187POPC   O1221503   4.037   1.444   1.730  0.3868 -0.9805 -0.3431
  187POPC   O1121504   4.234   1.565   1.815  0.3342  0.5694 -0.2646
  187POPC    C121505   4.196   1.631   1.936 -0.1385 -0.2433  0.0565
  187POPC    HA21506   4.162   1.563   2.017 -0.7711 -1.3278 -1.1065
  187POPC    HB21507   4.110   1.697   1.914  1.1746  1.3219 -0.5313
  187POPC    C221508   4.313   1.713   1.992 -0.0784 -0.5286  0.0466
  187POPC    HS21509   4.407   1.683   1.940 -1.2451 -0.2811 -2.2265
  187POPC   O2121510   4.325   1.673   2.140  0.8548  0.1255  0.0739
  187POPC   C2121511   4.434   1.713   2.194  0.1342 -0.1648 -0.1515
  187POPC   O2221512   4.531   1.751   2.128 -0.9574  0.4638 -0.4821
  187POPC   C2221513   4.434   1.687   2.345 -0.4678  0.5492  0.0415
  187POPC   H2R21514   4.343   1.627   2.368 -0.6469  1.2179  1.0674
  187POPC   H2S21515   4.430   1.784   2.399 -0.5210  2.1809 -2.7612
  187POPC    C321516   4.286   1.872   1.986  0.1533  0.0156  0.2311
  187POPC    HX21517   4.270   1.899   1.879  2.3858  0.3621 -0.0481
  187POPC    HY21518   4.385   1.914   2.016  0.4172  0.7028 -1.5345
  187POPC   O3121519   4.190   1.924   2.076  0.3435  0.5324 -0.0631
  187POPC   C3121520   4.070   1.964   2.017 -0.2667  0.0439  0.3747
  187POPC   O3221521   4.034   1.935   1.904 -0.1889 -0.1552  0.3420
  187POPC   C3221522   3.976   2.056   2.104 -1.1540 -0.1956 -0.3963
  187POPC   H2X21523   3.883   1.996   2.117  0.4321 -2.3988  1.2597
  187POPC   H2Y21524   3.953   2.144   2.040  0.7757  0.0995 -0.7102
  187POPC   C2321525   4.558   1.613   2.402 -0.3689  0.3107  0.1176
  187POPC   H3R21526   4.649   1.667   2.369 -1.0270  1.2118 -0.2227
  187POPC   H3S21527   4.568   1.510   2.361  0.6248 -0.1038  1.3664
  187POPC   C2421528   4.545   1.586   2.555 -0.3268 -1.2072 -0.4896
  187POPC   H4R21529   4.445   1.550   2.587 -0.0881 -0.9097  0.6421
  187POPC   H4S21530   4.548   1.687   2.600  1.5869 -1.5855  0.3013
  187POPC   C2521531   4.643   1.473   2.607  0.2523  0.7105  0.5553
  187POPC   H5R21532   4.746   1.491   2.569  0.1681 -1.6799 -0.8717
  187POPC   H5S21533   4.602   1.385   2.553 -0.3689 -0.1997  2.4691
  187POPC   C2621534   4.648   1.454   2.760 -0.4918 -0.0787  0.0264
  187POPC   H6R21535   4.692   1.549   2.797 -1.2991  1.0921 -1.9275
  187POPC   H6S21536   4.718   1.369   2.779 -0.3494 -0.1394 -0.7493
  187POPC   C2721537   4.513   1.418   2.826 -0.2058  0.3472  0.2217
  187POPC   H7R21538   4.484   1.321   2.780 -0.9169  0.1434  1.0846
  187POPC   H7S21539   4.440   1.501   2.812 -1.0558 -0.5608 -0.7557
  187POPC   C2821540   4.512   1.409   2.986  0.4652 -0.7338  0.1244
  187POPC   H8R21541   4.405   1.411   3.015  0.6670  1.2111  0.8088
  187POPC   H8S21542   4.564   1.499   3.025 -0.7930  1.7284 -3.5948
  187POPC   C2921543   4.588   1.293   3.034 -0.2969 -0.2209 -0.0380
  187POPC   H9121544   4.695   1.307   3.014 -0.6305 -0.4199 -2.0856
  187POPC  C21021545   4.542   1.190   3.110 -0.2130 -0.5725 -0.7086
  187POPC  H10121546   4.621   1.130   3.157  1.5610  1.8742 -0.5324
  187POPC  C21121547   4.403   1.164   3.154 -0.3769  0.3599  0.0985
  187POPC  H11R21548   4.381   1.056   3.140  0.2232 -0.1343  2.7931
  187POPC  H11S21549   4.330   1.203   3.080  0.6011 -0.2085 -1.1744
  187POPC  C21221550   4.376   1.212   3.296 -0.5964 -0.4191  0.5164
  187POPC  H12R21551   4.450   1.169   3.367 -0.7621 -0.1771  0.8335
  187POPC  H12S21552   4.279   1.166   3.323 -2.9011  2.5541 -2.2594
  187POPC  C21321553   4.364   1.357   3.330  0.7019 -0.4513 -0.6564
  187POPC  H13R21554   4.279   1.401   3.274  2.8296  0.2060 -3.4597
  187POPC  H13S21555   4.460   1.410   3.311  0.6891  0.3467  1.4006
  187POPC  C21421556   4.334   1.388   3.471  0.2691 -0.2601  0.4122
  187POPC  H14R21557   4.238   1.342   3.502 -0.1889  1.0965  1.0212
  187POPC  H14S21558   4.313   1.497   3.477  1.3641 -0.1349  2.1374
  187POPC  C21521559   4.437   1.343   3.571 -0.5984  0.1923 -0.5361
  187POPC  H15R21560   4.538   1.374   3.538 -0.4368  1.2206  0.8483
  187POPC  H15S21561   4.442   1.234   3.592  0.8360  0.1164 -1.2198
  187POPC  C21621562   4.437   1.421   3.701  0.3984 -0.5597 -0.2709
  187POPC  H16R21563   4.345   1.399   3.760 -0.3913  2.2423 -0.3871
  187POPC  H16S21564   4.447   1.528   3.673 -0.6139 -0.4223 -0.1087
  187POPC  C21721565   4.564   1.383   3.781  0.4100 -0.7060 -0.0735
  187POPC  H17R21566   4.653   1.407   3.720  1.0013  0.1728  1.1046
  187POPC  H17S21567   4.562   1.274   3.800 -0.6725 -1.0760 -2.2178
  187POPC  C21821568   4.570   1.456   3.911  0.0368 -0.3303 -0.7246
  187POPC  H18R21569   4.492   1.423   3.983  0.2493  2.5338  0.8892
  187POPC  H18S21570   4.572   1.567   3.904 -1.6431 -0.1973  0.6949
  187POPC  H18T21571   4.671   1.444   3.955 -0.5136  0.9764  0.9517
  187POPC   C3321572   4.052   2.113   2.228 -0.6399 -0.5010  0.1553
  187POPC   H3X21573   4.151   2.160   2.218 -0.0293 -0.6394  4.4753
  187POPC   H3Y21574   4.080   2.026   2.291  3.4415  0.8505  0.3025
  187POPC   C3421575   3.962   2.197   2.320  0.3729 -0.4386  0.4779
  187POPC   H4X21576   3.862   2.149   2.317  0.4623 -0.5648 -0.6137
  187POPC   H4Y21577   3.954   2.300   2.279  0.7625 -0.8516 -0.6545
  187POPC   C3521578   4.023   2.222   2.451 -0.0232 -0.4647  0.2870
  187POPC   H5X21579   4.095   2.307   2.444  0.4634 -1.0163 -1.8484
  187POPC   H5Y21580   4.089   2.141   2.490 -0.8064 -1.0169  0.4729
  187POPC   C3621581   3.919   2.248   2.561  0.6930  0.3580 -0.6391
  187POPC   H6X21582   3.979   2.251   2.654  1.2241  1.9492 -1.0127
  187POPC   H6Y21583   3.845   2.167   2.577  0.5530  0.9684  2.0947
  187POPC   C3721584   3.839   2.382   2.549 -0.0867 -0.4090 -0.1452
  187POPC   H7X21585   3.758   2.371   2.474 -1.3016  3.4693  0.4996
  187POPC   H7Y21586   3.907   2.465   2.520  1.2098 -0.4595  2.5310
  187POPC   C3821587   3.768   2.419   2.674 -0.3151 -0.5046 -0.6883
  187POPC   H8X21588   3.735   2.522   2.650  1.4732  0.8926  2.5639
  187POPC   H8Y21589   3.835   2.432   2.762  0.3986 -1.6220 -1.0566
  187POPC   C3921590   3.644   2.338   2.715  0.2965 -0.2416 -0.3700
  187POPC   H9X21591   3.660   2.229   2.696 -1.3640  0.0198 -3.6326
  187POPC   H9Y21592   3.558   2.375   2.654 -0.0145  0.5236  0.5243
  187POPC  C31021593   3.628   2.347   2.865 -0.9268  0.0255 -0.6971
  187POPC  H10X21594   3.591   2.449   2.891 -2.1154 -0.4909 -0.3268
  187POPC  H10Y21595   3.727   2.324   2.910 -0.7010  4.2656  1.2359
  187POPC  C31121596   3.519   2.254   2.928 -0.5104 -1.2335  0.3098
  187POPC  H11X21597   3.539   2.146   2.909 -0.6298 -1.3330  0.7410
  187POPC  H11Y21598   3.423   2.276   2.878 -0.8391 -0.5103  1.2449
  187POPC  C31221599   3.506   2.279   3.083 -0.1024  0.0944 -0.6817
  187POPC  H12X21600   3.471   2.382   3.106 -1.8109 -0.4743 -0.7163
  187POPC  H12Y21601   3.607   2.276   3.129 -0.2398 -0.5708 -0.4127
  187POPC  C31321602   3.436   2.178   3.177  0.0316  1.0275 -0.3946
  187POPC  H13X21603   3.326   2.188   3.171 -0.3023 -0.7067  2.1922
  187POPC  H13Y21604   3.456   2.207   3.282 -1.2051 -0.7062  0.3335
  187POPC  C31421605   3.500   2.037   3.148 -0.2157 -1.0621  0.5140
  187POPC  H14X21606   3.611   2.041   3.135 -0.5215  2.3128 -1.6233
  187POPC  H14Y21607   3.448   1.996   3.059 -0.7865 -1.4040  1.0085
  187POPC  C31521608   3.464   1.943   3.262 -0.2172  0.1615 -0.3427
  187POPC  H15X21609   3.492   1.994   3.357 -1.5269  0.1934  0.0368
  187POPC  H15Y21610   3.521   1.848   3.259 -1.5006 -0.6751  0.9555
  187POPC  C31621611   3.315   1.903   3.254 -0.9202 -0.7965  0.1677
  187POPC  H16X21612   3.275   1.855   3.346 -1.5982 -1.1756 -0.3198
  187POPC  H16Y21613   3.307   1.844   3.160  1.7928  0.0499 -0.6204
  187POPC  H16Z21614   3.251   1.990   3.225 -1.3266 -0.5778  1.6475
  188POPC     N21615   6.188   2.559   1.803  0.0142  0.9721  0.8657
  188POPC   C1221616   6.277   2.640   1.893  0.5797 -0.2988  0.5247
  188POPC  H12A21617   6.271   2.742   1.856  1.2476 -0.1118  0.9191
  188POPC  H12B21618   6.377   2.607   1.871  0.5975  0.1509 -0.0804
  188POPC   C1321619   6.060   2.627   1.784  0.5671 -0.8034 -0.1058
  188POPC  H13A21620   6.009   2.604   1.692 -3.7603 -0.9561  2.2175
  188POPC  H13B21621   5.993   2.607   1.866  0.9339 -1.5392  0.0151
  188POPC  H13C21622   6.087   2.732   1.782  0.0100 -0.6467  0.5638
  188POPC   C1421623   6.254   2.556   1.669  0.2823  0.8276 -0.0781
  188POPC  H14A21624   6.342   2.495   1.682 -1.6256 -1.6796  1.6099
  188POPC  H14B21625   6.211   2.511   1.580  1.3858 -2.0409  0.7756
  188POPC  H14C21626   6.281   2.654   1.633 -1.6205  1.5657  0.4128
  188POPC   C1521627   6.153   2.419   1.852  0.4252 -0.3294 -0.5309
  188POPC  H15A21628   6.088   2.435   1.937 -0.0442 -0.6924 -0.8165
  188POPC  H15B21629   6.240   2.370   1.892  1.2038  2.3537  1.2123
  188POPC  H15C21630   6.088   2.370   1.781 -0.9475  1.2147 -0.3966
  188POPC   C1121631   6.241   2.630   2.043  0.6486  0.3103 -0.3471
  188POPC  H11A21632   6.132   2.634   2.061  0.1262 -0.5041 -3.2330
  188POPC  H11B21633   6.287   2.717   2.095 -0.9905  0.4070  0.9829
  188POPC     P21634   6.433   2.481   2.144  0.0425 -0.2602  0.2858
  188POPC   O1321635   6.529   2.513   2.033  0.1959 -0.2988  0.2846
  188POPC   O1421636   6.438   2.338   2.191  0.0865  0.4262 -0.0343
  188POPC   O1221637   6.285   2.508   2.100 -0.8155 -0.4575 -0.6427
  188POPC   O1121638   6.446   2.579   2.271  0.0002  0.1938  0.2491
  188POPC    C121639   6.394   2.564   2.400 -0.2286 -0.0236  0.4178
  188POPC    HA21640   6.481   2.579   2.468 -0.4103 -0.4032  0.7379
  188POPC    HB21641   6.349   2.464   2.421  0.2283  0.0789  2.0105
  188POPC    C221642   6.293   2.682   2.431  0.3943  0.4259 -0.1451
  188POPC    HS21643   6.300   2.749   2.343  1.6573  0.6484  0.1244
  188POPC   O2121644   6.338   2.757   2.545 -0.7503  0.2409 -0.4123
  188POPC   C2121645   6.294   2.882   2.558 -0.0931  0.2260  0.8244
  188POPC   O2221646   6.242   2.948   2.469 -0.4573  0.2995  0.2310
  188POPC   C2221647   6.301   2.931   2.702 -0.2992  0.3722  0.0895
  188POPC   H2R21648   6.393   2.992   2.708  0.2211 -0.5222  1.5163
  188POPC   H2S21649   6.319   2.842   2.766 -1.6736  0.0061 -0.0250
  188POPC    C321650   6.139   2.642   2.433  0.1642 -0.3352 -0.0972
  188POPC    HX21651   6.117   2.586   2.340  2.2090  0.0989 -0.8594
  188POPC    HY21652   6.075   2.732   2.442 -0.7019 -1.0224  0.8135
  188POPC   O3121653   6.118   2.548   2.542 -0.1456 -0.5071 -0.3658
  188POPC   C3121654   6.076   2.603   2.658  0.2328  0.1760  0.4380
  188POPC   O3221655   6.054   2.718   2.671  0.0040 -0.3434  0.0041
  188POPC   C3221656   6.042   2.498   2.773  0.2429 -0.3146 -0.0082
  188POPC   H2X21657   6.146   2.466   2.794  0.4955  0.3953 -0.1690
  188POPC   H2Y21658   5.969   2.423   2.735 -0.4121  0.0179  0.5932
  188POPC   C2321659   6.177   3.004   2.763 -0.3912 -0.1382 -0.2383
  188POPC   H3R21660   6.091   2.935   2.757 -1.7660  1.4812  0.3830
  188POPC   H3S21661   6.152   3.089   2.696  1.1510 -0.5837 -1.4227
  188POPC   C2421662   6.188   3.052   2.912 -0.4447 -0.4591  0.5055
  188POPC   H4R21663   6.087   3.080   2.948 -0.3580 -3.0576  2.9476
  188POPC   H4S21664   6.257   3.139   2.922  1.1399 -1.7641  1.1148
  188POPC   C2521665   6.252   2.946   3.006 -0.0401 -0.3036  0.5324
  188POPC   H5R21666   6.348   2.915   2.959  0.4750  1.8604  0.1248
  188POPC   H5S21667   6.183   2.859   2.997 -0.4142  0.2119 -1.8810
  188POPC   C2621668   6.274   2.986   3.157  0.0361  0.2604  0.9620
  188POPC   H6R21669   6.341   3.074   3.149  1.9563 -0.9834  2.8897
  188POPC   H6S21670   6.327   2.899   3.201 -1.3194 -0.3456  1.4216
  188POPC   C2721671   6.147   3.006   3.245  0.6081 -0.2335  0.0371
  188POPC   H7R21672   6.166   2.930   3.325  1.7339  0.9063  0.8914
  188POPC   H7S21673   6.057   2.964   3.196  0.2495  0.8989 -0.2734
  188POPC   C2821674   6.124   3.148   3.310  0.5832  0.8749  0.7653
  188POPC   H8R21675   6.227   3.184   3.332  2.0353 -1.8087 -1.2348
  188POPC   H8S21676   6.058   3.147   3.399 -0.1197  3.6166  0.2960
  188POPC   C2921677   6.060   3.231   3.204  0.7490 -0.4005  0.3443
  188POPC   H9121678   6.129   3.238   3.119  1.4328 -1.4481  0.8075
  188POPC  C21021679   5.946   3.306   3.215 -1.2812 -0.1055  0.6791
  188POPC  H10121680   5.906   3.354   3.124  1.3746  0.9928  0.0502
  188POPC  C21121681   5.861   3.320   3.334  0.2356  0.0356  0.3263
  188POPC  H11R21682   5.922   3.381   3.403 -0.0144  1.3544 -0.5928
  188POPC  H11S21683   5.859   3.218   3.378 -0.2341 -0.2954 -0.4548
  188POPC  C21221684   5.719   3.375   3.321  0.5090  0.6639  0.0842
  188POPC  H12R21685   5.646   3.302   3.280  1.4864 -0.0091 -0.4555
  188POPC  H12S21686   5.732   3.460   3.251  3.4823 -1.0800 -1.5884
  188POPC  C21321687   5.664   3.417   3.461 -0.2626 -0.6674 -0.9210
  188POPC  H13R21688   5.732   3.494   3.503 -0.1951 -1.2218  0.0036
  188POPC  H13S21689   5.666   3.317   3.509 -0.1454 -1.3516 -2.3093
  188POPC  C21421690   5.515   3.466   3.436 -0.1459  0.0712  0.1601
  188POPC  H14R21691   5.452   3.377   3.414  0.1925  0.1076 -0.9895
  188POPC  H14S21692   5.512   3.533   3.348  1.1189 -0.0532  0.0086
  188POPC  C21521693   5.448   3.536   3.558  0.1749  0.6480  0.0965
  188POPC  H15R21694   5.530   3.595   3.605  1.2790 -1.6959  1.1709
  188POPC  H15S21695   5.428   3.449   3.624 -1.1669 -0.7995 -2.1245
  188POPC  C21621696   5.326   3.619   3.527  0.1345 -0.8603 -0.6364
  188POPC  H16R21697   5.271   3.557   3.453  0.1132 -2.4466  0.6814
  188POPC  H16S21698   5.359   3.717   3.487 -0.6707  0.5021  1.8908
  188POPC  C21721699   5.227   3.650   3.643  0.7896  0.7673  0.1482
  188POPC  H17R21700   5.181   3.552   3.666  0.3327  0.9578  0.0478
  188POPC  H17S21701   5.150   3.719   3.603 -0.5654 -0.9733 -0.2695
  188POPC  C21821702   5.314   3.695   3.763 -0.8813  0.1457 -0.0605
  188POPC  H18R21703   5.386   3.767   3.717  2.2902 -2.9056 -0.0887
  188POPC  H18S21704   5.376   3.611   3.801 -1.4527 -1.0475 -1.7343
  188POPC  H18T21705   5.253   3.754   3.835 -0.9680 -1.7918  1.4966
  188POPC   C3321706   5.969   2.552   2.896 -0.6751 -0.2535  0.2088
  188POPC   H3X21707   5.860   2.563   2.881 -0.5374 -0.4042 -0.8961
  188POPC   H3Y21708   5.996   2.658   2.913 -0.0747 -0.5727  1.3596
  188POPC   C3421709   5.991   2.464   3.023 -0.2118 -0.0224  0.2056
  188POPC   H4X21710   6.100   2.452   3.045 -0.4318 -3.0136 -0.1021
  188POPC   H4Y21711   5.950   2.363   3.004  0.5748 -0.2715 -0.1948
  188POPC   C3521712   5.927   2.531   3.146 -0.2609 -0.6551  0.3810
  188POPC   H5X21713   5.818   2.549   3.138  0.1138  1.0413 -1.3247
  188POPC   H5Y21714   5.958   2.636   3.163  1.0502 -0.8551 -0.6353
  188POPC   C3621715   5.956   2.464   3.280 -0.5200 -0.1476 -0.5521
  188POPC   H6X21716   6.067   2.465   3.295 -0.5872 -0.5234  0.0082
  188POPC   H6Y21717   5.931   2.357   3.265 -1.1724 -0.1216  0.3014
  188POPC   C3721718   5.879   2.515   3.405 -0.5401  0.5059  0.2596
  188POPC   H7X21719   5.771   2.509   3.377  0.0545 -3.4265 -1.6236
  188POPC   H7Y21720   5.908   2.619   3.432 -1.9067  0.9557  0.0267
  188POPC   C3821721   5.898   2.427   3.526 -0.5995 -0.3965  0.0966
  188POPC   H8X21722   6.003   2.433   3.561 -0.9060  1.3162  0.7820
  188POPC   H8Y21723   5.883   2.319   3.500  0.4136 -0.3450 -0.7306
  188POPC   C3921724   5.800   2.457   3.644  0.3316 -0.2024 -0.0694
  188POPC   H9X21725   5.702   2.429   3.600  0.7598 -1.4201 -0.2747
  188POPC   H9Y21726   5.807   2.567   3.661 -2.7141  0.0683 -0.3537
  188POPC  C31021727   5.833   2.369   3.767 -0.1381  0.1376  0.3106
  188POPC  H10X21728   5.936   2.386   3.805 -0.0561  1.2503 -0.3809
  188POPC  H10Y21729   5.825   2.266   3.726 -1.5609  1.3182 -2.5283
  188POPC  C31121730   5.733   2.385   3.882 -0.5654  0.6516 -0.3485
  188POPC  H11X21731   5.757   2.299   3.948  3.1662 -0.4218 -2.9504
  188POPC  H11Y21732   5.629   2.378   3.843 -0.0217  0.7720 -1.8480
  188POPC  C31221733   5.757   2.517   3.962  0.1946  0.1773 -0.7051
  188POPC  H12X21734   5.665   2.536   4.020 -0.1156 -1.2708 -0.6984
  188POPC  H12Y21735   5.777   2.593   3.883 -0.1467 -1.7859 -2.7433
  188POPC  C31321736   5.873   2.509   4.074  0.0474  0.4542  1.0503
  188POPC  H13X21737   5.878   2.616   4.106  0.8592  0.4812  0.8364
  188POPC  H13Y21738   5.969   2.478   4.029 -0.4130  0.2689  0.1814
  188POPC  C31421739   5.842   2.407   4.185  0.2187  0.0371  0.3651
  188POPC  H14X21740   5.935   2.383   4.241 -0.1116  0.3872  1.0700
  188POPC  H14Y21741   5.812   2.311   4.139  0.6098 -0.1567  0.5191
  188POPC  C31521742   5.735   2.454   4.278 -0.0077  0.1828  0.2728
  188POPC  H15X21743   5.705   2.374   4.349 -0.7700 -0.6105 -0.9198
  188POPC  H15Y21744   5.643   2.488   4.224 -1.1356 -2.1208  0.6791
  188POPC  C31621745   5.778   2.580   4.355 -0.3765 -0.6857 -0.1018
  188POPC  H16X21746   5.878   2.560   4.399 -1.0803 -2.0796  0.8947
  188POPC  H16Y21747   5.702   2.615   4.428  1.8645  1.1339  1.4498
  188POPC  H16Z21748   5.800   2.665   4.287  0.8629 -0.4967  0.5209
  189SAPI   C1221749   3.904   0.425   6.231 -0.0929  0.3615 -0.4820
  189SAPI    H221750   3.925   0.389   6.128  0.7195 -1.3654  0.2516
  189SAPI    O221751   3.765   0.469   6.251 -0.0516 -0.8836  0.8237
  189SAPI   HO221752   3.706   0.417   6.196 -2.5328  1.5963  1.0552
  189SAPI   C1321753   3.956   0.318   6.327  0.1040  0.1958  0.4230
  189SAPI    H321754   4.057   0.284   6.296  0.2883  1.8771 -0.9005
  189SAPI    O321755   3.870   0.204   6.322 -0.2459  0.2463 -0.1637
  189SAPI   HO321756   3.777   0.221   6.340 -0.2450  1.1352 -0.9333
  189SAPI   C1421757   3.959   0.374   6.471 -0.7681 -0.0854 -0.0858
  189SAPI    H421758   3.855   0.395   6.505 -0.3792 -0.3620  1.3088
  189SAPI    O421759   4.007   0.270   6.564  0.0577 -0.0627 -0.7430
  189SAPI   HO421760   3.963   0.280   6.648  0.7219  0.6384 -0.4746
  189SAPI   C1521761   4.050   0.498   6.474  0.2904 -0.4167 -0.0329
  189SAPI    H521762   4.156   0.469   6.455  0.5409  1.1154 -1.0536
  189SAPI    O521763   4.069   0.554   6.609 -0.1703  0.5105  0.2939
  189SAPI   HO521764   4.148   0.608   6.596 -0.2536  1.3034  2.9278
  189SAPI   C1621765   4.005   0.602   6.374 -0.8762  0.4549 -0.0246
  189SAPI    H621766   3.909   0.646   6.408 -1.0099  0.9090 -0.9681
  189SAPI    O621767   4.099   0.710   6.383  0.4709 -0.3094  0.2052
  189SAPI   HO621768   4.140   0.716   6.296  1.2901  1.2712  0.6863
  189SAPI   C1121769   3.997   0.543   6.240 -0.2217  0.1462 -0.0450
  189SAPI    H121770   4.096   0.494   6.232 -0.3466 -0.3605  1.4482
  189SAPI     P21771   3.973   0.632   5.984 -0.0504 -0.0245  0.0719
  189SAPI   O1321772   3.844   0.569   5.951 -0.4890  0.4617  0.0924
  189SAPI   O1421773   4.096   0.567   5.939  0.6881 -0.0745 -0.0598
  189SAPI   O1221774   3.979   0.652   6.145  0.0594 -0.1043  0.0868
  189SAPI   O1121775   3.976   0.789   5.938  0.3000  0.5489 -0.0669
  189SAPI    C121776   4.096   0.870   5.965 -0.0600 -1.0256  0.1976
  189SAPI    HA21777   4.186   0.810   5.992  1.6849  1.2005 -0.5027
  189SAPI    HB21778   4.123   0.926   5.873  4.5198 -3.9587 -0.4267
  189SAPI    C221779   4.064   0.981   6.071 -0.2448 -0.8201 -0.2344
  189SAPI    HS21780   4.000   0.936   6.150 -2.2140  0.9157 -0.7802
  189SAPI   O2121781   4.000   1.085   5.993 -0.1338  0.6936 -0.1408
  189SAPI   C2121782   3.955   1.190   6.072  0.1582  0.4905 -0.3538
  189SAPI   O2221783   3.960   1.193   6.193  0.1888  0.1603 -0.2741
  189SAPI   C2221784   3.893   1.290   5.981 -0.2919  0.1643 -0.0614
  189SAPI   H2R21785   3.971   1.291   5.902 -0.0763  3.0467  0.1364
  189SAPI   H2S21786   3.797   1.247   5.945 -0.3900  0.3093  0.0267
  189SAPI    C321787   4.195   1.023   6.147 -0.8486 -0.2574 -0.5713
  189SAPI    HX21788   4.246   0.936   6.194 -0.4087  1.1515  1.6357
  189SAPI    HY21789   4.167   1.079   6.238 -2.5504 -0.2756 -1.0702
  189SAPI   O3121790   4.288   1.094   6.069 -0.0749 -0.1532 -0.3867
  189SAPI   C3121791   4.288   1.222   6.059  0.3512  0.0579 -0.5476
  189SAPI   O3221792   4.227   1.301   6.126  0.0491 -0.0939 -0.0720
  189SAPI   C3221793   4.397   1.262   5.962 -0.0830  0.8684  1.0420
  189SAPI   H2X21794   4.485   1.207   6.002 -1.0106 -0.5811  1.1166
  189SAPI   H2Y21795   4.413   1.370   5.982  1.5871  0.8994 -0.3733
  189SAPI   C2321796   3.885   1.440   6.021  0.1033 -0.1120  0.0423
  189SAPI   H3R21797   3.976   1.462   6.080 -0.8202 -1.4984  2.0607
  189SAPI   H3S21798   3.796   1.450   6.087 -0.6516 -0.0096 -0.9951
  189SAPI   C2421799   3.881   1.536   5.909 -0.3497  0.5819 -0.1096
  189SAPI   H4R21800   3.980   1.566   5.868 -0.8388  0.1028 -1.7010
  189SAPI   H4S21801   3.848   1.629   5.960 -1.7116 -0.3687  0.7869
  189SAPI   C2521802   3.788   1.494   5.796  0.1035 -0.1382 -0.8869
  189SAPI   H5R21803   3.683   1.517   5.819  0.0355 -1.3712  0.0559
  189SAPI   C2621804   3.811   1.449   5.670 -0.0152  0.2510  0.4613
  189SAPI   H6R21805   3.724   1.429   5.605  1.4214 -0.4254 -1.2882
  189SAPI   C2721806   3.943   1.421   5.610 -0.9007  0.1289  0.1707
  189SAPI   H7R21807   4.021   1.454   5.681 -0.7098  3.5560 -1.5259
  189SAPI   H7S21808   3.956   1.487   5.522 -1.7411 -0.8624 -0.7192
  189SAPI   C2821809   3.981   1.274   5.592 -0.1283  0.4522  0.3578
  189SAPI   H8R21810   4.050   1.236   5.669 -2.3018  1.4106  2.8536
  189SAPI   C2921811   3.949   1.184   5.492 -0.1883 -1.1105 -0.6522
  189SAPI   H9R21812   3.979   1.078   5.493 -3.2959 -2.0530 -1.9689
  189SAPI  C21021813   3.864   1.212   5.367  0.4467  0.2082 -0.1788
  189SAPI  H10R21814   3.868   1.320   5.341 -1.2247  0.4939  0.7025
  189SAPI  H10S21815   3.755   1.200   5.386  0.1593  1.6713 -0.8216
  189SAPI  C21121816   3.902   1.132   5.248 -0.2007  0.1251 -0.2471
  189SAPI  H11R21817   3.938   1.032   5.274  0.6955  0.8653  1.4269
  189SAPI  C21221818   3.891   1.178   5.125 -0.4010 -0.1869 -0.0629
  189SAPI  H12R21819   3.923   1.112   5.043  0.1837 -1.6518  1.3246
  189SAPI  C21321820   3.851   1.316   5.065 -0.1968 -0.3879 -0.2230
  189SAPI  H13R21821   3.870   1.314   4.955  0.7410  0.0111 -0.0745
  189SAPI  H13S21822   3.915   1.396   5.109 -2.7736  2.0468 -0.7700
  189SAPI  C21421823   3.710   1.362   5.101  0.8590 -0.1977 -0.5731
  189SAPI  H14R21824   3.670   1.340   5.201 -3.2714 -2.0124 -2.5077
  189SAPI  C21521825   3.637   1.454   5.030 -0.1542  0.5426  0.3833
  189SAPI  H15R21826   3.537   1.488   5.061  0.6815  2.1067  1.4412
  189SAPI  C21621827   3.681   1.525   4.906  0.4445  0.7962  0.1112
  189SAPI  H16R21828   3.620   1.488   4.821 -0.8858  0.6688  1.1184
  189SAPI  H16S21829   3.786   1.501   4.878  0.5211  0.5880  0.5761
  189SAPI  C21721830   3.672   1.676   4.913  0.9047  0.2284  0.2930
  189SAPI  H17R21831   3.733   1.726   4.991  1.7264  0.7235 -0.6568
  189SAPI  H17S21832   3.568   1.710   4.935  1.4005  3.0303 -1.4239
  189SAPI  C21821833   3.717   1.733   4.782 -0.6854 -0.1984 -0.0423
  189SAPI  H18R21834   3.824   1.706   4.773 -0.4743  0.5442  0.2372
  189SAPI  H18S21835   3.714   1.842   4.805 -1.1551 -0.7046  2.3298
  189SAPI  C21921836   3.629   1.712   4.656 -0.2340 -0.1933 -0.1394
  189SAPI  H19R21837   3.624   1.605   4.628 -3.4441  0.1612 -1.1720
  189SAPI  H19S21838   3.668   1.782   4.579  0.4068 -0.2694  0.1112
  189SAPI  C22021839   3.483   1.761   4.677 -0.4021 -0.2160 -0.2769
  189SAPI  H20R21840   3.481   1.868   4.709  0.6686 -0.6215  1.2089
  189SAPI  H20S21841   3.443   1.701   4.762 -1.9421 -0.0541 -0.8843
  189SAPI  H20T21842   3.410   1.733   4.599  0.6903 -0.9569 -1.0554
  189SAPI   C3321843   4.365   1.223   5.814  0.4876 -0.4747 -0.6381
  189SAPI   H3X21844   4.430   1.294   5.758  1.0836 -0.3035  0.2627
  189SAPI   H3Y21845   4.258   1.237   5.791 -0.1805  2.0023  3.6211
  189SAPI   C3421846   4.399   1.077   5.791  0.1621  0.2265  0.0477
  189SAPI   H4X21847   4.350   1.009   5.864 -0.0278 -0.4042 -0.6602
  189SAPI   H4Y21848   4.502   1.049   5.821 -0.3263  1.0353  2.5992
  189SAPI   C3521849   4.344   1.023   5.656 -0.1305 -0.5678  0.4024
  189SAPI   H5X21850   4.235   1.040   5.664 -0.1996 -1.9592  3.0373
  189SAPI   H5Y21851   4.371   0.916   5.652 -0.2571 -0.6684  1.7702
  189SAPI   C3621852   4.409   1.093   5.534 -0.2039  0.1133  0.0747
  189SAPI   H6X21853   4.518   1.075   5.547  0.3073  0.4656 -3.2612
  189SAPI   H6Y21854   4.396   1.203   5.536  0.5267  0.1965  0.4279
  189SAPI   C3721855   4.355   1.034   5.404  0.2489  0.7804  0.2162
  189SAPI   H7X21856   4.245   1.020   5.414  0.0221  1.7332 -0.8929
  189SAPI   H7Y21857   4.405   0.939   5.376  0.9243  1.3046 -0.3820
  189SAPI   C3821858   4.392   1.133   5.295 -0.5969 -1.0571 -0.0877
  189SAPI   H8X21859   4.502   1.138   5.295 -0.6890  1.6598  1.4563
  189SAPI   H8Y21860   4.355   1.233   5.327 -0.9081 -0.5978 -1.8087
  189SAPI   C3921861   4.324   1.092   5.167 -0.0566 -0.2757  0.0207
  189SAPI   H9X21862   4.214   1.089   5.177 -0.2584  5.0451  0.8389
  189SAPI   H9Y21863   4.347   0.985   5.143 -1.9563 -0.5471 -0.6766
  189SAPI  C31021864   4.343   1.197   5.061 -0.6440  0.5978 -0.1082
  189SAPI  H10X21865   4.452   1.212   5.043 -0.1616 -2.8152 -0.3315
  189SAPI  H10Y21866   4.299   1.296   5.088 -0.2737  1.1385 -1.4423
  189SAPI  C31121867   4.268   1.162   4.930  0.7721 -0.2134  0.2961
  189SAPI  H11X21868   4.158   1.168   4.948 -0.0889 -3.4805 -3.4193
  189SAPI  H11Y21869   4.291   1.058   4.901  1.6554 -0.0423  0.3924
  189SAPI  C31221870   4.297   1.263   4.821  0.2069  0.4037  0.0294
  189SAPI  H12X21871   4.285   1.365   4.866  1.1128  1.1113 -1.3033
  189SAPI  H12Y21872   4.229   1.243   4.735 -1.6307 -1.8107  1.9448
  189SAPI  C31321873   4.438   1.235   4.762  0.1251  0.5431 -0.3575
  189SAPI  H13X21874   4.448   1.125   4.756 -1.1375  0.5071 -1.8032
  189SAPI  H13Y21875   4.512   1.273   4.836  0.1349 -0.3881  0.1143
  189SAPI  C31421876   4.451   1.306   4.626 -0.2787 -0.3690 -0.0778
  189SAPI  H14X21877   4.463   1.415   4.643 -0.4172 -0.5774  1.4986
  189SAPI  H14Y21878   4.363   1.289   4.561 -0.2143 -0.7749 -0.0598
  189SAPI  C31521879   4.591   1.270   4.565 -0.3190  0.5121  0.3354
  189SAPI  H15X21880   4.605   1.160   4.567 -2.8913  0.1479  0.4161
  189SAPI  H15Y21881   4.674   1.312   4.626 -0.2212  0.8023 -0.0035
  189SAPI  C31621882   4.602   1.319   4.421  0.4988  0.1483  0.3685
  189SAPI  H16X21883   4.589   1.429   4.419 -3.2612 -0.2300 -4.1819
  189SAPI  H16Y21884   4.518   1.276   4.362  0.3711  2.1740 -0.9662
  189SAPI  C31721885   4.732   1.295   4.355 -0.1256 -0.4969  0.0319
  189SAPI  H17X21886   4.745   1.186   4.339 -1.0071 -0.2121 -3.1239
  189SAPI  H17Y21887   4.819   1.334   4.412  0.5373 -2.0608  0.1005
  189SAPI  C31821888   4.732   1.366   4.225  0.4934 -0.2755 -0.6132
  189SAPI  H18X21889   4.840   1.372   4.197  0.6925 -1.5449 -0.1863
  189SAPI  H18Y21890   4.696   1.470   4.233  0.8933 -0.0534 -1.6249
  189SAPI  H18Z21891   4.681   1.324   4.136  1.0913  0.3709 -1.2727
  190SAPI   C1221892   4.866   0.954   5.986  0.2215 -0.0772  0.3572
  190SAPI    H221893   4.920   0.871   5.935  1.4019  1.5775 -1.1778
  190SAPI    O221894   4.798   1.033   5.877 -0.0159  0.1412  0.2826
  190SAPI   HO221895   4.864   1.079   5.824  3.7003 -0.9581  3.6516
  190SAPI   C1321896   4.766   0.896   6.079 -0.3430  0.1262 -0.3385
  190SAPI    H321897   4.835   0.843   6.148 -0.9020  2.2955  1.9790
  190SAPI    O321898   4.681   0.809   6.004 -0.4983 -0.0538 -0.0847
  190SAPI   HO321899   4.665   0.864   5.927 -2.6356  0.3104  0.5766
  190SAPI   C1421900   4.692   1.006   6.164  0.0444 -0.0440  0.1955
  190SAPI    H421901   4.622   1.067   6.102 -1.6230  0.5331  2.5399
  190SAPI    O421902   4.600   0.945   6.254  0.6460  0.0836  0.2403
  190SAPI   HO421903   4.659   0.883   6.297  1.8564 -0.7085 -2.4036
  190SAPI   C1521904   4.786   1.098   6.240 -0.9408  0.2095  0.1978
  190SAPI    H521905   4.842   1.035   6.313 -0.1732 -0.8101 -1.2421
  190SAPI    O521906   4.713   1.203   6.306 -0.1254 -1.0452  0.5326
  190SAPI   HO521907   4.738   1.196   6.398  0.0011  1.6248  0.7419
  190SAPI   C1621908   4.893   1.150   6.135 -0.4708 -0.5256 -0.0373
  190SAPI    H621909   4.831   1.212   6.067 -2.1192  1.0387  2.7608
  190SAPI    O621910   4.988   1.237   6.183 -0.5888  0.2779 -0.4484
  190SAPI   HO621911   5.034   1.275   6.108  1.0911  0.4767  0.6603
  190SAPI   C1121912   4.963   1.035   6.069  0.0229  0.6261  0.3482
  190SAPI    H121913   5.005   0.979   6.155  0.8951  2.1069  0.9059
  190SAPI     P21914   5.197   0.985   5.940 -0.2131 -0.3572 -0.0294
  190SAPI   O1321915   5.206   0.863   6.027  0.0050 -0.0555 -0.2452
  190SAPI   O1421916   5.317   1.075   5.928  0.9615  0.3730  0.4312
  190SAPI   O1221917   5.062   1.074   5.974  0.5684  0.7195  0.3816
  190SAPI   O1121918   5.150   0.942   5.795 -0.5383 -0.1502 -0.4755
  190SAPI    C121919   5.232   0.852   5.720 -0.1822 -0.8227 -0.0277
  190SAPI    HA21920   5.301   0.797   5.787  0.1066  0.6941  0.9403
  190SAPI    HB21921   5.160   0.785   5.669  0.2125 -0.7985 -0.6309
  190SAPI    C221922   5.328   0.926   5.621  0.3485  0.0281  0.0134
  190SAPI    HS21923   5.385   1.002   5.679 -0.3597  1.1171 -0.7034
  190SAPI   O2121924   5.237   0.988   5.525  0.4959 -0.7342  0.1909
  190SAPI   C2121925   5.285   1.072   5.434  0.2569  0.3359 -0.0618
  190SAPI   O2221926   5.401   1.114   5.420  0.0105 -0.1009  0.3303
  190SAPI   C2221927   5.177   1.088   5.328  0.6638 -0.0756 -0.1446
  190SAPI   H2R21928   5.240   1.088   5.236 -1.9104 -0.2003 -1.9378
  190SAPI   H2S21929   5.107   1.003   5.320 -0.5590  0.9817 -0.9305
  190SAPI    C321930   5.428   0.838   5.553  0.1397 -0.2152  0.3765
  190SAPI    HX21931   5.496   0.796   5.630 -0.5693  0.7612  1.5368
  190SAPI    HY21932   5.498   0.893   5.487 -0.8112  1.4525  0.7499
  190SAPI   O3121933   5.373   0.729   5.473  0.2638  0.1498 -0.2564
  190SAPI   C3121934   5.340   0.613   5.531  0.0477 -0.1376  0.0747
  190SAPI   O3221935   5.350   0.591   5.646 -0.3507  0.4039  0.6181
  190SAPI   C3221936   5.268   0.528   5.419 -0.0680  0.7006  0.0455
  190SAPI   H2X21937   5.316   0.428   5.422 -1.6628 -0.1742 -1.8849
  190SAPI   H2Y21938   5.298   0.569   5.320  0.6312  0.0807 -0.0081
  190SAPI   C2321939   5.103   1.215   5.336  0.3450 -0.0487  0.1072
  190SAPI   H3R21940   5.112   1.264   5.236 -0.2181 -0.6895 -0.2598
  190SAPI   H3S21941   5.141   1.277   5.420 -1.7095 -1.0551  1.8284
  190SAPI   C2421942   4.944   1.196   5.352 -0.0357  0.0669  0.0012
  190SAPI   H4R21943   4.910   1.134   5.267 -1.2786 -0.5390  0.9264
  190SAPI   H4S21944   4.913   1.302   5.335  2.0171  0.7216  0.1678
  190SAPI   C2521945   4.890   1.144   5.486  0.2147  0.0152 -0.3264
  190SAPI   H5R21946   4.940   1.182   5.576 -1.3111 -0.2342  0.6461
  190SAPI   C2621947   4.800   1.047   5.506 -0.2662 -0.6273  0.0740
  190SAPI   H6R21948   4.783   1.009   5.608  2.0662  0.3512  0.8729
  190SAPI   C2721949   4.731   0.964   5.405 -0.7578  0.2776 -0.0273
  190SAPI   H7R21950   4.718   1.018   5.309  2.8184  1.4769  0.1019
  190SAPI   H7S21951   4.634   0.935   5.451 -0.3645  0.0556  0.6839
  190SAPI   C2821952   4.801   0.836   5.373 -0.2915  0.5170 -0.2023
  190SAPI   H8R21953   4.883   0.853   5.301 -0.9075 -1.3448 -1.3577
  190SAPI   C2921954   4.806   0.729   5.452 -0.0825 -0.0241 -0.0551
  190SAPI   H9R21955   4.847   0.641   5.400  0.6664  0.0299  0.4486
  190SAPI  C21021956   4.722   0.699   5.570  0.7097  0.2166 -0.0468
  190SAPI  H10R21957   4.615   0.713   5.540  0.6571 -2.6379 -1.4166
  190SAPI  H10S21958   4.734   0.785   5.639  1.5251  0.3648 -0.3708
  190SAPI  C21121959   4.744   0.573   5.653 -0.0784  0.0577 -0.5082
  190SAPI  H11R21960   4.819   0.585   5.733 -0.7674  0.3497  0.1070
  190SAPI  C21221961   4.677   0.455   5.655 -0.2667  0.3038 -0.3922
  190SAPI  H12R21962   4.716   0.365   5.705  0.4410  1.3128  0.8855
  190SAPI  C21321963   4.563   0.422   5.567 -0.2954 -0.0843 -0.0436
  190SAPI  H13R21964   4.595   0.341   5.499 -0.6650  1.4388 -2.0581
  190SAPI  H13S21965   4.531   0.508   5.504 -0.0665 -0.2415 -0.3733
  190SAPI  C21421966   4.445   0.379   5.654 -0.3151  0.2506 -0.2424
  190SAPI  H14R21967   4.438   0.271   5.675 -1.2605  0.3530 -0.0035
  190SAPI  C21521968   4.347   0.462   5.700  0.3934  0.2070  0.4716
  190SAPI  H15R21969   4.272   0.415   5.765  1.8152  0.0950  2.0881
  190SAPI  C21621970   4.320   0.612   5.685  0.0265  0.6064  0.8469
  190SAPI  H16R21971   4.406   0.667   5.640 -0.2217  0.3157  0.0209
  190SAPI  H16S21972   4.320   0.652   5.789  2.0824 -1.1008  1.5475
  190SAPI  C21721973   4.186   0.653   5.616  0.6001 -0.2452  0.4573
  190SAPI  H17R21974   4.138   0.728   5.683 -1.2637  0.5304 -1.6839
  190SAPI  H17S21975   4.101   0.584   5.633 -0.9456  1.3755 -0.4898
  190SAPI  C21821976   4.202   0.684   5.472  0.2374 -0.0941 -0.1844
  190SAPI  H18R21977   4.227   0.590   5.418 -0.6057  0.6314 -1.8639
  190SAPI  H18S21978   4.291   0.750   5.468  0.1594  0.0526  0.4250
  190SAPI  C21921979   4.081   0.755   5.411  0.4484  0.5099  0.9013
  190SAPI  H19R21980   4.073   0.854   5.459 -1.5287  1.4052 -1.1896
  190SAPI  H19S21981   3.991   0.700   5.446  1.3941  0.4369  3.3290
  190SAPI  C22021982   4.092   0.770   5.257 -0.4581 -1.0550 -0.6839
  190SAPI  H20R21983   4.078   0.670   5.211 -3.2403 -0.5312 -1.0488
  190SAPI  H20S21984   4.192   0.806   5.223 -1.3581  1.3691 -0.8523
  190SAPI  H20T21985   4.005   0.823   5.212  0.8011 -0.1161 -2.0555
  190SAPI   C3321986   5.116   0.536   5.432  0.8610  0.2273  0.6369
  190SAPI   H3X21987   5.085   0.642   5.446  0.9137  0.5808 -1.7045
  190SAPI   H3Y21988   5.071   0.487   5.521 -0.4265  3.2391  1.7266
  190SAPI   C3421989   5.052   0.500   5.297 -0.2244  0.3719  0.5611
  190SAPI   H4X21990   4.943   0.491   5.319 -0.6334  3.5807  0.1902
  190SAPI   H4Y21991   5.095   0.400   5.274  0.4753  0.1804  2.6002
  190SAPI   C3521992   5.075   0.600   5.182 -0.1590  0.7651 -0.1775
  190SAPI   H5X21993   5.182   0.615   5.155 -0.3185  3.1488  0.3802
  190SAPI   H5Y21994   5.045   0.703   5.212  2.9150  1.4351  0.8270
  190SAPI   C3621995   4.994   0.569   5.058 -0.5492 -0.3556 -0.0307
  190SAPI   H6X21996   4.898   0.531   5.098 -0.5080  0.4222  0.8011
  190SAPI   H6Y21997   5.029   0.497   4.981  2.2161  0.6751  0.2027
  190SAPI   C3721998   4.946   0.691   4.976 -0.3339  0.0380  0.0855
  190SAPI   H7X21999   5.031   0.737   4.922  0.1145 -0.0633  0.6915
  190SAPI   H7Y22000   4.899   0.774   5.033  0.6740  1.8173 -1.6153
  190SAPI   C3822001   4.839   0.641   4.872  0.6800  0.0182 -0.0821
  190SAPI   H8X22002   4.755   0.597   4.930  0.4944 -1.2969 -1.3154
  190SAPI   H8Y22003   4.894   0.558   4.822  4.6327  1.3094  1.8927
  190SAPI   C3922004   4.788   0.764   4.793 -0.1371 -0.2028  0.2330
  190SAPI   H9X22005   4.878   0.788   4.732 -0.0551 -0.1177  0.3877
  190SAPI   H9Y22006   4.754   0.852   4.852 -1.1915  0.5691 -1.4817
  190SAPI  C31022007   4.678   0.721   4.692 -0.5270  0.4744  0.0976
  190SAPI  H10X22008   4.617   0.636   4.730  1.2613 -1.2427 -0.8390
  190SAPI  H10Y22009   4.718   0.684   4.596  1.3864 -0.8053  1.3593
  190SAPI  C31122010   4.574   0.834   4.664 -0.4676 -0.2268  1.0265
  190SAPI  H11X22011   4.632   0.915   4.614 -1.5540  0.3788  0.7473
  190SAPI  H11Y22012   4.550   0.871   4.766  0.5856  0.5714  1.0078
  190SAPI  C31222013   4.463   0.797   4.567 -0.1225 -0.5468  0.1813
  190SAPI  H12X22014   4.400   0.725   4.624 -2.6624  2.5887  1.5290
  190SAPI  H12Y22015   4.493   0.751   4.471 -1.1729 -1.3916  0.2491
  190SAPI  C31322016   4.380   0.922   4.528  0.3212 -0.5602  0.3110
  190SAPI  H13X22017   4.435   1.001   4.471 -1.9005  1.7704  1.2949
  190SAPI  H13Y22018   4.339   0.961   4.624 -0.3829  0.1544 -0.2758
  190SAPI  C31422019   4.254   0.878   4.439  0.2290  0.3532 -0.6010
  190SAPI  H14X22020   4.202   0.797   4.494 -0.9458  1.8331  0.5333
  190SAPI  H14Y22021   4.303   0.841   4.346  2.0113 -1.2372  0.9321
  190SAPI  C31522022   4.162   1.003   4.409  0.3660 -0.0103  0.6016
  190SAPI  H15X22023   4.132   1.057   4.501  2.2709  1.6425  0.2685
  190SAPI  H15Y22024   4.076   0.965   4.348  0.8933 -0.1369 -0.0728
  190SAPI  C31622025   4.228   1.107   4.317 -0.1148  0.5344  1.1541
  190SAPI  H16X22026   4.208   1.072   4.214 -1.5557 -0.4886  1.7667
  190SAPI  H16Y22027   4.338   1.102   4.333  0.0321 -2.7760 -0.5460
  190SAPI  C31722028   4.165   1.246   4.334  0.1822 -1.0102  0.2810
  190SAPI  H17X22029   4.166   1.265   4.443 -0.8449 -2.3333  0.5353
  190SAPI  H17Y22030   4.058   1.237   4.306 -0.0234  0.2962  0.6066
  190SAPI  C31822031   4.232   1.357   4.259 -0.2686  0.9994  0.2776
  190SAPI  H18X22032   4.185   1.454   4.288 -1.9625  0.3029 -0.0943
  190SAPI  H18Y22033   4.223   1.345   4.149  4.1398 -0.8180 -0.0058
  190SAPI  H18Z22034   4.342   1.356   4.277 -0.7868 -2.6304  3.8405
  191SAPI   C1222035   0.753   5.486   1.824  0.3384  0.5915  0.9256
  191SAPI    H222036   0.822   5.533   1.898 -0.3843  0.6046  1.5946
  191SAPI    O222037   0.667   5.397   1.896 -0.4465 -0.0748  0.4819
  191SAPI   HO222038   0.718   5.342   1.956 -1.4830 -0.3304  1.1480
  191SAPI   C1322039   0.678   5.601   1.762  0.2862 -1.2922 -0.2480
  191SAPI    H322040   0.762   5.660   1.720  2.0661 -1.1668  3.3052
  191SAPI    O322041   0.608   5.677   1.863  0.2001 -0.2066  0.6316
  191SAPI   HO322042   0.572   5.610   1.922 -0.1704 -0.6928 -0.1332
  191SAPI   C1422043   0.581   5.559   1.652 -0.4074  0.3856  0.1664
  191SAPI    H422044   0.506   5.497   1.706 -1.5679  2.9648  1.5713
  191SAPI    O422045   0.504   5.665   1.599 -0.1107  0.1747  0.8194
  191SAPI   HO422046   0.561   5.722   1.547 -2.0019 -0.6673 -2.3021
  191SAPI   C1522047   0.654   5.478   1.548 -0.2142  0.1166 -0.4149
  191SAPI    H522048   0.723   5.549   1.497  0.1273 -0.9799 -1.4917
  191SAPI    O522049   0.567   5.420   1.447  0.2434 -0.0883  0.4547
  191SAPI   HO522050   0.550   5.330   1.475 -0.3313  0.2906  1.3619
  191SAPI   C1622051   0.740   5.367   1.606 -0.7666 -0.3147  0.0293
  191SAPI    H622052   0.676   5.294   1.660 -4.1487  1.4052 -1.4520
  191SAPI    O622053   0.823   5.304   1.506  0.3002 -0.4923 -0.2008
  191SAPI   HO622054   0.913   5.338   1.509  0.0521  0.2320 -0.9163
  191SAPI   C1122055   0.831   5.420   1.710 -0.9234 -0.0367 -0.2844
  191SAPI    H122056   0.891   5.494   1.653  0.5121 -0.0136  1.2157
  191SAPI     P22057   1.069   5.360   1.839  0.1052  0.0987 -0.1268
  191SAPI   O1322058   1.110   5.486   1.773 -0.2640  0.8445 -0.7946
  191SAPI   O1422059   1.156   5.239   1.829 -0.3280 -0.2542 -0.7112
  191SAPI   O1222060   0.922   5.320   1.775  0.1638 -0.3568  0.0952
  191SAPI   O1122061   1.029   5.370   1.993  0.5857 -0.5325  0.4299
  191SAPI    C122062   1.116   5.425   2.092 -0.4322 -0.1423  0.1203
  191SAPI    HA22063   1.116   5.358   2.181  1.1958  0.0089  0.2422
  191SAPI    HB22064   1.221   5.432   2.057 -1.1065  2.5448 -1.4873
  191SAPI    C222065   1.071   5.573   2.125  0.5429 -0.1559 -0.2830
  191SAPI    HS22066   0.977   5.596   2.072  0.5350 -1.2311 -0.7487
  191SAPI   O2122067   1.172   5.667   2.076 -0.4255 -0.1306 -0.0793
  191SAPI   C2122068   1.126   5.796   2.063  0.0637 -0.6750  0.3982
  191SAPI   O2222069   1.007   5.829   2.084  0.8239 -0.2702 -0.2447
  191SAPI   C2222070   1.234   5.893   2.037 -0.5613 -0.1159  0.3031
  191SAPI   H2R22071   1.321   5.867   2.101 -0.2699 -0.6315 -0.2882
  191SAPI   H2S22072   1.270   5.885   1.932  0.7992  2.0095  0.5779
  191SAPI    C322073   1.045   5.588   2.277  0.4399  0.5488  0.3969
  191SAPI    HX22074   0.948   5.537   2.295  0.2552  0.2318 -1.3806
  191SAPI    HY22075   1.018   5.692   2.306  2.5522  0.8457  1.4351
  191SAPI   O3122076   1.145   5.526   2.351  0.6198 -0.5608  0.3895
  191SAPI   C3122077   1.251   5.606   2.383 -0.3429 -0.7454 -0.1478
  191SAPI   O3222078   1.258   5.723   2.351  0.4533  0.3343 -0.1903
  191SAPI   C3222079   1.348   5.522   2.479 -0.2307  0.4303  0.7847
  191SAPI   H2X22080   1.364   5.416   2.447 -0.4652  0.9328 -1.0721
  191SAPI   H2Y22081   1.291   5.508   2.573  2.1447  1.5815  2.4625
  191SAPI   C2322082   1.196   6.044   2.065 -0.0209 -0.5215  0.5158
  191SAPI   H3R22083   1.156   6.060   2.168 -3.0781 -2.1810 -0.3478
  191SAPI   H3S22084   1.108   6.077   2.006  0.5371  2.8012  1.4346
  191SAPI   C2422085   1.330   6.131   2.049  0.0084  0.1300 -0.7531
  191SAPI   H4R22086   1.358   6.138   1.942  1.4330 -0.8114 -0.4597
  191SAPI   H4S22087   1.404   6.068   2.103 -1.8067 -0.4729  1.1143
  191SAPI   C2522088   1.313   6.267   2.114 -0.4718  0.4251 -0.1306
  191SAPI   H5R22089   1.255   6.340   2.056  0.6741  1.9823  0.6331
  191SAPI   C2622090   1.339   6.306   2.241 -0.0268  0.1096 -0.0097
  191SAPI   H6R22091   1.307   6.409   2.264  1.5033  0.0041  2.7311
  191SAPI   C2722092   1.413   6.231   2.350  0.1844  0.6136 -0.0869
  191SAPI   H7R22093   1.481   6.299   2.405  0.2779  0.1555  0.3708
  191SAPI   H7S22094   1.484   6.156   2.308  1.5961  1.4730  0.7210
  191SAPI   C2822095   1.311   6.161   2.436  0.3186 -0.5262  0.7777
  191SAPI   H8R22096   1.250   6.081   2.390 -0.9188  0.5883  0.4522
  191SAPI   C2922097   1.307   6.188   2.567  0.7926 -0.4559 -0.6813
  191SAPI   H9R22098   1.223   6.140   2.619  0.7650  0.1878 -0.1225
  191SAPI  C21022099   1.384   6.283   2.655 -0.6753  0.0481  0.1415
  191SAPI  H10R22100   1.488   6.296   2.618 -0.1138 -1.2000  1.2664
  191SAPI  H10S22101   1.402   6.235   2.753 -0.8424 -0.3069  0.0003
  191SAPI  C21122102   1.315   6.419   2.670  0.3403  0.2085  0.7915
  191SAPI  H11R22103   1.326   6.495   2.590  0.4457  0.1005  0.7029
  191SAPI  C21222104   1.220   6.440   2.762  0.6030 -0.4965  0.1726
  191SAPI  H12R22105   1.167   6.537   2.757  0.4174 -0.5823  0.4584
  191SAPI  C21322106   1.163   6.350   2.867 -0.2033 -0.3169  0.2922
  191SAPI  H13R22107   1.132   6.252   2.824  0.9095 -1.0003  1.0377
  191SAPI  H13S22108   1.067   6.402   2.890 -0.7313 -1.1454 -0.0236
  191SAPI  C21422109   1.254   6.324   2.988  0.3885 -0.0939 -0.1352
  191SAPI  H14R22110   1.348   6.273   2.967 -0.0998 -1.4462  0.8686
  191SAPI  C21522111   1.217   6.335   3.121 -0.5237 -0.6661  0.3277
  191SAPI  H15R22112   1.298   6.325   3.194 -0.0600 -1.8884 -0.3508
  191SAPI  C21622113   1.093   6.375   3.190  0.4937 -0.2158 -0.7520
  191SAPI  H16R22114   1.026   6.412   3.110 -0.7269  0.1090  0.4020
  191SAPI  H16S22115   1.124   6.454   3.262  1.3653 -1.0108 -0.2358
  191SAPI  C21722116   1.019   6.269   3.273 -0.2836  0.1120  0.1693
  191SAPI  H17R22117   1.002   6.178   3.212 -1.9438  0.8532 -0.5090
  191SAPI  H17S22118   0.917   6.309   3.292  0.1476  1.7993 -0.9335
  191SAPI  C21822119   1.097   6.231   3.398 -0.2619 -0.0239  0.6307
  191SAPI  H18R22120   1.120   6.331   3.443  0.1817 -0.0136  0.3754
  191SAPI  H18S22121   1.196   6.188   3.373 -0.2180  0.5608 -0.2113
  191SAPI  C21922122   1.008   6.155   3.501  0.2402  0.0157  0.2954
  191SAPI  H19R22123   0.939   6.088   3.446 -0.3535  1.1532 -0.3458
  191SAPI  H19S22124   0.935   6.217   3.557 -0.6250  0.1343 -0.9566
  191SAPI  C22022125   1.097   6.078   3.593 -0.6892  0.4012  0.4300
  191SAPI  H20R22126   1.053   6.015   3.674  2.1681 -2.4143 -0.0836
  191SAPI  H20S22127   1.179   6.141   3.635  0.0412 -0.9097  1.0378
  191SAPI  H20T22128   1.146   6.005   3.525  0.0091  2.2013 -1.0410
  191SAPI   C3322129   1.481   5.601   2.515 -0.0381  0.3737 -0.0878
  191SAPI   H3X22130   1.510   5.673   2.436  1.7860 -0.9155 -0.6363
  191SAPI   H3Y22131   1.564   5.530   2.540 -0.2754  0.4683  1.0069
  191SAPI   C3422132   1.468   5.678   2.646 -0.0239  0.5323  0.0168
  191SAPI   H4X22133   1.571   5.710   2.673  0.7295 -0.5433 -1.5019
  191SAPI   H4Y22134   1.435   5.606   2.723  1.2448  1.6647  1.6659
  191SAPI   C3522135   1.374   5.795   2.639  0.4894  0.1937 -0.5053
  191SAPI   H5X22136   1.273   5.748   2.630  2.1540 -3.9535  1.2887
  191SAPI   H5Y22137   1.406   5.856   2.552  1.3796  1.2022  0.5222
  191SAPI   C3622138   1.392   5.883   2.766  0.2275 -0.6044 -0.6611
  191SAPI   H6X22139   1.344   5.981   2.747  0.5541  0.0572  1.7547
  191SAPI   H6Y22140   1.500   5.907   2.780  0.1461 -0.1474 -0.8122
  191SAPI   C3722141   1.365   5.821   2.905  0.3430 -0.2643  0.1169
  191SAPI   H7X22142   1.418   5.726   2.925  0.2791 -0.2722  0.2453
  191SAPI   H7Y22143   1.257   5.798   2.918  0.0030  1.5319  0.5960
  191SAPI   C3822144   1.401   5.911   3.026  0.5381 -0.3471  0.1102
  191SAPI   H8X22145   1.356   6.008   2.998  0.0658 -0.8347 -0.8377
  191SAPI   H8Y22146   1.511   5.924   3.029  0.9264 -3.1690 -0.0268
  191SAPI   C3922147   1.364   5.855   3.165  0.2773  0.5295  0.2056
  191SAPI   H9X22148   1.402   5.752   3.181  1.0960  0.9605  1.0870
  191SAPI   H9Y22149   1.253   5.848   3.163  0.2916  0.5977 -1.1354
  191SAPI  C31022150   1.419   5.933   3.279 -0.2247  0.0717  0.1764
  191SAPI  H10X22151   1.368   6.031   3.294  3.3278  1.8890  1.0217
  191SAPI  H10Y22152   1.524   5.957   3.252 -0.1819  0.3240  0.5592
  191SAPI  C31122153   1.420   5.852   3.414 -0.2515 -0.3312 -0.6604
  191SAPI  H11X22154   1.489   5.765   3.408  0.2924 -0.2226  2.8920
  191SAPI  H11Y22155   1.313   5.823   3.424 -0.7395  1.2742 -1.1261
  191SAPI  C31222156   1.467   5.935   3.531  0.3815  0.4186 -0.9552
  191SAPI  H12X22157   1.395   6.007   3.574 -0.3174 -0.5247 -0.5320
  191SAPI  H12Y22158   1.548   6.004   3.501  0.4094  0.9683  0.3985
  191SAPI  C31322159   1.521   5.858   3.646  0.1773  0.3487 -0.6194
  191SAPI  H13X22160   1.582   5.784   3.589  0.6862  1.0222 -0.9659
  191SAPI  H13Y22161   1.441   5.808   3.704  2.0620 -2.3346 -0.2217
  191SAPI  C31422162   1.607   5.946   3.747  0.2921  0.0342  0.2020
  191SAPI  H14X22163   1.529   6.010   3.793 -3.6466 -4.1047 -0.2423
  191SAPI  H14Y22164   1.669   6.009   3.681 -0.7154  0.2806 -0.5169
  191SAPI  C31522165   1.675   5.887   3.871 -1.0190  0.4913  0.4709
  191SAPI  H15X22166   1.778   5.856   3.845 -1.4202 -0.9172  0.4832
  191SAPI  H15Y22167   1.636   5.787   3.902  1.1760 -0.6980 -0.4852
  191SAPI  C31622168   1.693   5.996   3.984 -0.8216  0.0316  0.3008
  191SAPI  H16X22169   1.606   6.064   3.997 -0.5186  0.3482  0.6734
  191SAPI  H16Y22170   1.772   6.069   3.956 -1.1680  1.2295  2.3662
  191SAPI  C31722171   1.732   5.941   4.120  0.2483  0.3369 -0.5299
  191SAPI  H17X22172   1.824   5.880   4.112  0.7853  1.1497 -0.6660
  191SAPI  H17Y22173   1.650   5.873   4.150 -0.8438  1.7493 -0.2215
  191SAPI  C31822174   1.748   6.055   4.224  0.5062  0.0103  0.3036
  191SAPI  H18X22175   1.726   6.013   4.324 -2.9859  0.4825 -0.1907
  191SAPI  H18Y22176   1.664   6.127   4.219  0.7955  0.1865 -2.8991
  191SAPI  H18Z22177   1.840   6.117   4.224  1.3039 -1.1100 -2.1562
  192SAPI   C1222178   2.869   7.069   1.613 -0.7621  0.0420 -0.2850
  192SAPI    H222179   2.960   7.133   1.608 -0.9878  0.3403 -0.5587
  192SAPI    O222180   2.771   7.149   1.553  0.0829 -0.4459 -0.3877
  192SAPI   HO222181   2.773   7.234   1.598  1.0025  0.4028 -1.9907
  192SAPI   C1322182   2.896   6.934   1.535  0.0929 -0.3836  0.3501
  192SAPI    H322183   2.977   6.888   1.595  1.5000  2.0928  0.4004
  192SAPI    O322184   2.945   6.954   1.404 -0.2665 -0.3833  0.2302
  192SAPI   HO322185   2.878   7.003   1.357  1.0930 -0.6999 -2.0963
  192SAPI   C1422186   2.770   6.850   1.543  0.1823  0.6181 -0.2070
  192SAPI    H422187   2.683   6.888   1.484  1.6224  1.5164 -1.7743
  192SAPI    O422188   2.791   6.729   1.468  0.1609  0.4456 -0.0868
  192SAPI   HO422189   2.768   6.658   1.529  1.0667 -0.4738 -0.7879
  192SAPI   C1522190   2.732   6.830   1.691 -0.4582  0.3743  0.0795
  192SAPI    H522191   2.816   6.775   1.738  0.2152 -0.4921 -2.0953
  192SAPI    O522192   2.612   6.753   1.690 -0.0088 -0.2596  0.6794
  192SAPI   HO522193   2.606   6.708   1.775  0.4606  1.3005  1.5579
  192SAPI   C1622194   2.715   6.958   1.772 -0.6468 -0.7648 -0.4554
  192SAPI    H622195   2.626   7.012   1.736  0.2341  1.4414  0.5899
  192SAPI    O622196   2.678   6.926   1.910  0.1413  0.1665  0.0292
  192SAPI   HO622197   2.644   6.837   1.913  0.0459  0.2364  1.2908
  192SAPI   C1122198   2.837   7.044   1.761  0.0270  0.6824  0.0762
  192SAPI    H122199   2.919   6.985   1.807  0.9435  1.9442  0.0817
  192SAPI     P22200   2.949   7.248   1.903  0.3424 -0.0608 -0.4103
  192SAPI   O1322201   2.915   7.389   1.902 -0.0899 -0.2469 -0.1174
  192SAPI   O1422202   3.080   7.202   1.851 -0.2774  0.7734 -0.0717
  192SAPI   O1222203   2.828   7.173   1.825 -0.1865  0.6430  0.5618
  192SAPI   O1122204   2.945   7.195   2.050  0.7270 -0.5552 -0.2145
  192SAPI    C122205   2.817   7.219   2.121  0.5487 -0.4641  0.0353
  192SAPI    HA22206   2.822   7.323   2.158 -2.1303  0.0432 -0.9093
  192SAPI    HB22207   2.725   7.203   2.060 -0.4691 -1.6128  1.8342
  192SAPI    C222208   2.801   7.124   2.245 -0.8805 -0.0648 -0.4430
  192SAPI    HS22209   2.700   7.125   2.289 -1.0288  1.7116 -0.7677
  192SAPI   O2122210   2.893   7.174   2.345  0.4212  0.1802 -0.0790
  192SAPI   C2122211   2.846   7.269   2.427 -0.2314  0.0287  0.0389
  192SAPI   O2222212   2.738   7.325   2.417 -0.2503  0.1676 -0.1026
  192SAPI   C2222213   2.955   7.315   2.527 -0.5021  1.0730 -0.2309
  192SAPI   H2R22214   3.052   7.282   2.485 -0.9973  0.2794 -0.7598
  192SAPI   H2S22215   2.936   7.425   2.522 -3.3450  0.7151  1.5800
  192SAPI    C322216   2.829   6.977   2.203 -0.5201 -0.1344  0.4757
  192SAPI    HX22217   2.918   6.979   2.136 -0.4736  0.4555  0.5520
  192SAPI    HY22218   2.745   6.934   2.146 -1.5998 -0.9103  2.6125
  192SAPI   O3122219   2.861   6.895   2.309 -0.2990 -0.0270 -0.0775
  192SAPI   C3122220   2.763   6.834   2.370 -0.6772  0.3394  0.9028
  192SAPI   O3222221   2.643   6.846   2.342  0.4738 -0.0091  0.4855
  192SAPI   C3222222   2.828   6.797   2.501 -0.2336 -0.4440  0.0192
  192SAPI   H2X22223   2.875   6.886   2.547  1.7585 -1.6992  0.5269
  192SAPI   H2Y22224   2.910   6.723   2.485 -0.6834 -1.6260  2.8662
  192SAPI   C2322225   2.929   7.247   2.668 -0.1156 -0.1257  0.4628
  192SAPI   H3R22226   3.016   7.282   2.727  0.3782  2.9535 -2.0035
  192SAPI   H3S22227   2.924   7.137   2.652 -0.6416 -0.1877  1.0069
  192SAPI   C2422228   2.801   7.301   2.742  0.2728 -0.2420 -0.0256
  192SAPI   H4R22229   2.721   7.301   2.664  1.3589  2.9849 -1.1912
  192SAPI   H4S22230   2.816   7.403   2.783 -2.5728 -0.1430  0.9178
  192SAPI   C2522231   2.748   7.196   2.836 -0.1840  0.0773 -0.8432
  192SAPI   H5R22232   2.652   7.155   2.803  0.5486 -0.5990 -2.1814
  192SAPI   C2622233   2.800   7.156   2.958  0.2411 -0.8390 -0.4888
  192SAPI   H6R22234   2.755   7.085   3.028  0.6392  0.4231  1.0994
  192SAPI   C2722235   2.920   7.215   3.020 -0.4034 -0.5373  0.2190
  192SAPI   H7R22236   2.881   7.297   3.084  1.7595  1.0646 -0.4721
  192SAPI   H7S22237   2.980   7.266   2.941 -0.8584 -2.3109 -1.2974
  192SAPI   C2822238   3.005   7.121   3.102 -0.0335  0.2257 -0.4014
  192SAPI   H8R22239   3.073   7.058   3.042  0.4102  0.6487 -0.3434
  192SAPI   C2922240   3.019   7.112   3.234  0.0851 -0.7223  0.1109
  192SAPI   H9R22241   3.068   7.021   3.272  0.8444  0.1081  1.1629
  192SAPI  C21022242   2.941   7.198   3.335  0.4275 -0.3447  0.3577
  192SAPI  H10R22243   2.918   7.132   3.421  0.3059 -0.6301  0.1080
  192SAPI  H10S22244   2.845   7.229   3.288  1.8873  3.1414 -0.4846
  192SAPI  C21122245   3.009   7.326   3.380  0.3840  0.0884 -0.3380
  192SAPI  H11R22246   3.066   7.377   3.301  3.0772  0.7434  1.9365
  192SAPI  C21222247   3.018   7.383   3.503  0.5356  0.2285 -0.5212
  192SAPI  H12R22248   3.067   7.481   3.515 -1.8402  1.4566 -0.6395
  192SAPI  C21322249   2.948   7.342   3.629 -0.8750 -0.1637 -0.7007
  192SAPI  H13R22250   2.875   7.267   3.591 -0.3378 -0.8287 -0.4259
  192SAPI  H13S22251   2.876   7.418   3.666 -1.5629 -1.1931  0.0967
  192SAPI  C21422252   3.025   7.293   3.744  0.5376 -0.2389  0.0325
  192SAPI  H14R22253   3.046   7.185   3.741 -0.8080 -0.4870 -0.8551
  192SAPI  C21522254   3.072   7.372   3.843 -0.3768  0.6693  0.9250
  192SAPI  H15R22255   3.131   7.326   3.924  0.8054 -0.7113 -0.6970
  192SAPI  C21622256   3.054   7.521   3.843  0.2411  0.4976 -0.1221
  192SAPI  H16R22257   3.006   7.558   3.749 -2.4892 -2.6178 -0.0519
  192SAPI  H16S22258   3.155   7.566   3.837 -0.1256  1.1240 -1.9927
  192SAPI  C21722259   2.994   7.586   3.963  0.7236 -0.3234  0.6569
  192SAPI  H17R22260   3.008   7.691   3.931 -0.9147  0.0198  1.0502
  192SAPI  H17S22261   3.052   7.571   4.057  1.6200  1.7626  0.4544
  192SAPI  C21822262   2.840   7.557   3.993 -0.0974  0.2649 -0.2310
  192SAPI  H18R22263   2.825   7.447   4.001  1.0937  0.0742 -0.5153
  192SAPI  H18S22264   2.779   7.573   3.902 -1.2350 -0.0298  0.4685
  192SAPI  C21922265   2.781   7.644   4.107  0.0293 -0.4154 -0.0224
  192SAPI  H19R22266   2.786   7.746   4.063  3.5715 -0.3028  0.4535
  192SAPI  H19S22267   2.848   7.633   4.196  1.2314 -2.0349 -1.1131
  192SAPI  C22022268   2.641   7.607   4.153 -0.3653 -0.3234  0.4937
  192SAPI  H20R22269   2.595   7.687   4.215  2.5943  1.8301  0.0008
  192SAPI  H20S22270   2.646   7.512   4.210  0.7719 -0.2311  0.5607
  192SAPI  H20T22271   2.576   7.589   4.064 -0.4605 -1.0714  0.7163
  192SAPI   C3322272   2.729   6.734   2.602 -0.6475  0.0753  0.2092
  192SAPI   H3X22273   2.696   6.631   2.576 -0.1830 -0.1278  0.4084
  192SAPI   H3Y22274   2.641   6.800   2.616 -0.3697  0.3891  0.4920
  192SAPI   C3422275   2.800   6.724   2.739 -0.2800  0.1735 -0.2341
  192SAPI   H4X22276   2.841   6.819   2.781  0.6027  0.5227 -1.8635
  192SAPI   H4Y22277   2.875   6.642   2.739 -2.5944 -2.0201  1.0418
  192SAPI   C3522278   2.702   6.681   2.851  0.3582  0.8198  0.0517
  192SAPI   H5X22279   2.664   6.585   2.811  1.4822  0.1641  0.5443
  192SAPI   H5Y22280   2.619   6.755   2.856 -0.5619 -0.1597 -0.5180
  192SAPI   C3622281   2.769   6.660   2.990  0.9057 -0.0732  0.0535
  192SAPI   H6X22282   2.834   6.570   2.990  1.8678  0.6246 -0.2402
  192SAPI   H6Y22283   2.685   6.648   3.063  0.8157  0.5318  0.0457
  192SAPI   C3722284   2.850   6.772   3.047 -0.1261  0.2918 -0.6007
  192SAPI   H7X22285   2.812   6.867   3.002  1.0861  2.1577  2.2168
  192SAPI   H7Y22286   2.954   6.768   3.008  1.4690 -1.1609  3.6398
  192SAPI   C3822287   2.839   6.779   3.195 -0.0382  0.4577  0.7002
  192SAPI   H8X22288   2.733   6.785   3.229  0.2730 -0.6009  1.8748
  192SAPI   H8Y22289   2.891   6.874   3.220  1.0481 -0.4704  2.0038
  192SAPI   C3922290   2.910   6.664   3.268  0.2200 -0.3253 -0.1223
  192SAPI   H9X22291   2.863   6.568   3.238 -1.2139  0.1766  0.4671
  192SAPI   H9Y22292   2.873   6.678   3.371  1.4783  1.4669  0.1059
  192SAPI  C31022293   3.062   6.653   3.248 -0.8113 -0.0510  0.5701
  192SAPI  H10X22294   3.096   6.745   3.301  0.0059  0.0922 -0.1826
  192SAPI  H10Y22295   3.094   6.666   3.142 -3.3054 -0.8212 -0.3082
  192SAPI  C31122296   3.110   6.513   3.293  0.0382 -1.4140  0.6335
  192SAPI  H11X22297   3.067   6.439   3.221  0.3400  0.9793 -2.1063
  192SAPI  H11Y22298   3.071   6.493   3.395  1.0182  0.4432  1.4002
  192SAPI  C31222299   3.254   6.491   3.279  0.1551  0.0179  0.6831
  192SAPI  H12X22300   3.284   6.515   3.175 -1.2465 -1.1525 -0.0065
  192SAPI  H12Y22301   3.285   6.385   3.297  0.4861  0.0799  0.4854
  192SAPI  C31322302   3.330   6.569   3.386 -0.9639  0.3900 -0.1662
  192SAPI  H13X22303   3.270   6.555   3.479  0.0146 -0.5401  0.3295
  192SAPI  H13Y22304   3.313   6.672   3.349 -0.3541  1.1237  1.5477
  192SAPI  C31422305   3.479   6.533   3.396  0.3798  0.7612 -0.6215
  192SAPI  H14X22306   3.482   6.425   3.424 -1.7464  0.5370 -1.1365
  192SAPI  H14Y22307   3.541   6.597   3.462 -0.1098 -0.6675  1.2350
  192SAPI  C31522308   3.549   6.540   3.254 -0.1022  0.4863 -0.2970
  192SAPI  H15X22309   3.522   6.635   3.202  0.7517 -0.1125 -1.8598
  192SAPI  H15Y22310   3.507   6.467   3.181 -0.0402  0.1556  0.0035
  192SAPI  C31622311   3.698   6.516   3.259 -0.2627 -0.4799 -0.3408
  192SAPI  H16X22312   3.719   6.411   3.290 -1.3413 -1.1226 -1.7410
  192SAPI  H16Y22313   3.747   6.582   3.333  0.6537 -0.4728 -0.9404
  192SAPI  C31722314   3.753   6.536   3.117 -0.3534  0.4080  0.3200
  192SAPI  H17X22315   3.757   6.645   3.096 -0.0466  0.6932  1.7589
  192SAPI  H17Y22316   3.691   6.490   3.037  2.2243 -1.7602 -0.5104
  192SAPI  C31822317   3.900   6.479   3.116 -0.1653 -0.6872  0.1462
  192SAPI  H18X22318   3.937   6.487   3.011  0.4937 -1.4443  0.3186
  192SAPI  H18Y22319   3.906   6.373   3.147  1.4112 -1.1058 -1.4797
  192SAPI  H18Z22320   3.961   6.540   3.185  0.9149 -0.6832 -0.8041
  193SOD    SOD22321   2.173   2.128   7.095 -0.5960  0.4596 -0.0376
  194SOD    SOD22322   3.120   3.577   0.327  0.2308 -0.0992  0.1376
  195SOD    SOD22323   6.053   4.615   7.227 -0.1699  0.1354  0.8393
  196SOD    SOD22324   4.244   3.948   5.956 -0.1974 -0.0916  0.2294
  197SOD    SOD22325   3.578   5.950   1.434  0.2146  0.0237 -0.2595
  198SOD    SOD22326   2.054   3.809   1.515  0.2989 -0.3611  0.1932
  199SOD    SOD22327   4.074   2.659   0.445  0.2214 -0.2527 -0.4532
  200SOD    SOD22328   0.853   2.501   2.338 -0.0093  0.4279  0.2389
  201SOD    SOD22329   2.374   2.155   1.402 -0.1158  0.1770  0.0130
  202SOD    SOD22330   1.991   3.215   1.709  0.7913 -0.1831  0.4944
  203SOD    SOD22331   6.127   6.878   6.840 -0.1303  0.0451 -0.6643
  204SOD    SOD22332   6.590   1.996   0.199 -0.1329 -0.0691  0.1437
  205SOD    SOD22333   3.692   5.185   7.184  0.3746 -0.3416  0.4596
  206SOD    SOD22334   3.743   2.874   1.174 -0.1167  0.4642  0.0363
  207SOD    SOD22335   2.195   3.074   5.896 -1.0713  0.0987  0.3892
  208SOD    SOD22336   5.127   5.963   1.307 -0.5308 -0.2106 -0.1435
  209SOD    SOD22337   0.938   1.396   7.030 -0.1193  0.2577 -0.5697
  210SOD    SOD22338   4.383   1.322   6.872 -0.5530 -0.1857 -0.2076
  211SOD    SOD22339   3.019   2.540   7.338  0.0398 -0.0773 -0.2032
  212SOD    SOD22340   4.023   1.568   7.823 -0.4127  0.8337 -0.1354
  213SOD    SOD22341   4.484   4.922   0.724  0.3087  0.3182 -0.2902
  214SOD    SOD22342   5.107   5.748   7.335 -0.4712 -0.6463 -0.1594
  215SOD    SOD22343   4.433   7.097   6.534  0.3410  0.1239  0.5895
  216SOD    SOD22344   5.617   3.973   7.856 -0.5406  0.4865 -0.2203
  217SOD    SOD22345   5.639   4.877   0.622 -0.4190 -0.2861 -0.0697
  218SOD    SOD22346   1.360   5.335   0.893  0.2497  0.2611 -0.3154
  219SOD    SOD22347   5.735   5.735   0.397  0.3699 -0.2041  0.2028
  220SOD    SOD22348   7.141   2.828   7.713 -0.0266  0.3596 -0.1017
  221SOD    SOD22349   3.920   5.005   0.547  0.0579 -0.4626  0.5847
  222SOD    SOD22350   2.056   0.169   7.257  0.0891 -0.1542  0.4453
  223SOD    SOD22351   2.226   7.091   6.303  0.2722 -0.5990  0.0707
  224SOD    SOD22352   0.482   7.156   1.145  0.1973  0.3813 -0.0475
  225SOD    SOD22353   7.012   5.947   6.211 -0.0001  0.3491  1.0698
  226SOD    SOD22354   2.719   5.896   8.090  0.6163  0.2418  0.2010
  227SOD    SOD22355   0.168   3.618   1.367 -0.0177  0.2081  0.1785
  228SOD    SOD22356   3.679   0.066   7.292  0.1113 -0.2887 -0.1458
  229SOD    SOD22357   7.067   5.817   0.940 -0.0676  0.5363 -0.0612
  230CLA    CLA22358   1.969   7.082   6.808  0.2456  0.1595 -0.0068
  231CLA    CLA22359   3.077   5.805   7.524 -0.3426 -0.0076  0.3074
  232CLA    CLA22360   6.183   5.530   0.519 -0.1119  0.1613  0.5450
  233CLA    CLA22361   4.891   5.125   0.892 -0.5550  0.1256  0.1946
  234CLA    CLA22362   2.881   3.600   1.374 -0.0809  0.0627 -0.1454
  235CLA    CLA22363   6.257   3.976   7.582 -0.0186  0.4739 -0.1969
  236CLA    CLA22364   3.234   0.149   7.456 -0.1035 -0.2875  0.1360
  237CLA    CLA22365   0.795   3.610   1.811 -0.2981 -0.0075 -0.0015
  238CLA    CLA22366   2.690   2.978   0.674  0.2449  0.0480  0.1891
  239CLA    CLA22367   3.135   2.983   0.850  0.1009  0.0980  0.2171
  240CLA    CLA22368   3.617   6.355   7.958  0.0422 -0.2598  0.3888
  241CLA    CLA22369   5.150   3.736   6.785 -0.2916 -0.1264  0.1242
  242CLA    CLA22370   4.085   2.329   6.872 -0.2024  0.0439 -0.0296
  243CLA    CLA22371   4.186   1.133   7.720  0.0841  0.0080  0.1095
  244CLA    CLA22372   3.727   4.536   0.486 -0.3239 -0.0458  0.0327
  245CLA    CLA22373   2.687   3.566   0.133  0.3492  0.2433 -0.1375
  246CLA    CLA22374   5.499   5.870   7.014  0.2466  0.0267 -0.3906
  247TIP3   OH222375   2.517   2.267   7.924  0.3106 -0.3265 -0.3651
  247TIP3    H122376   2.521   2.214   8.003 -0.3832  0.2575  0.0668
  247TIP3    H222377   2.603   2.256   7.883  0.2189 -1.6725 -0.2188
  248TIP3   OH222378   3.224   3.345   7.455  0.6410  0.4164  0.0986
  248TIP3    H122379   3.238   3.377   7.544 -0.3207 -0.9429  0.7623
  248TIP3    H222380   3.284   3.271   7.446 -2.0453 -1.9976  1.0722
  249TIP3   OH222381   5.590   2.335   7.409 -0.0046 -0.5443 -0.0364
  249TIP3    H122382   5.685   2.349   7.410 -0.1677  0.7586 -0.9026
  249TIP3    H222383   5.558   2.394   7.341 -1.3532 -1.5923 -0.3355
  250TIP3   OH222384   5.058   3.208   6.437  0.1132 -0.3763  0.1372
  250TIP3    H122385   5.084   3.299   6.419  2.9824 -0.6225  2.5892
  250TIP3    H222386   5.039   3.207   6.530  0.3331 -2.3444  0.1697
  251TIP3   OH222387   1.216   3.807   1.526  0.5089 -0.1775  1.1323
  251TIP3    H122388   1.125   3.810   1.556  0.4764 -0.1756  1.0334
  251TIP3    H222389   1.256   3.737   1.578  0.6203  0.2640  1.6472
  252TIP3   OH222390   1.239   4.663   0.110 -0.6892 -0.5298 -0.0139
  252TIP3    H122391   1.287   4.695   0.186  0.4075 -1.2060 -0.4047
  252TIP3    H222392   1.239   4.736   0.048 -0.3047 -0.4659  0.0588
  253TIP3   OH222393   3.949   6.206   7.562  0.2437 -0.0978  0.1535
  253TIP3    H122394   3.901   6.278   7.520  0.2363 -0.5607 -0.6364
  253TIP3    H222395   3.924   6.212   7.654 -1.4290 -0.3884 -0.2583
  254TIP3   OH222396   3.633   3.390   6.040  0.2373 -0.8425 -0.8243
  254TIP3    H122397   3.680   3.315   6.002  0.9426 -0.8779  0.0838
  254TIP3    H222398   3.637   3.375   6.134  1.2200  0.8352 -0.5826
  255TIP3   OH222399   3.776   4.509   7.104  0.2678 -0.0461  0.0889
  255TIP3    H122400   3.866   4.486   7.082  0.3520  1.2955 -1.0304
  255TIP3    H222401   3.743   4.433   7.152  1.5032 -1.2059 -0.8515
  256TIP3   OH222402   3.379   1.379   5.747 -0.9090 -0.2368  0.5276
  256TIP3    H122403   3.299   1.397   5.697 -1.2268  0.2009  1.1882
  256TIP3    H222404   3.404   1.464   5.783 -0.1067 -0.3658  0.2733
  257TIP3   OH222405   3.041   2.935   5.807  0.2553 -0.5511  0.3376
  257TIP3    H122406   3.072   3.001   5.869  1.2751 -0.2001 -0.5246
  257TIP3    H222407   2.953   2.963   5.783  1.3524  1.5742 -1.4404
  258TIP3   OH222408   4.401   6.089   0.353  0.0622  0.1572 -0.3615
  258TIP3    H122409   4.375   6.100   0.262 -0.4091 -0.2328 -0.2763
  258TIP3    H222410   4.484   6.137   0.361 -0.3737  0.9852 -0.7612
  259TIP3   OH222411   0.609   4.019   7.495 -0.5489 -0.0810 -0.0528
  259TIP3    H122412   0.656   3.964   7.433 -0.4565 -0.4588  0.3496
  259TIP3    H222413   0.561   4.082   7.440 -1.4465 -1.1856 -0.5560
  260TIP3   OH222414   6.386   3.144   6.455 -0.4077  0.4996 -0.3671
  260TIP3    H122415   6.366   3.051   6.461 -1.7927  0.8352  0.8524
  260TIP3    H222416   6.380   3.175   6.546  0.3865  1.6982 -0.7138
  261TIP3   OH222417   2.870   2.622   6.542  0.3423  0.0633 -0.2509
  261TIP3    H122418   2.777   2.600   6.546  0.8969 -2.5269 -0.6038
  261TIP3    H222419   2.913   2.541   6.514  2.6545  1.3751 -0.6552
  262TIP3   OH222420   5.339   3.026   6.425  0.5366 -0.6435 -0.2879
  262TIP3    H122421   5.284   3.103   6.432 -0.6784 -1.4489 -0.7203
  262TIP3    H222422   5.350   3.013   6.330  2.9370  0.5188 -0.1930
  263TIP3   OH222423   3.519   3.199   6.618 -0.2310  0.3663 -0.3448
  263TIP3    H122424   3.590   3.213   6.681 -0.3191 -0.2254 -0.1127
  263TIP3    H222425   3.462   3.276   6.629 -0.3069  0.2115  0.3812
  264TIP3   OH222426   4.914   3.078   2.190 -0.0668  0.6471  0.5237
  264TIP3    H122427   4.868   3.009   2.236  0.7153  0.0780  0.4672
  264TIP3    H222428   5.004   3.047   2.184  0.6025  2.2875  1.7283
  265TIP3   OH222429   6.142   2.315   6.983 -0.1656 -0.7640  0.1867
  265TIP3    H122430   6.173   2.398   7.017 -0.0328 -0.5453 -0.4524
  265TIP3    H222431   6.054   2.333   6.950  0.1257 -0.6996 -0.5841
  266TIP3   OH222432   2.623   0.645   0.827  0.5260 -0.0613  0.3156
  266TIP3    H122433   2.584   0.559   0.813 -0.5373  0.3089  0.9244
  266TIP3    H222434   2.654   0.671   0.740  0.0758 -0.6832 -0.0422
  267TIP3   OH222435   2.022   4.689   0.104  0.3956  0.3089 -0.6918
  267TIP3    H122436   2.104   4.726   0.072  0.4182  1.6095  0.7969
  267TIP3    H222437   2.035   4.676   0.198 -1.5018  1.8267 -0.1546
  268TIP3   OH222438   4.251   2.267   0.860  0.7356 -0.1268  0.3615
  268TIP3    H122439   4.241   2.260   0.955 -0.5982  1.0909  0.3428
  268TIP3    H222440   4.226   2.357   0.840 -0.2733 -0.7324 -1.2765
  269TIP3   OH222441   2.846   0.013   0.785 -0.1462 -1.1214  0.4909
  269TIP3    H122442   2.866  -0.033   0.866 -2.7231 -1.6607  0.8448
  269TIP3    H222443   2.810   0.097   0.813 -0.5076 -1.0790 -0.0881
  270TIP3   OH222444   2.371   1.509   6.949 -0.0862 -0.1357  0.1583
  270TIP3    H122445   2.448   1.466   6.987 -0.1867 -0.2141  0.2733
  270TIP3    H222446   2.297   1.474   6.999 -0.1404  0.4038  0.4570
  271TIP3   OH222447   1.289   1.786   6.906  0.5288  0.2831 -0.0345
  271TIP3    H122448   1.376   1.810   6.874  0.7174 -1.5558 -0.9607
  271TIP3    H222449   1.236   1.774   6.827 -0.4238  0.8376  0.5056
  272TIP3   OH222450   0.252   6.437   6.211 -0.3533 -0.2486 -0.0355
  272TIP3    H122451   0.315   6.365   6.209 -0.0955  0.0121 -1.2987
  272TIP3    H222452   0.253   6.473   6.123 -0.8344  1.0076  0.4655
  273TIP3   OH222453   6.545   0.964   0.148  0.3174 -0.0378 -0.0245
  273TIP3    H122454   6.460   1.008   0.147  0.6140  0.5530  0.1743
  273TIP3    H222455   6.559   0.937   0.057  0.3789  0.7854 -0.2693
  274TIP3   OH222456   5.070   1.189   6.980 -0.0756  0.3975  0.0886
  274TIP3    H122457   5.148   1.214   7.031 -0.4322  1.3160  0.2050
  274TIP3    H222458   5.101   1.186   6.890 -0.1355  1.8013  0.0101
  275TIP3   OH222459   1.650   2.759   1.508  0.0365  0.0786  0.1191
  275TIP3    H122460   1.742   2.783   1.511  0.7889 -2.6653  0.2649
  275TIP3    H222461   1.641   2.691   1.575 -1.9894  0.0299 -0.1741
  276TIP3   OH222462   1.202   0.204   0.742  0.0395  0.1786 -0.0430
  276TIP3    H122463   1.107   0.213   0.730  0.0920  0.5489 -0.1617
  276TIP3    H222464   1.219   0.111   0.725 -0.5323 -0.2344  1.5547
  277TIP3   OH222465   6.012   3.489   0.060 -0.0321 -0.0280 -0.0412
  277TIP3    H122466   6.009   3.583   0.082  1.9395 -0.1336  0.8474
  277TIP3    H222467   6.026   3.487  -0.035  0.8405  0.6169  0.0632
  278TIP3   OH222468   4.477   4.723   7.797  0.1574  0.4926  0.0505
  278TIP3    H122469   4.511   4.705   7.885 -0.4506  0.2059  0.2273
  278TIP3    H222470   4.533   4.794   7.764  0.7380  0.2288  0.4550
  279TIP3   OH222471   1.864   2.360   6.440 -0.7740  0.1267  0.0988
  279TIP3    H122472   1.826   2.421   6.503 -1.4122  2.7383 -2.7067
  279TIP3    H222473   1.789   2.316   6.400 -0.3520 -1.9072  1.4433
  280TIP3   OH222474   1.014   1.084   6.475 -0.0506 -0.3001  0.1244
  280TIP3    H122475   1.076   1.100   6.546  0.9967 -1.1987 -0.5963
  280TIP3    H222476   0.941   1.145   6.494  0.5690  0.0324  1.5176
  281TIP3   OH222477   1.592   3.112   7.196  0.3680 -0.2187  0.2089
  281TIP3    H122478   1.569   3.033   7.147  1.1326  0.0560 -0.6112
  281TIP3    H222479   1.680   3.094   7.229  0.3613  0.1122  0.4040
  282TIP3   OH222480   1.789   1.907   6.661 -0.1445  0.5703  0.2990
  282TIP3    H122481   1.862   1.847   6.678 -0.0580  0.0374 -1.7668
  282TIP3    H222482   1.778   1.904   6.566 -0.8856  2.9929  0.2887
  283TIP3   OH222483   0.837   2.331   7.099 -0.2295  0.3076  0.1651
  283TIP3    H122484   0.811   2.325   7.007  0.9913  0.3229 -0.1889
  283TIP3    H222485   0.905   2.264   7.109 -1.0418 -0.3603  1.3026
  284TIP3   OH222486   6.295   6.896   0.490 -0.2502  0.8143 -0.2745
  284TIP3    H122487   6.263   6.851   0.412  4.6471 -1.8818 -0.9018
  284TIP3    H222488   6.312   6.827   0.553 -1.9846  2.7749  2.4534
  285TIP3   OH222489   2.507   5.370   0.992 -0.3617  0.1960  0.2246
  285TIP3    H122490   2.554   5.413   1.064  0.2164 -0.2170  0.0986
  285TIP3    H222491   2.575   5.350   0.928 -0.6536 -0.7799  0.2150
  286TIP3   OH222492   0.694   0.323   7.701  0.4219  0.0933 -0.2268
  286TIP3    H122493   0.607   0.286   7.716  0.4894  0.5183  1.2609
  286TIP3    H222494   0.739   0.258   7.646 -0.8670 -0.0679 -1.1070
  287TIP3   OH222495   7.086   1.722   5.925 -0.5390 -0.6414 -0.1602
  287TIP3    H122496   7.055   1.645   5.973 -0.5850 -0.9737 -0.7058
  287TIP3    H222497   7.006   1.767   5.896 -0.5121 -0.3412  0.2396
  288TIP3   OH222498   6.422   1.461   5.621  0.3877 -0.1287  0.0738
  288TIP3    H122499   6.392   1.462   5.712  1.3986 -0.0736  0.4191
  288TIP3    H222500   6.475   1.540   5.612  1.4422 -0.8469 -0.1566
  289TIP3   OH222501   0.793   6.713   7.802 -0.6623  0.1659 -0.5978
  289TIP3    H122502   0.721   6.776   7.805 -1.1262 -0.4030  0.3803
  289TIP3    H222503   0.861   6.758   7.752 -0.6612  1.7966  0.7976
  290TIP3   OH222504   2.362   5.517   8.099  0.2513  0.4159 -0.0176
  290TIP3    H122505   2.307   5.595   8.106  0.7695  0.7567  0.2464
  290TIP3    H222506   2.375   5.490   8.190 -0.8027 -0.5896 -0.1527
  291TIP3   OH222507   6.089   0.667   7.461  0.3070  0.2576  0.3200
  291TIP3    H122508   6.091   0.677   7.366  0.4411  3.5608  0.6127
  291TIP3    H222509   5.999   0.640   7.480 -0.0894  0.8547 -0.6506
  292TIP3   OH222510   5.217   0.152   6.514  0.0800  0.3241  0.1048
  292TIP3    H122511   5.143   0.212   6.521 -0.3936 -0.3664  1.1606
  292TIP3    H222512   5.207   0.093   6.589  1.2186 -0.3065 -0.2314
  293TIP3   OH222513   1.425   0.893   6.165  0.4410 -0.0503  0.3396
  293TIP3    H122514   1.489   0.826   6.143 -0.8583 -1.6276  1.2406
  293TIP3    H222515   1.341   0.857   6.135 -0.5760  0.2275  2.7452
  294TIP3   OH222516   6.655   5.098   0.739  0.1229 -0.0979  0.0711
  294TIP3    H122517   6.729   5.132   0.688 -1.9350  2.4156 -1.3485
  294TIP3    H222518   6.638   5.011   0.702  0.4983  0.5105 -1.5544
  295TIP3   OH222519   1.866   2.771   1.327  0.0871  0.0569  0.0312
  295TIP3    H122520   1.924   2.703   1.291 -0.5532 -1.5761  1.9784
  295TIP3    H222521   1.925   2.842   1.352  0.9532 -0.4301 -0.5740
  296TIP3   OH222522   5.043   2.738   1.786 -0.5182  0.0633 -0.0880
  296TIP3    H122523   4.987   2.776   1.854 -1.2384 -0.2257 -0.5214
  296TIP3    H222524   5.046   2.645   1.806  0.2134  0.1459  0.2203
  297TIP3   OH222525   1.676   6.340   0.953 -0.1336  0.0289  0.2207
  297TIP3    H122526   1.754   6.287   0.938  0.2729  0.0775  2.1200
  297TIP3    H222527   1.678   6.362   1.046 -1.3100  1.8026 -0.1436
  298TIP3   OH222528   4.734   2.851   2.167 -0.3611 -0.1940 -0.5612
  298TIP3    H122529   4.640   2.849   2.182 -0.5351  1.1087 -1.4163
  298TIP3    H222530   4.769   2.779   2.221 -1.8093 -0.5620 -0.1060
  299TIP3   OH222531   4.038   3.818   7.777 -0.2926  0.0683 -0.5437
  299TIP3    H122532   4.119   3.868   7.766 -0.2043  0.0733  0.1326
  299TIP3    H222533   3.968   3.878   7.751 -0.1681  0.4545  0.0259
  300TIP3   OH222534   2.401   6.786   1.076 -0.1578  0.4519 -0.5685
  300TIP3    H122535   2.478   6.765   1.128 -0.0660  0.1276 -0.8325
  300TIP3    H222536   2.403   6.881   1.067 -0.0648  0.4886 -0.1518
  301TIP3   OH222537   2.450   5.534   1.986  0.3649 -0.1939 -0.6709
  301TIP3    H122538   2.444   5.611   2.043  0.5089 -0.6990  0.0346
  301TIP3    H222539   2.494   5.566   1.907 -3.8217  1.6115 -2.4581
  302TIP3   OH222540   2.146   0.158   0.280 -0.1776  0.7859  0.1063
  302TIP3    H122541   2.194   0.135   0.359 -0.8797  1.2285  0.6696
  302TIP3    H222542   2.093   0.081   0.260 -1.3178  1.3008  1.0744
  303TIP3   OH222543   5.754   1.328   0.755 -0.1379 -0.3157  0.0947
  303TIP3    H122544   5.661   1.304   0.761 -0.8324  2.4490  0.6807
  303TIP3    H222545   5.787   1.275   0.682 -2.1048 -1.5203  0.0374
  304TIP3   OH222546   4.751   6.012   8.097  0.8558  0.9736 -0.4370
  304TIP3    H122547   4.765   6.099   8.057 -0.4999  1.3002 -0.2146
  304TIP3    H222548   4.788   5.951   8.033 -0.8953  1.5239 -2.0296
  305TIP3   OH222549   3.347   3.278   1.648 -0.0815 -0.6594 -0.3295
  305TIP3    H122550   3.407   3.321   1.709  0.8186 -1.8275 -0.3818
  305TIP3    H222551   3.293   3.349   1.614  2.2234  0.6595 -1.3669
  306TIP3   OH222552   2.711   5.062   1.266  0.0138 -0.3033  0.5557
  306TIP3    H122553   2.709   5.155   1.243  0.2158 -0.3538  0.3240
  306TIP3    H222554   2.627   5.028   1.234  0.1728 -0.3128  0.1399
  307TIP3   OH222555   6.962   1.187   7.850  0.1575 -0.5748 -0.1354
  307TIP3    H122556   6.895   1.175   7.917  1.5995  1.6079  1.7929
  307TIP3    H222557   6.993   1.099   7.831 -1.5001 -1.3864  0.7508
  308TIP3   OH222558   2.882   3.008   1.723  0.2071  0.0232  0.0580
  308TIP3    H122559   2.968   3.044   1.745 -0.1376  0.6665  0.3728
  308TIP3    H222560   2.884   2.995   1.628  0.8031 -0.3781  0.1232
  309TIP3   OH222561   2.846   2.025   6.884  0.3238 -0.1028  0.2027
  309TIP3    H122562   2.938   2.013   6.861 -0.0057 -2.0377 -0.1707
  309TIP3    H222563   2.807   2.066   6.807  0.6195 -0.4190 -0.1158
  310TIP3   OH222564   4.297   6.766   0.419  0.0332  0.5128  1.1109
  310TIP3    H122565   4.374   6.716   0.445 -0.0381  0.2511  0.8181
  310TIP3    H222566   4.281   6.825   0.493  0.9914  1.1365  0.8228
  311TIP3   OH222567   5.430   0.522   7.253 -0.8867  0.7483 -0.2269
  311TIP3    H122568   5.510   0.555   7.213 -1.0842 -0.3433 -1.5387
  311TIP3    H222569   5.360   0.574   7.214 -0.9183  0.9481  0.0944
  312TIP3   OH222570   2.199   5.724   1.585  0.0441 -0.1877 -0.1498
  312TIP3    H122571   2.248   5.796   1.624  0.6745 -1.1161  0.8137
  312TIP3    H222572   2.202   5.655   1.651 -1.2219 -0.8126 -0.7374
  313TIP3   OH222573   4.532   0.043   7.759 -0.2659  0.1795 -0.1294
  313TIP3    H122574   4.515  -0.042   7.718 -1.3948  0.2411  0.2109
  313TIP3    H222575   4.463   0.100   7.727 -1.0173  0.2987  1.6404
  314TIP3   OH222576   4.864   1.592   2.178  0.0792 -0.2243  0.2206
  314TIP3    H122577   4.900   1.536   2.247 -0.0166 -0.1847  0.3040
  314TIP3    H222578   4.859   1.536   2.101 -1.6488 -0.8209  0.7563
  315TIP3   OH222579   0.459   0.013   0.731  0.4564 -0.1087 -0.0737
  315TIP3    H122580   0.483   0.047   0.644 -0.4755 -0.5553 -0.5131
  315TIP3    H222581   0.364   0.022   0.734  0.5839  0.8803  1.3279
  316TIP3   OH222582   0.876   1.915   1.466 -0.3387 -0.0961 -0.3936
  316TIP3    H122583   0.946   1.975   1.492 -0.4275 -0.0549 -0.2479
  316TIP3    H222584   0.845   1.877   1.548  0.8011 -1.5503 -0.6208
  317TIP3   OH222585   4.561   4.433   0.875 -0.0444 -0.1199 -0.2240
  317TIP3    H122586   4.513   4.464   0.952  1.8508 -1.1005  1.3880
  317TIP3    H222587   4.510   4.359   0.843  0.2177 -0.9785  1.3047
  318TIP3   OH222588   5.581   5.686   0.234  0.4145  0.3365 -0.1403
  318TIP3    H122589   5.607   5.732   0.154  0.3365  0.2650 -0.2075
  318TIP3    H222590   5.486   5.680   0.228  0.3607  0.8174  0.2264
  319TIP3   OH222591   2.197   0.164   6.756 -0.6741 -0.3466 -0.2823
  319TIP3    H122592   2.149   0.093   6.798  0.4981 -0.0468  1.6115
  319TIP3    H222593   2.290   0.141   6.767 -0.3104  0.6054 -1.2064
  320TIP3   OH222594   3.422   3.614   0.574  0.2637 -0.6605  0.1524
  320TIP3    H122595   3.459   3.672   0.507 -0.4005 -1.3435 -0.8113
  320TIP3    H222596   3.448   3.526   0.547 -0.0530 -0.9429  0.7659
  321TIP3   OH222597   2.972   6.726   0.338 -0.2614 -0.0796 -0.4600
  321TIP3    H122598   3.017   6.733   0.254 -1.5791 -1.8632 -1.3391
  321TIP3    H222599   3.033   6.763   0.401  0.6051  1.6028 -2.2444
  322TIP3   OH222600   3.466   5.444   2.096 -0.4603 -0.0303  0.2281
  322TIP3    H122601   3.489   5.463   2.187 -0.5415 -0.4142  0.3273
  322TIP3    H222602   3.515   5.510   2.045 -0.3652  0.1433  0.5428
  323TIP3   OH222603   4.881   5.880   1.896  0.0009  0.2159 -0.0360
  323TIP3    H122604   4.862   5.813   1.961 -1.2859  0.1138 -0.4999
  323TIP3    H222605   4.976   5.891   1.899  0.0355 -0.4150  1.2321
  324TIP3   OH222606   2.948   0.108   7.953 -0.5682 -0.7977 -0.5573
  324TIP3    H122607   2.978   0.197   7.932 -0.1675 -0.2412  2.2099
  324TIP3    H222608   3.005   0.051   7.902 -0.8753  0.4838 -2.4371
  325TIP3   OH222609   1.431   7.011   0.801 -0.1672  0.3662  0.9696
  325TIP3    H122610   1.410   7.058   0.881  2.4288  3.5458 -0.1044
  325TIP3    H222611   1.377   7.052   0.734  0.9916  0.8163  0.2958
  326TIP3   OH222612   6.822   2.415   2.260  0.0520  0.4666  0.1387
  326TIP3    H122613   6.888   2.349   2.238  0.3772  0.2828  1.6331
  326TIP3    H222614   6.799   2.397   2.351  0.1650  2.4101  0.5816
  327TIP3   OH222615   4.837   4.350   1.424  0.3576 -0.4766 -0.3990
  327TIP3    H122616   4.859   4.428   1.475  2.1152  0.2419 -2.1672
  327TIP3    H222617   4.899   4.283   1.454 -0.4130 -0.8802  0.3211
  328TIP3   OH222618   0.654   6.870   1.845 -0.0674  0.0742 -0.1144
  328TIP3    H122619   0.686   6.873   1.755  0.6442 -1.9594  0.0490
  328TIP3    H222620   0.698   6.943   1.889 -0.1783  0.8809 -1.3184
  329TIP3   OH222621   5.428   1.447   2.247  0.4984 -0.1715 -0.3734
  329TIP3    H122622   5.477   1.514   2.200  0.5744 -0.0015 -0.0532
  329TIP3    H222623   5.342   1.487   2.262  1.1043  0.5210  1.3429
  330TIP3   OH222624   4.394   6.233   7.058 -0.0153 -0.0779  0.1867
  330TIP3    H122625   4.456   6.264   7.124  1.5475  1.2022 -1.8379
  330TIP3    H222626   4.332   6.305   7.048  0.8271  0.4899 -1.0517
  331TIP3   OH222627   4.472   4.475   6.090 -0.1967 -0.0186 -0.3609
  331TIP3    H122628   4.534   4.448   6.158 -0.4029 -0.8724 -0.5069
  331TIP3    H222629   4.520   4.463   6.008 -0.7441 -1.2149 -0.5099
  332TIP3   OH222630   0.436   4.710   0.795 -0.0909 -0.1856 -0.0198
  332TIP3    H122631   0.407   4.642   0.855  0.1668  0.6354  1.0477
  332TIP3    H222632   0.490   4.664   0.731 -0.4370 -1.0787  0.3221
  333TIP3   OH222633   5.649   0.120   0.403  0.4047  0.0040 -0.0759
  333TIP3    H122634   5.622   0.211   0.394  0.1884 -0.1890 -1.5583
  333TIP3    H222635   5.664   0.108   0.496 -0.6992  1.2409  0.2740
  334TIP3   OH222636   5.124   5.841   0.627 -0.3384  0.4541  0.6345
  334TIP3    H122637   5.040   5.881   0.604 -0.4898 -0.8095 -1.1343
  334TIP3    H222638   5.117   5.825   0.721 -0.6354  3.6508  1.2183
  335TIP3   OH222639   1.988   0.888   1.159 -0.7210  0.0720 -0.1732
  335TIP3    H122640   2.075   0.918   1.187 -0.4202  1.0363 -2.0891
  335TIP3    H222641   1.927   0.937   1.214 -0.0654 -0.9383  1.4991
  336TIP3   OH222642   3.489   0.512   7.201 -0.0037 -0.4575 -0.2521
  336TIP3    H122643   3.423   0.570   7.239  0.3728 -0.8756  1.0594
  336TIP3    H222644   3.573   0.546   7.234  0.3498 -0.6819 -0.9049
  337TIP3   OH222645   3.646   2.244   6.405  0.0092 -0.3181 -0.4140
  337TIP3    H122646   3.604   2.322   6.441 -2.0468 -1.8067  0.5322
  337TIP3    H222647   3.659   2.264   6.312 -2.1920  0.4561 -0.5738
  338TIP3   OH222648   4.928   2.648   7.468  0.3054 -0.0442 -0.1779
  338TIP3    H122649   4.944   2.728   7.519  1.1907 -2.0644  2.8221
  338TIP3    H222650   4.837   2.656   7.438  0.1439  1.7210  0.7289
  339TIP3   OH222651   3.501   6.844   1.395 -0.0053  0.4579 -0.7611
  339TIP3    H122652   3.415   6.880   1.373 -0.9469 -1.7321 -0.8535
  339TIP3    H222653   3.549   6.844   1.312  0.8071  3.4818 -0.3343
  340TIP3   OH222654   6.208   1.225   7.247 -0.4951 -0.2197 -0.7100
  340TIP3    H122655   6.140   1.289   7.225  0.0287  0.8435  0.7150
  340TIP3    H222656   6.175   1.180   7.324 -1.2429 -2.3083 -2.1862
  341TIP3   OH222657   2.008   1.651   6.381  0.0043 -0.0946 -0.4453
  341TIP3    H122658   2.084   1.601   6.411 -0.1158  0.6701  1.1513
  341TIP3    H222659   1.945   1.645   6.452 -0.0657  2.1734 -0.2654
  342TIP3   OH222660   4.858   0.974   8.052  0.3862  0.4265  0.3927
  342TIP3    H122661   4.921   1.041   8.026 -0.1048  0.3277 -1.1004
  342TIP3    H222662   4.775   1.004   8.015  0.1034 -0.8571 -0.0335
  343TIP3   OH222663   1.964   6.271   7.272  0.5753 -0.0870  0.2866
  343TIP3    H122664   1.882   6.264   7.322  0.1286  0.0213 -0.4206
  343TIP3    H222665   2.014   6.339   7.317 -0.7821  1.6219 -0.7148
  344TIP3   OH222666   1.873   1.384   0.822 -0.2590 -0.2034 -0.2805
  344TIP3    H122667   1.919   1.468   0.822 -0.0044 -0.3261 -1.4488
  344TIP3    H222668   1.871   1.358   0.729  0.4369 -1.9132  0.1573
  345TIP3   OH222669   1.844   3.024   7.259  0.1277 -0.1511 -0.1386
  345TIP3    H122670   1.882   3.054   7.176  0.9478  1.0265  0.6336
  345TIP3    H222671   1.889   3.077   7.325 -1.5105 -0.1060  0.9483
  346TIP3   OH222672   3.268   2.732   7.571  0.7785  0.1898 -0.4825
  346TIP3    H122673   3.331   2.680   7.521  0.7122  0.0696 -0.4432
  346TIP3    H222674   3.186   2.721   7.523  0.5453 -0.5501  0.0800
  347TIP3   OH222675   1.235   0.473   7.280 -0.1957  0.1473 -0.3886
  347TIP3    H122676   1.196   0.402   7.330  3.8676  0.1102  3.0188
  347TIP3    H222677   1.319   0.438   7.250  0.5751  2.5258 -1.1435
  348TIP3   OH222678   3.827   2.846   0.939 -0.1437 -0.4214  0.3083
  348TIP3    H122679   3.892   2.871   0.874  0.0441  0.6716  0.9082
  348TIP3    H222680   3.773   2.781   0.895 -0.1189  0.4260 -0.9868
  349TIP3   OH222681   5.591   0.906   7.677 -0.3228  0.3408 -0.6569
  349TIP3    H122682   5.549   0.821   7.661 -1.0006  0.3683  0.9137
  349TIP3    H222683   5.534   0.949   7.740  1.3642  0.9334  0.4759
  350TIP3   OH222684   1.054   3.314   7.503  0.2486 -0.1099  0.5161
  350TIP3    H122685   1.095   3.323   7.589  0.4704 -1.7643  0.6079
  350TIP3    H222686   0.978   3.258   7.519 -1.4515  2.0378  0.1515
  351TIP3   OH222687   1.578   2.858   0.788 -0.0352  0.7393  0.2448
  351TIP3    H122688   1.652   2.810   0.825 -1.7925 -0.8990  1.7501
  351TIP3    H222689   1.521   2.789   0.753 -0.1221  2.0598 -2.3725
  352TIP3   OH222690   1.067   2.398   1.217 -0.2632  0.1977  0.7224
  352TIP3    H122691   1.151   2.435   1.242  0.1535  0.8993 -1.6061
  352TIP3    H222692   1.079   2.370   1.126 -1.7137 -2.2408  1.2389
  353TIP3   OH222693   3.344   2.218   6.505  0.0218 -0.1188  0.2132
  353TIP3    H122694   3.396   2.249   6.431 -0.3126  1.1229  0.4825
  353TIP3    H222695   3.310   2.298   6.545 -1.9831 -0.8986  0.1163
  354TIP3   OH222696   3.702   2.188   6.758 -0.2131 -0.1955 -0.7848
  354TIP3    H122697   3.750   2.265   6.728 -0.6610  0.0407 -0.8986
  354TIP3    H222698   3.610   2.211   6.747 -0.3307 -1.3349 -2.3118
  355TIP3   OH222699   4.388   2.042   6.097 -0.0389 -0.5469  0.2116
  355TIP3    H122700   4.335   2.109   6.053 -1.3587 -0.3710  1.9570
  355TIP3    H222701   4.434   2.091   6.166 -0.7173 -1.3459  1.2517
  356TIP3   OH222702   0.988   0.284   7.042 -0.3681  0.1710  0.0281
  356TIP3    H122703   0.951   0.295   7.129  0.5620 -0.2156  0.4791
  356TIP3    H222704   1.010   0.191   7.037 -3.3550 -0.5248 -1.8092
  357TIP3   OH222705   0.539   2.965   7.740  0.4216 -0.3299  0.3371
  357TIP3    H122706   0.524   2.928   7.653 -0.1881 -0.3624  0.4589
  357TIP3    H222707   0.538   3.060   7.725  0.6128 -0.3387  0.2615
  358TIP3   OH222708   0.143   4.421   7.409  0.4930  0.1059 -0.0620
  358TIP3    H122709   0.234   4.437   7.437  0.5856 -0.9127  0.2417
  358TIP3    H222710   0.098   4.505   7.425  1.2945  0.5091  0.1179
  359TIP3   OH222711   2.410   7.099   1.489  0.2537  0.3326  0.0508
  359TIP3    H122712   2.423   7.131   1.578 -0.3717 -0.3707  0.4106
  359TIP3    H222713   2.368   7.171   1.443  1.6111  1.1027  0.0130
  360TIP3   OH222714   1.854   5.697   6.939 -0.1529 -0.2003 -0.0543
  360TIP3    H122715   1.842   5.669   7.030  0.8468  0.8118  0.4147
  360TIP3    H222716   1.819   5.786   6.937  1.7319  0.5678 -0.1141
  361TIP3   OH222717   1.191   0.378   0.509 -0.4752  0.7520  0.1565
  361TIP3    H122718   1.270   0.430   0.498 -1.0365  1.6989  0.5574
  361TIP3    H222719   1.191   0.354   0.602  0.3025 -0.8195 -0.2324
  362TIP3   OH222720   2.451   6.244   6.843 -0.2154  0.3754 -0.6089
  362TIP3    H122721   2.529   6.199   6.877  0.2754  2.2474  0.8722
  362TIP3    H222722   2.475   6.269   6.753  0.7460  0.5822 -0.3003
  363TIP3   OH222723   3.737   1.625   7.549 -0.0897 -0.6927 -0.5913
  363TIP3    H122724   3.789   1.556   7.590 -0.3133 -0.7720 -0.4372
  363TIP3    H222725   3.755   1.617   7.455  0.9188 -0.1014 -0.4549
  364TIP3   OH222726   3.001   1.264   6.753  0.8186  0.1321  0.4384
  364TIP3    H122727   3.051   1.279   6.672  0.6312 -3.2218 -0.3819
  364TIP3    H222728   2.926   1.323   6.746  1.5666  0.9388 -1.1618
  365TIP3   OH222729   1.529   6.478   6.602  0.1797 -0.1043 -0.6123
  365TIP3    H122730   1.499   6.568   6.614  0.1664 -0.3408  1.2327
  365TIP3    H222731   1.622   6.480   6.624 -0.0559 -0.7393  0.4930
  366TIP3   OH222732   0.938   1.795   7.269  0.2022 -0.0258 -0.5792
  366TIP3    H122733   0.960   1.824   7.181 -0.0135 -0.5310 -0.8000
  366TIP3    H222734   0.851   1.754   7.260  0.2114 -0.1463 -0.1489
  367TIP3   OH222735   3.525   5.369   0.953 -0.6140  0.5811 -0.6727
  367TIP3    H122736   3.448   5.331   0.912 -1.8859  0.6857  1.5648
  367TIP3    H222737   3.506   5.463   0.957  0.3178  0.8150 -1.5480
  368TIP3   OH222738   4.540   2.044   7.301 -0.0646 -0.4070  0.3466
  368TIP3    H122739   4.576   1.966   7.258 -0.5317 -1.7143  2.2577
  368TIP3    H222740   4.504   2.011   7.384 -2.3823  1.4707  0.1236
  369TIP3   OH222741   4.681   3.005   6.510  0.6804 -0.3208  0.3540
  369TIP3    H122742   4.628   3.026   6.587 -0.4123 -1.4599 -0.0856
  369TIP3    H222743   4.737   2.932   6.538  1.0373 -0.0407  0.3838
  370TIP3   OH222744   3.443   3.094   6.060 -0.3546 -0.2697 -0.2898
  370TIP3    H122745   3.436   3.151   6.137 -0.2119 -2.5628  1.4948
  370TIP3    H222746   3.534   3.067   6.058 -0.5381 -0.8722 -0.7820
  371TIP3   OH222747   0.335   1.422   0.480  0.1156  0.2680  0.5824
  371TIP3    H122748   0.383   1.475   0.544 -0.4730  0.7922  0.5911
  371TIP3    H222749   0.402   1.391   0.419  0.7160 -0.3801  1.5490
  372TIP3   OH222750   4.552   3.381   1.398  0.2851  0.1416  0.0035
  372TIP3    H122751   4.500   3.398   1.477  1.6432 -1.2783  1.2511
  372TIP3    H222752   4.543   3.460   1.346 -1.4116  0.7421  1.1464
  373TIP3   OH222753   6.902   1.910   7.942  0.4023 -0.2506 -0.2956
  373TIP3    H122754   6.816   1.925   7.903  0.7284 -0.4290 -1.1052
  373TIP3    H222755   6.908   1.973   8.013  0.3615  1.0688 -1.4319
  374TIP3   OH222756   1.123   2.877   6.186  0.0865  0.6224  0.5703
  374TIP3    H122757   1.080   2.917   6.110 -0.5097  0.3048  0.7401
  374TIP3    H222758   1.125   2.948   6.251 -0.6313  0.4942  0.7373
  375TIP3   OH222759   3.104   1.184   1.020  0.0715  0.0990 -0.2497
  375TIP3    H122760   3.177   1.186   1.081 -0.0377  2.2740 -0.1633
  375TIP3    H222761   3.030   1.219   1.069 -0.3027  0.7423 -1.2659
  376TIP3   OH222762   6.183   2.073   1.127 -0.6700  0.1525  0.4120
  376TIP3    H122763   6.117   2.123   1.078 -0.6328  0.5698  0.7822
  376TIP3    H222764   6.229   2.139   1.179 -0.1819 -0.1836  0.4060
  377TIP3   OH222765   1.403   6.909   6.124  0.1907 -0.4629 -0.5526
  377TIP3    H122766   1.406   6.857   6.043  0.8473 -1.4329  0.0836
  377TIP3    H222767   1.435   6.996   6.098 -0.6764 -0.4411 -1.5737
  378TIP3   OH222768   2.258   7.012   6.077  0.2599 -0.5683  0.5049
  378TIP3    H122769   2.229   6.927   6.044  0.0725 -0.3000 -0.0176
  378TIP3    H222770   2.352   7.014   6.059  0.0969 -0.2819 -0.3140
  379TIP3   OH222771   4.758   4.902   7.269 -0.1946 -0.3225  0.0106
  379TIP3    H122772   4.771   4.854   7.187 -0.6446  0.0857 -0.3000
  379TIP3    H222773   4.715   4.839   7.327 -0.7910 -0.2947 -0.4000
  380TIP3   OH222774   6.842   5.116   7.755 -0.2212 -0.3043  0.0864
  380TIP3    H122775   6.845   5.193   7.699  1.6475 -1.1716 -1.0551
  380TIP3    H222776   6.750   5.090   7.756 -0.5209  0.6693 -1.2603
  381TIP3   OH222777   3.620   6.684   0.214  0.4767 -0.0253  0.8427
  381TIP3    H122778   3.536   6.652   0.246 -0.5017  1.4251 -0.1839
  381TIP3    H222779   3.646   6.622   0.147 -0.7748  0.5652 -0.2326
  382TIP3   OH222780   1.985   1.056   6.403 -0.1954 -0.3421 -0.1253
  382TIP3    H122781   1.955   1.046   6.313  1.9613  0.6902 -0.9870
  382TIP3    H222782   2.070   1.013   6.406  0.2890  0.6575  1.0951
  383TIP3   OH222783   3.845   4.284   7.694  0.6748  0.2322  0.3172
  383TIP3    H122784   3.909   4.344   7.656 -0.8176  1.5457 -0.2202
  383TIP3    H222785   3.788   4.341   7.747 -1.6644 -0.4188 -1.3973
  384TIP3   OH222786   5.187   2.009   6.047 -0.1331 -0.0245  0.5972
  384TIP3    H122787   5.245   1.936   6.025  0.5231  0.3862  0.9646
  384TIP3    H222788   5.099   1.974   6.034  0.1183 -1.5636  2.9135
  385TIP3   OH222789   0.482   6.265   1.282  0.1963 -0.4036 -0.1537
  385TIP3    H122790   0.556   6.206   1.270  1.9080  1.6408  0.0774
  385TIP3    H222791   0.454   6.250   1.372  1.7009  0.3194  0.4493
  386TIP3   OH222792   2.476   2.299   1.554  0.2847  0.5521  0.2306
  386TIP3    H122793   2.447   2.280   1.643  0.0307 -1.0312 -0.1839
  386TIP3    H222794   2.561   2.343   1.566  0.3706  0.1287  1.2387
  387TIP3   OH222795   0.457   0.190   7.719 -0.4398 -0.0267 -0.3865
  387TIP3    H122796   0.437   0.157   7.807  1.0608 -0.4651 -0.1961
  387TIP3    H222797   0.376   0.176   7.669 -1.8484  1.7183  1.3511
  388TIP3   OH222798   3.116   1.485   1.894  0.2779  0.0094  0.6244
  388TIP3    H122799   3.108   1.393   1.873 -0.2474  0.1651  0.1311
  388TIP3    H222800   3.207   1.496   1.922  0.5634 -0.4892 -0.1122
  389TIP3   OH222801   4.942   5.774   1.636  0.3478 -0.2711 -0.4717
  389TIP3    H122802   4.889   5.816   1.703  1.9842  0.6436  0.3024
  389TIP3    H222803   4.879   5.738   1.573 -1.1818 -0.4294  1.1301
  390TIP3   OH222804   6.557   6.740   7.751 -0.0324 -0.0890  0.3467
  390TIP3    H122805   6.563   6.742   7.655  0.8560  0.8839  0.4028
  390TIP3    H222806   6.478   6.790   7.771 -0.6297 -0.9272  0.0956
  391TIP3   OH222807   5.296   2.540   7.153 -0.6221  0.0545 -0.2513
  391TIP3    H122808   5.220   2.552   7.097 -0.6340  0.3453 -0.1699
  391TIP3    H222809   5.274   2.463   7.206 -0.2031 -0.8178 -1.3203
  392TIP3   OH222810   3.640   1.031   6.116 -0.6891  0.5051  0.4380
  392TIP3    H122811   3.662   0.998   6.029 -1.4138 -0.0926  0.4818
  392TIP3    H222812   3.693   0.979   6.176  0.6338  1.6478  0.2970
  393TIP3   OH222813   2.209   5.076   1.122 -0.5336 -0.0499  0.0824
  393TIP3    H122814   2.160   5.027   1.056  0.9937 -0.8868 -0.4428
  393TIP3    H222815   2.268   5.012   1.162 -0.6771  0.6856  1.5377
  394TIP3   OH222816   1.792   2.145   7.552 -0.2536 -0.5832 -0.1747
  394TIP3    H122817   1.734   2.193   7.610 -0.3703 -2.4616  1.3424
  394TIP3    H222818   1.877   2.188   7.562 -1.3476  2.1476 -2.3777
  395TIP3   OH222819   1.555   3.577   6.869  0.1962 -0.5205 -0.4397
  395TIP3    H122820   1.626   3.587   6.806  0.4104  0.1830 -0.0968
  395TIP3    H222821   1.579   3.501   6.922  0.4239 -0.6090 -0.6728
  396TIP3   OH222822   2.097   6.937   1.744  0.1824 -0.8874 -0.5460
  396TIP3    H122823   2.019   6.888   1.718  0.3551 -0.9476 -0.9520
  396TIP3    H222824   2.086   7.023   1.703 -0.2267 -0.5108  0.3478
  397TIP3   OH222825   0.902   5.306   7.656 -0.6246  0.6322  0.5986
  397TIP3    H122826   0.837   5.280   7.721 -0.2609  0.2771  0.8262
  397TIP3    H222827   0.960   5.230   7.649 -1.5782  0.0494 -1.3270
  398TIP3   OH222828   3.194   2.166   7.245 -0.2291  0.0177  0.2849
  398TIP3    H122829   3.124   2.228   7.263 -1.7577 -1.9076  1.0733
  398TIP3    H222830   3.196   2.108   7.321  3.1333  0.8173  0.9326
  399TIP3   OH222831   6.672   2.665   7.955  0.7247  0.2390  0.7969
  399TIP3    H122832   6.751   2.612   7.943 -0.8520 -2.0178  0.1112
  399TIP3    H222833   6.600   2.607   7.932 -1.2223  1.9514  2.3392
  400TIP3   OH222834   5.364   0.608   6.677 -0.3988  0.1244 -0.1695
  400TIP3    H122835   5.378   0.522   6.637 -0.4790  0.8427 -1.7726
  400TIP3    H222836   5.453   0.642   6.690 -0.4063  0.7866 -1.7474
  401TIP3   OH222837   2.733   6.623   7.778  0.3774  0.4514  0.0559
  401TIP3    H122838   2.705   6.535   7.805  0.8901 -0.1168 -1.2254
  401TIP3    H222839   2.825   6.613   7.754  0.3517  1.2662 -0.4235
  402TIP3   OH222840   0.009   2.493   1.153  0.0486  0.2076 -0.0554
  402TIP3    H122841   0.086   2.492   1.097 -1.0917  3.3894 -1.8048
  402TIP3    H222842  -0.045   2.420   1.122  1.3069 -0.6052 -0.3403
  403TIP3   OH222843   5.628   3.367   0.326 -0.0484 -0.5602  0.2788
  403TIP3    H122844   5.709   3.352   0.375  0.3218 -0.5140 -0.3169
  403TIP3    H222845   5.656   3.380   0.236 -0.7735 -1.1576 -0.0392
  404TIP3   OH222846   2.345   1.335   7.757 -0.3510  0.4956 -0.3479
  404TIP3    H122847   2.343   1.242   7.777  0.2470  0.6736  0.5954
  404TIP3    H222848   2.408   1.372   7.819  0.5984  1.2907 -1.7655
  405TIP3   OH222849   3.321   0.788   7.847 -0.2600  0.6440  0.3391
  405TIP3    H122850   3.344   0.700   7.878  0.5375  0.4458 -0.8135
  405TIP3    H222851   3.393   0.844   7.878  1.2663  0.2157 -2.2784
  406TIP3   OH222852   1.384   6.163   0.730  0.4686  1.0143 -0.3643
  406TIP3    H122853   1.413   6.140   0.819  3.0541 -0.1151 -1.4280
  406TIP3    H222854   1.340   6.247   0.740  1.4735  1.3052  1.8787
  407TIP3   OH222855   6.616   2.560   0.438 -0.2131 -0.0968  0.3961
  407TIP3    H122856   6.576   2.629   0.491  0.3996  0.8759 -0.3657
  407TIP3    H222857   6.591   2.582   0.348  2.2507  0.7323 -0.1414
  408TIP3   OH222858   1.155   2.100   6.820 -0.0431 -0.1012  0.8182
  408TIP3    H122859   1.232   2.137   6.777 -1.0740  1.0581 -0.0535
  408TIP3    H222860   1.106   2.058   6.749 -2.0234  2.2759  0.6995
  409TIP3   OH222861   6.421   2.926   1.170 -0.4792  0.1179  0.4485
  409TIP3    H122862   6.410   2.950   1.262 -0.2001  1.6443  0.1011
  409TIP3    H222863   6.485   2.855   1.172 -0.8093 -0.1671  1.4645
  410TIP3   OH222864   0.404   3.709   7.165 -0.3712 -0.5944  0.2489
  410TIP3    H122865   0.332   3.770   7.151  0.6739  0.8688  1.2102
  410TIP3    H222866   0.423   3.714   7.258 -0.8295 -3.0483  0.5264
  411TIP3   OH222867   0.995   1.807   7.018  0.2319 -0.3209  0.2337
  411TIP3    H122868   1.065   1.865   6.989 -0.1392  0.2731  0.5160
  411TIP3    H222869   1.011   1.724   6.972  0.2619  0.2742 -0.8410
  412TIP3   OH222870   2.350   1.173   0.108 -0.2631  0.0091 -0.1863
  412TIP3    H122871   2.332   1.236   0.178  0.1305 -1.3500  1.1520
  412TIP3    H222872   2.444   1.180   0.094  0.0430 -1.3797  1.0562
  413TIP3   OH222873   6.520   0.172   7.460 -0.3828 -0.5339 -0.5300
  413TIP3    H122874   6.456   0.130   7.402  0.9796  2.2434 -4.2160
  413TIP3    H222875   6.487   0.261   7.472  1.6018  0.2425 -0.6647
  414TIP3   OH222876   4.859   4.134   0.774  0.4526 -0.4995  0.4475
  414TIP3    H122877   4.883   4.226   0.789 -2.6963  0.6975 -1.2359
  414TIP3    H222878   4.922   4.103   0.709  0.3444  1.0967 -0.4469
  415TIP3   OH222879   1.329   1.816   8.004  0.5109  0.4185 -0.1116
  415TIP3    H122880   1.245   1.860   7.990  0.6225  1.0049  1.0342
  415TIP3    H222881   1.394   1.876   7.968  0.4265 -0.1690 -1.2697
  416TIP3   OH222882   2.545   4.410   6.271 -0.7459 -0.0474 -1.1406
  416TIP3    H122883   2.603   4.424   6.196 -0.1253 -0.7278 -0.7972
  416TIP3    H222884   2.597   4.438   6.347 -0.8722 -0.6070 -0.8385
  417TIP3   OH222885   4.450   1.106   6.430 -0.2109  0.5081  0.0446
  417TIP3    H122886   4.498   1.042   6.377 -2.1720  0.6279 -1.9656
  417TIP3    H222887   4.513   1.177   6.444  1.3875 -0.9892  0.6948
  418TIP3   OH222888   5.744   4.578   6.810 -0.1781  0.7169  0.5083
  418TIP3    H122889   5.800   4.502   6.827  1.8589  1.8726 -0.8707
  418TIP3    H222890   5.680   4.577   6.882 -0.6001 -2.6352  0.1881
  419TIP3   OH222891   4.756   1.420   6.714  0.3672 -0.1334  0.1360
  419TIP3    H122892   4.808   1.491   6.677  1.1709 -0.8022 -0.0469
  419TIP3    H222893   4.818   1.347   6.722 -0.3219 -0.6532  0.7906
  420TIP3   OH222894   0.037   5.987   7.494  0.3755  0.2987  0.4444
  420TIP3    H122895   0.065   5.900   7.468 -1.8450 -0.0580 -0.8897
  420TIP3    H222896   0.065   5.995   7.586  0.3497 -1.9187  0.6619
  421TIP3   OH222897   3.506   6.142   1.090 -0.5859  0.6486 -0.1880
  421TIP3    H122898   3.540   6.224   1.052  1.3744  0.1998  0.5302
  421TIP3    H222899   3.509   6.156   1.185  2.1747 -1.1401  0.0446
  422TIP3   OH222900   2.433   0.680   5.800  0.0289 -0.3175  0.0876
  422TIP3    H122901   2.519   0.657   5.765  0.2674  0.8531 -0.1094
  422TIP3    H222902   2.447   0.764   5.844 -1.4656  0.9344 -1.7570
  423TIP3   OH222903   1.115   6.908   6.174 -0.2814  0.2861 -0.0411
  423TIP3    H122904   1.177   6.963   6.124  0.1916  0.2585  0.5121
  423TIP3    H222905   1.168   6.836   6.208 -0.7623 -0.1300 -0.1621
  424TIP3   OH222906   1.458   0.555   7.592  0.0596  0.2327  0.5028
  424TIP3    H122907   1.455   0.484   7.656  1.5706 -0.8293 -0.5818
  424TIP3    H222908   1.543   0.597   7.608  0.5490 -0.1891 -0.9636
  425TIP3   OH222909   1.599   6.999   1.122 -0.0945  0.0189 -0.9118
  425TIP3    H122910   1.568   7.087   1.143  1.8157  0.2622  1.0362
  425TIP3    H222911   1.658   7.012   1.048  0.6796  0.4729 -0.2224
  426TIP3   OH222912   3.500   0.557   0.008 -0.2856  0.8447 -0.8011
  426TIP3    H122913   3.560   0.499   0.056  0.9242 -0.5504 -3.8887
  426TIP3    H222914   3.415   0.544   0.051  0.4157 -1.6275 -0.0789
  427TIP3   OH222915   5.409   7.075   0.642 -0.5204 -0.0786 -0.3273
  427TIP3    H122916   5.419   7.120   0.725 -0.7632  1.9354 -1.3515
  427TIP3    H222917   5.498   7.053   0.615 -0.3154  0.6772 -0.2806
  428TIP3   OH222918   5.350   0.209   7.833  0.2015 -0.1571 -0.1288
  428TIP3    H122919   5.281   0.144   7.819  1.0332 -1.1805  0.4318
  428TIP3    H222920   5.429   0.157   7.850  0.4762  0.9824  2.2862
  429TIP3   OH222921   3.935   4.398   0.264  0.5187 -0.0270  0.4365
  429TIP3    H122922   3.873   4.416   0.334 -0.7521 -0.1851 -0.6192
  429TIP3    H222923   4.018   4.432   0.295 -0.6904  2.7601  0.7089
  430TIP3   OH222924   3.609   6.672   7.927  0.3685 -0.1575  0.2081
  430TIP3    H122925   3.607   6.576   7.927 -3.0545 -0.1635  0.1861
  430TIP3    H222926   3.624   6.696   7.836 -1.5359 -0.7180 -0.2807
  431TIP3   OH222927   3.127   1.679   0.509  0.0031  0.1405  0.5284
  431TIP3    H122928   3.188   1.656   0.438  1.0444  3.2768  0.3220
  431TIP3    H222929   3.057   1.615   0.502  2.0908 -2.0939 -0.7613
  432TIP3   OH222930   4.971   3.492   0.697 -0.1245  0.5093  0.1210
  432TIP3    H122931   4.910   3.418   0.697  0.5837 -0.0908 -2.1459
  432TIP3    H222932   4.922   3.564   0.656 -0.1618  0.7652  0.6073
  433TIP3   OH222933   2.738   0.812   0.431 -0.2091  0.1716 -0.0672
  433TIP3    H122934   2.800   0.830   0.502  0.5108  0.9925 -0.8851
  433TIP3    H222935   2.654   0.800   0.475  0.3575  0.0048  0.9811
  434TIP3   OH222936   1.876   6.558   7.556  0.1607 -0.8730  0.2347
  434TIP3    H122937   1.794   6.543   7.508  0.1354 -1.0307  0.3246
  434TIP3    H222938   1.853   6.623   7.623 -0.2613 -2.0111  1.2161
  435TIP3   OH222939   1.380   6.216   6.695  0.3443 -0.2748 -0.0047
  435TIP3    H122940   1.451   6.276   6.673  0.6110 -0.7099 -0.3505
  435TIP3    H222941   1.300   6.261   6.670  0.5667 -0.2238 -0.6230
  436TIP3   OH222942   2.006   6.948   0.410 -0.2207 -0.4448  0.0503
  436TIP3    H122943   1.980   6.949   0.318 -1.2168 -1.6148  0.3075
  436TIP3    H222944   2.101   6.936   0.409  0.0362  1.4499 -0.8487
  437TIP3   OH222945   1.995   6.758   7.425 -0.0917  0.6643 -0.5077
  437TIP3    H122946   1.977   6.834   7.479  1.7527  0.6458  0.1844
  437TIP3    H222947   2.011   6.687   7.488 -0.1883  0.0936 -1.1159
  438TIP3   OH222948   2.549   4.887   6.784 -0.2769 -0.0259 -0.0195
  438TIP3    H122949   2.612   4.821   6.754  0.0485  0.3070 -0.0705
  438TIP3    H222950   2.512   4.850   6.864 -1.8459 -1.3654 -1.3238
  439TIP3   OH222951   3.142   2.289   7.905 -0.4545  0.2920  0.1019
  439TIP3    H122952   3.233   2.303   7.877 -0.4536 -1.0722 -0.6416
  439TIP3    H222953   3.148   2.272   7.999 -0.0920  1.5469  0.3152
  440TIP3   OH222954   4.092   1.777   7.179 -0.5478  0.2482 -0.6077
  440TIP3    H122955   4.097   1.825   7.096 -0.5005  1.5059  0.1066
  440TIP3    H222956   4.179   1.787   7.218 -1.4712  2.3501  1.0352
  441TIP3   OH222957   6.588   0.853   2.102  0.2715  0.0620 -1.0940
  441TIP3    H122958   6.518   0.909   2.068  1.5836  1.4568 -1.5200
  441TIP3    H222959   6.664   0.910   2.109  1.2514 -1.3198 -0.1456
  442TIP3   OH222960   0.597   0.374   0.956 -0.0868 -0.4978  0.1980
  442TIP3    H122961   0.575   0.286   0.986 -0.2967 -0.5832 -0.2168
  442TIP3    H222962   0.580   0.430   1.032 -0.5702 -0.7236  0.2538
  443TIP3   OH222963   6.025   2.155   7.286 -0.1272  0.0791 -0.1689
  443TIP3    H122964   5.996   2.105   7.362  0.5591 -2.1190 -1.3186
  443TIP3    H222965   5.949   2.158   7.228  0.1839 -0.6971 -0.6292
  444TIP3   OH222966   3.671   3.676   6.001 -0.4223 -0.2686  0.1323
  444TIP3    H122967   3.665   3.583   6.020 -1.7872 -0.2840 -0.2830
  444TIP3    H222968   3.617   3.718   6.069 -2.4381 -0.0552 -1.5526
  445TIP3   OH222969   4.551   0.051   6.710 -0.4490 -0.2567  0.1931
  445TIP3    H122970   4.644   0.035   6.721 -0.4904 -1.7274 -1.2763
  445TIP3    H222971   4.543   0.146   6.704  1.0187 -0.1462 -0.1694
  446TIP3   OH222972   1.871   1.791   7.701  0.0632  0.1613 -0.4010
  446TIP3    H122973   1.935   1.722   7.721  1.1371  1.7224  1.6307
  446TIP3    H222974   1.867   1.844   7.780 -2.9786  0.7404 -0.8818
  447TIP3   OH222975   6.812   7.148   1.280  0.1789 -0.4805  0.3130
  447TIP3    H122976   6.851   7.090   1.215 -1.6494 -1.2689 -0.1077
  447TIP3    H222977   6.736   7.100   1.313 -0.7102  1.1985  0.7806
  448TIP3   OH222978   0.125   4.983   7.417  0.0661  0.2587 -0.5382
  448TIP3    H122979   0.160   5.019   7.499  0.2819 -0.0547 -0.4929
  448TIP3    H222980   0.091   4.897   7.441  0.0883  0.1852 -0.7727
  449TIP3   OH222981   3.238   0.173   0.834 -0.3839  0.4420  0.0125
  449TIP3    H122982   3.201   0.230   0.901  0.0535 -1.9761  2.4314
  449TIP3    H222983   3.193   0.089   0.847  0.3764 -0.3346 -2.1370
  450TIP3   OH222984   0.051   5.727   1.544 -0.2893  0.2239  0.5387
  450TIP3    H122985  -0.028   5.780   1.558 -0.0279  0.7495  0.0058
  450TIP3    H222986   0.046   5.699   1.453 -0.4739 -0.7550  0.8394
  451TIP3   OH222987   3.601   4.028   1.020 -0.5274 -0.1358  0.0666
  451TIP3    H122988   3.563   3.940   1.017  0.4120 -0.6213  2.0831
  451TIP3    H222989   3.557   4.072   1.093 -0.6730  0.9301 -0.6436
  452TIP3   OH222990   2.768   1.249   1.432  0.1785  0.1517  0.7066
  452TIP3    H122991   2.834   1.208   1.376  0.6224  2.5005 -0.5314
  452TIP3    H222992   2.803   1.240   1.521  0.3475 -1.9558  0.4516
  453TIP3   OH222993   1.914   3.683   6.382 -0.2529  0.0083 -0.5970
  453TIP3    H122994   1.953   3.770   6.375 -1.5104  0.6856  0.6266
  453TIP3    H222995   1.870   3.683   6.467  1.9155 -2.7405  0.6222
  454TIP3   OH222996   6.624   1.346   6.767 -0.2776 -0.5126  0.4360
  454TIP3    H122997   6.630   1.251   6.758  0.2266 -0.3859 -0.7582
  454TIP3    H222998   6.661   1.365   6.853  3.8893 -1.0006 -1.1588
  455TIP3   OH222999   6.125   3.446   7.636  0.0650  0.4217  0.0483
  455TIP3    H123000   6.171   3.371   7.676 -0.3682  0.8021  1.2947
  455TIP3    H223001   6.192   3.513   7.626  0.1829  0.3142  0.1177
  456TIP3   OH223002   3.136   4.501   0.529 -0.2003  0.1565 -0.2935
  456TIP3    H123003   3.090   4.542   0.602 -0.3807 -0.8013  0.1421
  456TIP3    H223004   3.173   4.574   0.480 -0.2189  0.8133  0.6580
  457TIP3   OH223005   3.161   0.513   5.666 -0.0532 -0.0770  0.3218
  457TIP3    H123006   3.074   0.543   5.692  0.5114 -0.5376  2.8023
  457TIP3    H223007   3.160   0.419   5.684  0.3304 -0.4468 -1.4692
  458TIP3   OH223008   6.665   6.456   1.442  0.6707 -0.6141 -0.1742
  458TIP3    H123009   6.756   6.485   1.442  0.7598 -0.8242  1.1663
  458TIP3    H223010   6.620   6.518   1.500  0.1650 -1.0600 -0.0806
  459TIP3   OH223011   1.460   6.572   1.092  0.2148 -0.1808 -0.1887
  459TIP3    H123012   1.459   6.663   1.063  0.0364 -0.1597 -0.1143
  459TIP3    H223013   1.389   6.530   1.043  1.1968 -0.6040 -1.2782
  460TIP3   OH223014   6.952   0.290   6.832  0.2682  0.1195 -0.1155
  460TIP3    H123015   6.904   0.240   6.899 -0.9347  1.9017  0.3723
  460TIP3    H223016   6.973   0.373   6.875  0.2183  0.9549 -1.6913
  461TIP3   OH223017   1.745   1.786   0.271  0.5101 -0.0211 -0.3690
  461TIP3    H123018   1.665   1.805   0.222  1.1905  1.7961 -0.8130
  461TIP3    H223019   1.735   1.836   0.352  1.3864  0.5450 -0.6130
  462TIP3   OH223020   0.002   5.874   1.160  0.0511  0.1376  0.4413
  462TIP3    H123021  -0.048   5.910   1.234 -0.8493  1.2974 -0.7047
  462TIP3    H223022   0.082   5.926   1.159 -0.1596  0.4649  0.3031
  463TIP3   OH223023   5.719   2.589   1.289  0.4894 -0.5602 -0.0401
  463TIP3    H123024   5.662   2.555   1.357 -0.9259  0.3000 -0.7660
  463TIP3    H223025   5.660   2.609   1.216  1.8237 -0.4208 -1.1119
  464TIP3   OH223026   0.396   2.038   1.195  0.3888 -0.0278  0.4329
  464TIP3    H123027   0.401   2.072   1.285  1.7960  0.1761  0.2825
  464TIP3    H223028   0.407   1.944   1.204  0.2768 -0.0366  0.4872
  465TIP3   OH223029   4.767   2.582   6.557 -0.5831  0.6163 -0.0315
  465TIP3    H123030   4.761   2.577   6.462 -0.4061  0.1404 -0.0202
  465TIP3    H223031   4.800   2.670   6.575 -1.7755  1.1332 -0.3539
  466TIP3   OH223032   1.089   3.716   6.322  0.0222 -0.4861  0.3460
  466TIP3    H123033   1.179   3.746   6.336 -0.2439  1.0225 -1.0003
  466TIP3    H223034   1.042   3.743   6.401  0.6812 -1.0134  0.9239
  467TIP3   OH223035   3.764   1.556   6.335 -0.1199  0.6602  0.0483
  467TIP3    H123036   3.743   1.462   6.339  0.2611  0.5118 -1.1569
  467TIP3    H223037   3.681   1.600   6.356 -0.2472  0.0608  0.8423
  468TIP3   OH223038   1.082   2.114   6.527  0.1583 -0.1803 -0.3034
  468TIP3    H123039   1.175   2.095   6.525 -0.0580 -1.5101  1.3851
  468TIP3    H223040   1.055   2.108   6.435  1.4347 -1.3434 -0.6278
  469TIP3   OH223041   2.216   1.092   7.310  0.0712  0.1543  0.0977
  469TIP3    H123042   2.260   1.169   7.345  1.3275 -0.8043  0.6801
  469TIP3    H223043   2.275   1.059   7.242  0.4692 -1.3710  1.1623
  470TIP3   OH223044   6.229   2.471   6.660  0.0211 -0.3811  0.2627
  470TIP3    H123045   6.165   2.524   6.612 -2.5611 -2.5239  1.1580
  470TIP3    H223046   6.203   2.479   6.751  2.4666  0.5185  0.8995
  471TIP3   OH223047   3.143   5.970   6.558  1.1595 -0.3492 -0.0303
  471TIP3    H123048   3.130   6.039   6.623  0.3886 -0.3070 -0.2278
  471TIP3    H223049   3.171   5.894   6.609  0.2418 -0.4106  0.3988
  472TIP3   OH223050   3.344   0.543   6.294  0.4962 -0.4742  0.5138
  472TIP3    H123051   3.360   0.621   6.241 -0.9188  0.7581  1.8438
  472TIP3    H223052   3.334   0.473   6.230  2.1611  0.3609 -0.6907
  473TIP3   OH223053   2.247   0.234   5.957  0.3174  0.6942 -0.0481
  473TIP3    H123054   2.342   0.236   5.947  0.4256  2.2244  1.2801
  473TIP3    H223055   2.214   0.271   5.875  0.8552  0.5543 -0.3337
  474TIP3   OH223056   1.027   0.018   6.989 -0.3040 -0.5215  0.1996
  474TIP3    H123057   1.115   0.031   7.024 -0.1589 -0.3637 -0.2165
  474TIP3    H223058   1.011  -0.076   6.997 -0.2966 -0.4738  0.7451
  475TIP3   OH223059   2.584   0.152   1.197 -0.1985 -0.7547 -1.0433
  475TIP3    H123060   2.530   0.142   1.275 -1.5574  0.8706 -1.7473
  475TIP3    H223061   2.673   0.167   1.230 -0.7676 -0.0327  0.1800
  476TIP3   OH223062   3.077   0.770   5.500  0.0377 -0.8655  0.3055
  476TIP3    H123063   3.096   0.678   5.516  0.4629 -1.2719 -2.4025
  476TIP3    H223064   2.984   0.772   5.480  0.3699 -0.9559 -1.2966
  477TIP3   OH223065   3.225   2.735   6.673  0.2806 -0.2499 -0.0926
  477TIP3    H123066   3.255   2.799   6.607  1.3755 -0.4045  0.2475
  477TIP3    H223067   3.212   2.787   6.752  2.2767 -0.6014  0.5043
  478TIP3   OH223068   6.233   0.508   0.093  0.1233  0.7215 -0.6243
  478TIP3    H123069   6.203   0.525   0.182 -2.1984 -0.7983 -1.0812
  478TIP3    H223070   6.229   0.594   0.050 -1.5900  0.9421 -0.0694
  479TIP3   OH223071   5.594   4.451   0.436  0.0696 -0.2485 -0.6148
  479TIP3    H123072   5.548   4.515   0.381  0.6349  0.0485 -0.7543
  479TIP3    H223073   5.687   4.468   0.419  0.2797  0.4821  1.1450
  480TIP3   OH223074   0.422   0.811   7.521  0.7667 -0.5682 -0.0963
  480TIP3    H123075   0.444   0.731   7.473 -0.6412 -1.3601  0.5551
  480TIP3    H223076   0.326   0.817   7.514  0.9452  1.6786 -1.1183
  481TIP3   OH223077   2.204   0.203   7.680 -0.0892 -0.8750  0.5342
  481TIP3    H123078   2.177   0.123   7.634  1.1035 -1.5196  0.9299
  481TIP3    H223079   2.279   0.235   7.630 -1.7999  1.1445 -0.8193
  482TIP3   OH223080   2.907   0.443   7.554 -0.0601 -0.3912  0.3109
  482TIP3    H123081   2.992   0.429   7.596  0.3311 -2.0752 -1.0084
  482TIP3    H223082   2.927   0.488   7.472 -0.3930 -1.2395 -0.2392
  483TIP3   OH223083   1.214   0.359   7.899  0.4879  0.2342 -0.6379
  483TIP3    H123084   1.214   0.359   7.803  1.3986  1.4882 -0.6599
  483TIP3    H223085   1.123   0.377   7.923  0.5432  1.4910 -1.2988
  484TIP3   OH223086   5.286   0.125   1.641 -0.3489  0.2380  0.0058
  484TIP3    H123087   5.216   0.136   1.577  0.3430 -0.3847 -0.8780
  484TIP3    H223088   5.318   0.214   1.657 -0.3692  0.3785 -0.6988
  485TIP3   OH223089   1.720   7.075   6.995 -0.4942  0.5766  0.2857
  485TIP3    H123090   1.797   7.065   6.939 -1.4506 -1.1303 -0.7757
  485TIP3    H223091   1.688   7.164   6.976  0.7030  0.9838  0.1121
  486TIP3   OH223092   0.853   5.822   5.969 -0.3378  0.3801  0.0817
  486TIP3    H123093   0.905   5.760   5.918 -0.3018  1.2477 -0.9693
  486TIP3    H223094   0.769   5.779   5.981  0.1355 -0.4284  0.5287
  487TIP3   OH223095   2.779   3.842   6.629  0.6712  0.6687  0.1440
  487TIP3    H123096   2.850   3.887   6.675  1.3023 -0.5493  0.3703
  487TIP3    H223097   2.750   3.774   6.689  0.3057  0.1998 -0.5500
  488TIP3   OH223098   3.724   2.629   1.250  0.2784  0.8506 -0.8635
  488TIP3    H123099   3.637   2.595   1.270  0.6067 -0.2627 -1.2679
  488TIP3    H223100   3.775   2.551   1.227  1.3578  1.4987 -0.7010
  489TIP3   OH223101   5.922   6.826   7.428  0.1910  0.2738 -0.4150
  489TIP3    H123102   5.892   6.916   7.420 -1.3248 -0.1921 -0.0372
  489TIP3    H223103   5.907   6.803   7.520  0.4830 -0.3909 -0.5276
  490TIP3   OH223104   5.775   2.144   6.412 -0.0579  0.5845  0.2525
  490TIP3    H123105   5.778   2.050   6.396  0.8831  0.4595  1.1279
  490TIP3    H223106   5.747   2.182   6.329 -0.4627 -0.4683 -0.0949
  491TIP3   OH223107   0.330   6.545   6.437 -0.0582  0.2266 -0.5436
  491TIP3    H123108   0.313   6.523   6.346  1.0087  0.6659 -0.8486
  491TIP3    H223109   0.271   6.618   6.455  1.4231  1.7100 -1.5895
  492TIP3   OH223110   0.332   6.572   7.739 -0.1791  0.1979  0.1354
  492TIP3    H123111   0.329   6.647   7.798 -0.1653  0.3595 -0.0690
  492TIP3    H223112   0.250   6.576   7.690  0.6303  1.1623 -1.1961
  493TIP3   OH223113   4.799   3.417   1.670  0.3491  0.3394 -0.7876
  493TIP3    H123114   4.816   3.395   1.762 -0.5192  1.3121 -0.3907
  493TIP3    H223115   4.714   3.378   1.651  0.5586  0.0761 -1.2127
  494TIP3   OH223116   0.024   4.523   7.157  0.3416  0.1769 -0.4681
  494TIP3    H123117   0.035   4.460   7.228  0.4822  0.3083 -0.3742
  494TIP3    H223118  -0.050   4.489   7.107 -0.0513  0.3333  0.0019
  495TIP3   OH223119   0.715   2.721   6.768 -0.2280  0.4712 -0.1712
  495TIP3    H123120   0.779   2.767   6.714  0.2543 -0.1683 -0.1433
  495TIP3    H223121   0.683   2.650   6.713  0.9005 -0.7164  0.6588
  496TIP3   OH223122   0.061   6.769   0.707 -0.4681  0.4059  0.7789
  496TIP3    H123123   0.056   6.758   0.612  1.4762  0.6836  0.6200
  496TIP3    H223124   0.137   6.717   0.733 -0.0456  1.5977  1.9773
  497TIP3   OH223125   3.603   0.986   7.130  0.2773 -0.2249  0.4431
  497TIP3    H123126   3.681   1.039   7.117 -0.3683  0.8632  0.9384
  497TIP3    H223127   3.548   1.005   7.054  0.1577 -0.3932  0.4870
  498TIP3   OH223128   0.512   1.069   6.562 -0.3469 -0.1960 -0.0315
  498TIP3    H123129   0.567   1.146   6.573 -0.1382 -0.4089  0.4090
  498TIP3    H223130   0.426   1.104   6.539 -0.4855  0.2123  1.0701
  499TIP3   OH223131   5.004   4.031   7.497 -0.1664 -0.0943  0.4539
  499TIP3    H123132   4.987   4.050   7.405  2.2180 -1.7152 -0.3568
  499TIP3    H223133   4.944   3.959   7.518 -1.8406  1.3296  0.6456
  500TIP3   OH223134   5.194   5.831   6.878 -0.0323 -0.1927 -0.1222
  500TIP3    H123135   5.144   5.760   6.919 -0.5290  0.0171 -0.3660
  500TIP3    H223136   5.275   5.835   6.929  0.6843 -1.9723 -1.0524
  501TIP3   OH223137   1.669   1.647   8.033  0.1130  0.2168  0.2435
  501TIP3    H123138   1.609   1.585   8.074  0.4416 -0.0973  0.2516
  501TIP3    H223139   1.651   1.641   7.939  0.3044 -0.0562  0.2250
  502TIP3   OH223140   6.132   3.180   6.906 -0.3460  0.1904 -0.3443
  502TIP3    H123141   6.107   3.270   6.926  0.3240  0.4557 -0.6850
  502TIP3    H223142   6.083   3.159   6.827 -0.9610  0.0528  0.0759
  503TIP3   OH223143   0.706   6.945   6.530  0.1643 -0.0576  0.1241
  503TIP3    H123144   0.792   6.924   6.494  0.6649  0.3605  1.0678
  503TIP3    H223145   0.683   7.029   6.491 -0.0410 -0.4067 -0.5111
  504TIP3   OH223146   1.296   0.117   6.115  0.6215 -0.1736 -0.0750
  504TIP3    H123147   1.267   0.102   6.025 -0.7465 -0.2707  0.3833
  504TIP3    H223148   1.221   0.155   6.159  1.3062 -0.0746  1.0193
  505TIP3   OH223149   2.729   5.800   0.919 -0.5997 -0.5169 -0.1613
  505TIP3    H123150   2.804   5.847   0.882 -0.0558  0.0120  1.5634
  505TIP3    H223151   2.654   5.858   0.903  0.0147  0.8099  1.6403
  506TIP3   OH223152   2.818   5.955   5.919 -0.0545  0.5552 -0.9676
  506TIP3    H123153   2.814   5.998   6.005 -1.3044 -1.1815 -0.0987
  506TIP3    H223154   2.760   6.007   5.864 -0.6788  0.6409 -0.2454
  507TIP3   OH223155   0.942   6.962   1.715 -0.1717  0.1005  0.7584
  507TIP3    H123156   0.998   6.945   1.791  0.7102  1.2112  0.3514
  507TIP3    H223157   0.897   7.043   1.737  1.0662  1.1309 -0.4758
  508TIP3   OH223158   1.681   4.879   7.367 -0.4209 -0.4273  0.4441
  508TIP3    H123159   1.684   4.810   7.300 -0.0190  0.6423 -0.6663
  508TIP3    H223160   1.594   4.869   7.406 -1.6739  0.4830 -1.9589
  509TIP3   OH223161   6.220   0.741   8.063  0.5632  0.1824  0.0911
  509TIP3    H123162   6.305   0.757   8.021  0.4825 -0.2686 -0.2487
  509TIP3    H223163   6.158   0.738   7.989  0.0368  1.9163  0.4355
  510TIP3   OH223164   1.072   3.430   0.537  0.2261 -0.1841 -0.5648
  510TIP3    H123165   1.000   3.473   0.492 -1.1345 -0.6627  1.0791
  510TIP3    H223166   1.059   3.336   0.520 -0.8307 -0.4396  1.5265
  511TIP3   OH223167   2.642   0.011   5.906  0.0469 -0.2997  0.3798
  511TIP3    H123168   2.735  -0.011   5.913 -0.2510 -1.2914  1.3132
  511TIP3    H223169   2.597  -0.057   5.956 -1.3145 -0.9159 -1.5810
  512TIP3   OH223170   4.744   2.997   0.307  0.5072 -0.3752 -0.2027
  512TIP3    H123171   4.772   3.088   0.301  1.8138 -0.7740 -0.3016
  512TIP3    H223172   4.759   2.961   0.219 -1.5562 -0.2727 -0.6415
  513TIP3   OH223173   7.137   0.678   6.474  0.8591  0.3687 -0.0612
  513TIP3    H123174   7.138   0.652   6.382  1.7934  1.0137 -0.2409
  513TIP3    H223175   7.074   0.618   6.515  0.3725  0.1343 -1.1295
  514TIP3   OH223176   1.848   0.989   7.612 -0.1791 -0.3050 -0.1921
  514TIP3    H123177   1.790   1.055   7.649  1.5732  0.7480  0.7598
  514TIP3    H223178   1.889   1.032   7.537 -0.1569 -0.8165 -0.4771
  515TIP3   OH223179   5.653   5.377   1.165 -0.1737 -1.3016  0.1451
  515TIP3    H123180   5.741   5.389   1.201 -0.0309 -1.3146 -0.1914
  515TIP3    H223181   5.615   5.307   1.218 -0.5315 -0.2799  1.2544
  516TIP3   OH223182   6.257   5.604   1.373  0.2438  0.1289  0.1742
  516TIP3    H123183   6.166   5.614   1.347  0.2607  0.6156  0.2914
  516TIP3    H223184   6.253   5.573   1.464  0.1907 -0.8534 -0.1692
  517TIP3   OH223185   4.287   1.751   0.110 -0.2316 -0.4083 -0.2800
  517TIP3    H123186   4.313   1.777   0.198  0.2990 -1.5443 -0.0909
  517TIP3    H223187   4.322   1.662   0.100 -1.0712 -0.6355 -1.2970
  518TIP3   OH223188   3.309   0.903   0.450  0.2743 -0.1058 -0.4963
  518TIP3    H123189   3.362   0.877   0.525  0.1521  0.9397 -0.0381
  518TIP3    H223190   3.219   0.904   0.483  0.1706 -0.0917 -0.7750
  519TIP3   OH223191   3.581   0.256   1.235 -0.1858  0.3445  0.2441
  519TIP3    H123192   3.660   0.284   1.189  0.3190  0.0433  0.9196
  519TIP3    H223193   3.527   0.214   1.168  0.7352 -0.4769  0.0023
  520TIP3   OH223194   0.747   0.550   5.615 -0.0610  0.0187 -0.1066
  520TIP3    H123195   0.834   0.537   5.653  0.0552  1.7554  0.2408
  520TIP3    H223196   0.737   0.478   5.553  1.6647 -0.1280 -0.2335
  521TIP3   OH223197   5.122   1.047   6.755 -0.5059 -0.1802  0.0038
  521TIP3    H123198   5.111   0.975   6.817 -2.9481 -0.7607 -1.0727
  521TIP3    H223199   5.130   1.005   6.670  2.8945  0.6198 -0.1478
  522TIP3   OH223200   3.100   0.139   7.003 -0.1007 -0.6292  0.5541
  522TIP3    H123201   3.007   0.123   7.021 -0.6432  0.3089 -1.2876
  522TIP3    H223202   3.112   0.232   7.022  0.0052 -0.3118 -1.0182
  523TIP3   OH223203   5.015   3.416   7.878  0.2179  0.6123 -0.5294
  523TIP3    H123204   5.093   3.442   7.926  0.4920  0.2698 -0.7782
  523TIP3    H223205   4.984   3.337   7.923  1.2659 -0.5120 -1.7183
  524TIP3   OH223206   3.265   1.173   7.235 -0.5491  0.3720  0.6613
  524TIP3    H123207   3.307   1.225   7.166 -2.7217  2.5177  0.9303
  524TIP3    H223208   3.225   1.099   7.188 -0.5432  0.8857 -0.1623
  525TIP3   OH223209   2.204   2.857   6.429 -0.9658 -0.1862  0.0366
  525TIP3    H123210   2.230   2.855   6.521 -1.4077 -0.6668  0.1485
  525TIP3    H223211   2.276   2.815   6.383 -0.7312  0.0791  0.1553
  526TIP3   OH223212   3.592   0.073   6.205 -0.0642 -0.5516 -0.1028
  526TIP3    H123213   3.596   0.156   6.157  2.0436 -0.9994 -0.7100
  526TIP3    H223214   3.602   0.099   6.297 -0.6020 -0.0378 -0.1825
  527TIP3   OH223215   0.494   6.406   6.772 -0.4616 -0.3881 -0.0869
  527TIP3    H123216   0.521   6.321   6.736  0.3621 -0.2842  0.2788
  527TIP3    H223217   0.529   6.470   6.709  1.9600 -0.1395  1.4337
  528TIP3   OH223218   3.263   0.909   5.936  0.4448  0.0325 -0.0319
  528TIP3    H123219   3.284   0.816   5.928 -0.8314 -0.0868 -2.2623
  528TIP3    H223220   3.267   0.943   5.846 -1.6510  1.5635  0.4106
  529TIP3   OH223221   2.996   6.621   7.778 -0.2261 -0.0015 -0.0862
  529TIP3    H123222   3.016   6.698   7.724  0.0717 -0.1974 -0.2544
  529TIP3    H223223   3.045   6.550   7.738  1.7446  0.2916  1.7253
  530TIP3   OH223224   1.822   1.070   0.455  0.3918 -0.1360  0.3152
  530TIP3    H123225   1.752   1.064   0.390  0.0853 -1.0274  0.7157
  530TIP3    H223226   1.833   0.981   0.487  2.6629 -0.2593 -0.7132
  531TIP3   OH223227   6.394   7.145   6.543 -0.5946  0.1396  0.1846
  531TIP3    H123228   6.378   7.219   6.485  1.5095  0.2996 -0.2354
  531TIP3    H223229   6.406   7.071   6.484 -0.4998 -0.1094  0.5145
  532TIP3   OH223230   2.853   0.061   5.631 -0.7245  0.1549 -0.9044
  532TIP3    H123231   2.940   0.039   5.598 -1.2259 -1.4786 -1.2070
  532TIP3    H223232   2.849   0.016   5.716 -0.9843  0.8826 -0.5306
  533TIP3   OH223233   4.464   5.693   6.487 -0.3109 -0.3024  0.2055
  533TIP3    H123234   4.444   5.599   6.477 -1.2752  0.1291 -2.2412
  533TIP3    H223235   4.405   5.722   6.557 -0.5749 -1.3512  0.4339
  534TIP3   OH223236   1.424   4.654   1.224  0.2441  0.2011 -0.6842
  534TIP3    H123237   1.462   4.671   1.310 -0.5885 -0.1278 -0.2524
  534TIP3    H223238   1.441   4.561   1.208 -4.3147 -1.1499  1.5103
  535TIP3   OH223239   6.734   1.096   7.319  0.9005 -0.0564 -0.0230
  535TIP3    H123240   6.648   1.110   7.278  1.4940 -0.7250 -1.5261
  535TIP3    H223241   6.726   1.013   7.365 -0.2653  1.4399  2.6196
  536TIP3   OH223242   2.877   6.957   0.961 -0.0942 -0.2182  0.0541
  536TIP3    H123243   2.891   6.864   0.980  0.3222 -0.0107  0.7915
  536TIP3    H223244   2.782   6.965   0.954 -0.1493 -0.6454  0.2754
  537TIP3   OH223245   4.510   3.274   6.868 -0.0502  0.8338  0.2837
  537TIP3    H123246   4.526   3.184   6.840  0.8743  1.1025 -0.0588
  537TIP3    H223247   4.541   3.328   6.795  1.9765  1.5124  1.5923
  538TIP3   OH223248   1.256   0.638   7.839 -0.1051  0.1529 -0.2401
  538TIP3    H123249   1.167   0.608   7.823 -0.3214  1.4736 -1.7182
  538TIP3    H223250   1.311   0.581   7.784 -0.0414 -0.6339  0.6390
  539TIP3   OH223251   4.131   2.114   7.391  0.2756  0.4127 -0.4503
  539TIP3    H123252   4.045   2.157   7.396 -0.9390 -1.9909  0.3667
  539TIP3    H223253   4.150   2.111   7.297 -1.1093 -0.0573 -0.7375
  540TIP3   OH223254   2.681   0.970   0.203 -0.0342  0.1566  0.5674
  540TIP3    H123255   2.701   0.938   0.115 -1.4028  2.0582 -0.4787
  540TIP3    H223256   2.692   0.894   0.259 -0.4917 -1.4381 -1.4328
  541TIP3   OH223257   6.221   1.005   6.474  0.1768  0.4821 -0.0633
  541TIP3    H123258   6.240   0.917   6.504  1.2200 -0.0147 -2.0438
  541TIP3    H223259   6.307   1.041   6.450 -0.3497  1.6590 -0.2358
  542TIP3   OH223260   2.061   1.328   7.816  0.3192  0.1968  0.1960
  542TIP3    H123261   2.154   1.342   7.831  0.2513  0.6106  0.2395
  542TIP3    H223262   2.035   1.264   7.883  0.4514  0.5059  0.5432
  543TIP3   OH223263   3.345   4.778   7.349  0.1064 -0.2772 -0.0628
  543TIP3    H123264   3.343   4.814   7.260  0.2972 -1.5592 -0.6034
  543TIP3    H223265   3.409   4.832   7.395 -0.4223  0.7686 -0.5412
  544TIP3   OH223266   5.705   6.921   6.180  0.2058 -0.3263  0.0381
  544TIP3    H123267   5.723   6.831   6.155  0.4085 -0.6088  1.1834
  544TIP3    H223268   5.781   6.971   6.150  0.3192 -0.6129 -0.1465
  545TIP3   OH223269   2.969   0.356   6.214  0.2308 -0.5602  0.4074
  545TIP3    H123270   2.980   0.276   6.163  0.7619 -0.8861  1.0297
  545TIP3    H223271   2.876   0.356   6.239 -0.2092 -0.0274 -1.1517
  546TIP3   OH223272   2.623   3.213   5.975 -0.2153 -1.1035 -0.2137
  546TIP3    H123273   2.593   3.301   5.998  2.3463 -0.4579  0.8093
  546TIP3    H223274   2.606   3.161   6.054  0.0251 -1.0833 -0.1496
  547TIP3   OH223275   2.880   1.056   6.325 -0.3150  0.3866  0.0923
  547TIP3    H123276   2.794   1.052   6.284 -1.0964  0.3505  1.7158
  547TIP3    H223277   2.940   1.076   6.253 -1.5452 -0.5482 -1.2106
  548TIP3   OH223278   2.367   6.639   1.546  0.2442 -0.6148 -0.5469
  548TIP3    H123279   2.458   6.670   1.547  0.1973 -0.5070  1.0323
  548TIP3    H223280   2.316   6.719   1.530  0.3796 -0.5690 -0.7618
  549TIP3   OH223281   3.176   3.146   6.452 -0.3605  0.2516  0.1295
  549TIP3    H123282   3.224   3.107   6.525 -2.0945 -1.1929  0.5380
  549TIP3    H223283   3.229   3.127   6.375 -0.0124 -0.8601  0.6367
  550TIP3   OH223284   2.323   2.211   5.791  0.4181 -0.3226  0.4583
  550TIP3    H123285   2.284   2.292   5.758  0.6880 -0.5566 -0.4514
  550TIP3    H223286   2.417   2.224   5.781  0.4859 -0.5559  0.7776
  551TIP3   OH223287   0.415   1.564   0.701  0.5644 -0.1128 -0.1030
  551TIP3    H123288   0.394   1.645   0.747  1.5813 -0.1898  0.5166
  551TIP3    H223289   0.505   1.576   0.672  0.1208 -0.2978 -1.5948
  552TIP3   OH223290   0.591   3.108   6.905 -0.4918 -0.4720 -0.1733
  552TIP3    H123291   0.655   3.057   6.856 -0.9363 -0.1907 -1.0689
  552TIP3    H223292   0.512   3.053   6.907 -0.9549  0.1474 -1.0943
  553TIP3   OH223293   2.515   6.439   6.609 -0.7597 -0.0462  0.5030
  553TIP3    H123294   2.523   6.437   6.514 -0.4508 -2.1890  0.5688
  553TIP3    H223295   2.573   6.510   6.636  1.7660 -1.6132 -0.6729
  554TIP3   OH223296   5.602   3.291   7.505 -0.5602 -0.2837 -0.4496
  554TIP3    H123297   5.648   3.244   7.435 -0.2921 -0.7126  0.0152
  554TIP3    H223298   5.595   3.380   7.472  3.5763  0.6589  0.8325
  555TIP3   OH223299   3.067   3.385   0.665  0.1715 -0.0501 -0.7497
  555TIP3    H123300   3.157   3.375   0.696  0.1286 -0.9674 -0.9093
  555TIP3    H223301   3.019   3.316   0.711 -0.4846  0.5289 -0.5505
  556TIP3   OH223302   2.232   6.900   6.421 -0.3509 -0.3995  0.0411
  556TIP3    H123303   2.163   6.882   6.486 -1.1581 -0.3179 -0.7827
  556TIP3    H223304   2.299   6.834   6.439 -1.0962 -1.1284  0.1971
  557TIP3   OH223305   1.732   2.752   6.879 -1.2025 -0.2363 -0.6357
  557TIP3    H123306   1.774   2.828   6.837 -1.9107  0.5283  0.0160
  557TIP3    H223307   1.696   2.787   6.960  0.0136 -1.6757  0.5405
  558TIP3   OH223308   3.848   6.481   6.688  0.2900  0.3648  0.5921
  558TIP3    H123309   3.840   6.386   6.689 -1.3010  0.4538 -0.8608
  558TIP3    H223310   3.879   6.502   6.600 -0.6277  1.2584  0.4701
  559TIP3   OH223311   5.334   4.748   6.505 -0.4263  0.3396  0.0263
  559TIP3    H123312   5.304   4.825   6.553 -1.0427  0.9213 -1.2567
  559TIP3    H223313   5.427   4.764   6.489 -0.2914  0.2850  0.7293
  560TIP3   OH223314   3.012   2.458   5.782 -0.1837  0.2581 -0.2725
  560TIP3    H123315   3.038   2.519   5.713  0.1395 -0.1950 -0.5541
  560TIP3    H223316   3.083   2.462   5.846 -1.0995  1.6698  0.6947
  561TIP3   OH223317   1.652   6.944   5.966  0.4158 -0.0355  0.1769
  561TIP3    H123318   1.699   7.002   5.906  0.8854  0.8033  1.3166
  561TIP3    H223319   1.667   6.856   5.932  1.8402  0.3226 -0.1612
  562TIP3   OH223320   6.806   4.004   7.491 -0.0613  0.7230 -0.0998
  562TIP3    H123321   6.755   3.925   7.507  0.3484  0.6103  0.7097
  562TIP3    H223322   6.891   3.987   7.532  1.5375 -0.0843 -3.5834
  563TIP3   OH223323   3.530   1.253   7.759  0.1708  0.2075 -0.0654
  563TIP3    H123324   3.460   1.219   7.703 -0.9310 -1.3647  2.1635
  563TIP3    H223325   3.488   1.322   7.810  0.4419 -0.1251  0.6281
  564TIP3   OH223326   2.886   0.347   1.168 -0.0608 -0.0664 -0.6721
  564TIP3    H123327   2.873   0.287   1.241 -0.5792 -0.0849 -0.7735
  564TIP3    H223328   2.824   0.317   1.102 -1.0962  1.2398 -0.3143
  565TIP3   OH223329   6.174   2.914   7.953 -0.8129  0.5406 -0.0078
  565TIP3    H123330   6.187   2.950   8.040  1.2090 -0.7307  0.2684
  565TIP3    H223331   6.162   2.820   7.967 -0.3835  0.3164 -1.0899
  566TIP3   OH223332   2.647   0.256   5.573  0.0340  0.4646 -0.3425
  566TIP3    H123333   2.593   0.221   5.501  1.3925  1.1722 -1.7384
  566TIP3    H223334   2.726   0.203   5.571 -0.2790 -0.0812  1.2308
  567TIP3   OH223335   4.571   3.743   5.822  0.5287  0.3039  0.0944
  567TIP3    H123336   4.589   3.790   5.741  0.7350  0.0777  0.0072
  567TIP3    H223337   4.507   3.797   5.868 -0.9727 -0.4712 -1.0561
  568TIP3   OH223338   5.422   2.805   0.318  0.5651 -0.5816 -0.1921
  568TIP3    H123339   5.470   2.819   0.237 -0.8161  0.6078 -0.8086
  568TIP3    H223340   5.424   2.890   0.362 -1.5735 -0.3319 -0.5562
  569TIP3   OH223341   3.681   3.092   0.783  0.1062 -0.0337  0.1006
  569TIP3    H123342   3.631   3.012   0.769  0.2661  0.2138 -2.0772
  569TIP3    H223343   3.745   3.094   0.712  3.1591 -0.2417  2.7232
  570TIP3   OH223344   1.306   3.409   7.650 -0.8202 -0.0257  0.1193
  570TIP3    H123345   1.291   3.427   7.742  0.3841 -0.7992  0.4877
  570TIP3    H223346   1.349   3.323   7.649 -0.2407  0.2608 -1.1076
  571TIP3   OH223347   3.372   1.275   8.092 -0.1036 -0.5321  0.3138
  571TIP3    H123348   3.339   1.255   8.180 -2.0121  2.2055  0.2925
  571TIP3    H223349   3.300   1.251   8.033  0.1307  0.1169 -0.2450
  572TIP3   OH223350   4.642   0.797   6.687  0.2050 -0.5296 -0.3928
  572TIP3    H123351   4.595   0.832   6.763 -0.7746  1.3099 -1.7814
  572TIP3    H223352   4.730   0.778   6.719  0.7922  3.2539  0.5027
  573TIP3   OH223353   1.321   5.054   1.217 -0.2834  0.0332 -0.5958
  573TIP3    H123354   1.396   4.996   1.215  0.0977  0.5571 -1.6879
  573TIP3    H223355   1.259   5.017   1.155 -0.2654  0.4872 -0.8877
  574TIP3   OH223356   2.063   5.820   6.525  0.4504 -0.3823 -0.2318
  574TIP3    H123357   1.999   5.758   6.492 -1.0662  0.7138  0.5966
  574TIP3    H223358   2.103   5.777   6.600  0.4867 -0.9448 -0.5700
  575TIP3   OH223359   2.115   3.340   0.365 -0.3963 -0.1614 -0.0793
  575TIP3    H123360   2.034   3.390   0.377 -0.7403 -0.5442 -0.7448
  575TIP3    H223361   2.177   3.403   0.326 -0.2447  0.2398  0.8148
  576TIP3   OH223362   3.822   7.014   0.426 -0.3616  0.4808  0.0675
  576TIP3    H123363   3.771   7.033   0.347  0.3516  2.2128 -0.0047
  576TIP3    H223364   3.803   6.922   0.446 -2.7904  0.8576 -0.4448
  577TIP3   OH223365   2.092   6.802   6.669 -0.3371 -0.6211  0.3217
  577TIP3    H123366   2.000   6.781   6.683 -0.5785  0.4436  0.3369
  577TIP3    H223367   2.105   6.886   6.711  0.8568 -1.1607  1.0696
  578TIP3   OH223368   5.482   1.670   6.649  0.1981  0.4950  0.0085
  578TIP3    H123369   5.555   1.609   6.638 -0.0741  0.7984 -4.2819
  578TIP3    H223370   5.413   1.618   6.688  1.4001 -0.8334  0.4106
  579TIP3   OH223371   0.191   6.137   0.407  0.6724 -0.4343  0.2866
  579TIP3    H123372   0.148   6.055   0.430  1.0993 -0.4701  0.9626
  579TIP3    H223373   0.120   6.202   0.406  0.6188 -0.4466  1.6381
  580TIP3   OH223374   4.566   0.662   0.224 -0.1577 -0.1280  0.0248
  580TIP3    H123375   4.587   0.648   0.317  1.8824 -1.2051 -0.5958
  580TIP3    H223376   4.486   0.611   0.210 -0.9330  0.6823  1.3738
  581TIP3   OH223377   0.474   1.974   7.761  0.2960 -1.1057 -0.1596
  581TIP3    H123378   0.411   1.908   7.791 -0.1570 -0.2324  0.8606
  581TIP3    H223379   0.420   2.050   7.740  0.9526 -0.5151  0.2498
  582TIP3   OH223380   2.088   0.055   7.051  1.0775 -0.8296  0.1146
  582TIP3    H123381   2.030   0.009   6.990  0.2344  0.6687 -0.2433
  582TIP3    H223382   2.168   0.003   7.052 -0.3522 -3.0986  0.8224
  583TIP3   OH223383   2.511   1.079   7.164  0.3590  0.0416 -0.0321
  583TIP3    H123384   2.603   1.105   7.171 -0.3035  1.8241  2.5770
  583TIP3    H223385   2.485   1.106   7.076  1.5745  2.1228  0.2258
  584TIP3   OH223386   1.054   2.608   6.173  0.0198 -0.0518  0.1005
  584TIP3    H123387   1.105   2.682   6.207  0.5411  0.2584 -1.3105
  584TIP3    H223388   1.022   2.639   6.088 -1.0196 -0.9087  0.1730
  585TIP3   OH223389   1.069   0.007   7.689 -0.1617 -0.5990 -0.5802
  585TIP3    H123390   1.020  -0.066   7.727 -0.4698 -0.4733 -0.7307
  585TIP3    H223391   1.073   0.072   7.759  0.0780 -0.7428 -0.4596
  586TIP3   OH223392   4.872   2.171   6.022  0.2656  0.3290 -0.1565
  586TIP3    H123393   4.806   2.103   6.009  0.4689  0.2456 -0.7578
  586TIP3    H223394   4.929   2.164   5.946  1.6723 -0.3901  0.9389
  587TIP3   OH223395   3.748   0.828   6.248 -0.3899  0.5314  0.6909
  587TIP3    H123396   3.821   0.767   6.238 -0.5868  0.1819  1.3406
  587TIP3    H223397   3.729   0.828   6.342 -0.1963  1.8242  0.7370
  588TIP3   OH223398   6.982   1.028   0.244  0.4838  0.1572  0.0171
  588TIP3    H123399   6.981   0.938   0.211  0.7856  0.7568 -1.6869
  588TIP3    H223400   7.057   1.069   0.200  2.3823  0.3297  3.3037
  589TIP3   OH223401   3.980   2.290   0.179  0.0833 -0.0213  0.1363
  589TIP3    H123402   3.912   2.223   0.184  1.1861 -1.0764  1.4529
  589TIP3    H223403   3.958   2.341   0.101 -1.4108 -1.2247 -0.2490
  590TIP3   OH223404   4.033   4.240   7.906 -0.1419 -0.5944  0.1481
  590TIP3    H123405   4.003   4.293   7.979 -0.7269 -1.2394  0.3815
  590TIP3    H223406   3.992   4.279   7.829  0.5535  0.1450  0.1461
  591TIP3   OH223407   3.343   2.182   2.002  0.1891  0.4125  0.3723
  591TIP3    H123408   3.317   2.101   1.958  0.8581  0.5471 -0.2892
  591TIP3    H223409   3.274   2.198   2.066  0.8946 -1.5622  1.6657
  592TIP3   OH223410   1.484   1.547   0.290 -0.2025  0.0808  0.4356
  592TIP3    H123411   1.562   1.497   0.263 -0.0053  0.3543  0.5038
  592TIP3    H223412   1.453   1.503   0.369  0.3051  0.4132  0.8224
  593TIP3   OH223413   0.064   2.861   0.195 -0.2974  0.1827 -0.0825
  593TIP3    H123414   0.115   2.901   0.265 -0.5585  1.0781 -0.3885
  593TIP3    H223415   0.090   2.769   0.195  2.0546  0.8030 -0.8602
  594TIP3   OH223416   1.510   1.171   0.068  0.4454  0.0284 -0.8166
  594TIP3    H123417   1.443   1.158   0.000 -0.3090  1.0310 -0.2833
  594TIP3    H223418   1.575   1.103   0.051 -1.2610 -1.6697 -0.6584
  595TIP3   OH223419   2.172   4.180   6.472  0.0421  0.2364  0.0811
  595TIP3    H123420   2.099   4.224   6.428  0.4424 -0.0530 -0.8841
  595TIP3    H223421   2.164   4.088   6.449  0.2003  0.0583  0.7021
  596TIP3   OH223422   1.031   6.749   8.077  0.2775 -0.1906  0.4447
  596TIP3    H123423   1.106   6.790   8.121  0.9117 -1.3741  0.4819
  596TIP3    H223424   0.955   6.790   8.118  0.8966  1.4163  0.0356
  597TIP3   OH223425   3.977   6.428   7.010 -0.1497 -0.3680 -0.0347
  597TIP3    H123426   3.920   6.501   6.987 -0.5918 -0.0859  1.8858
  597TIP3    H223427   3.942   6.354   6.960 -1.8845 -0.0772  0.7141
  598TIP3   OH223428   1.967   0.820   0.700 -0.3117 -0.3177 -0.1840
  598TIP3    H123429   1.939   0.903   0.740 -0.2548 -0.5803  0.4142
  598TIP3    H223430   1.932   0.823   0.611 -0.1262  0.4453 -0.2371
  599TIP3   OH223431   4.023   4.765   6.049  0.0336 -0.0627 -0.1203
  599TIP3    H123432   4.037   4.676   6.081 -0.6846 -0.1443 -0.0102
  599TIP3    H223433   4.107   4.808   6.060  0.5612 -0.9219 -0.7913
  600TIP3   OH223434   1.827   0.176   6.659  0.0046 -0.0382  0.1615
  600TIP3    H123435   1.886   0.108   6.692  0.7990 -0.0504 -1.2113
  600TIP3    H223436   1.739   0.139   6.669  0.2782 -0.2998  1.6060
  601TIP3   OH223437   6.813   6.044   6.830 -0.3359 -0.0808 -0.1743
  601TIP3    H123438   6.750   6.116   6.837 -0.2832 -0.1289  0.8223
  601TIP3    H223439   6.766   5.967   6.864 -0.0533 -0.3083 -0.2927
  602TIP3   OH223440   3.260   1.683   1.596  0.1013  0.6195 -0.3101
  602TIP3    H123441   3.218   1.707   1.679  2.2737  1.7945  0.4881
  602TIP3    H223442   3.232   1.593   1.581 -0.0923  0.2807  1.8642
  603TIP3   OH223443   3.753   4.272   6.856 -0.3834  0.4900 -0.0262
  603TIP3    H123444   3.707   4.282   6.939 -1.8646  1.6779 -0.9535
  603TIP3    H223445   3.702   4.207   6.808  0.5947 -0.3620  0.0796
  604TIP3   OH223446   4.188   1.813   7.508  0.0858 -0.0599 -0.2276
  604TIP3    H123447   4.245   1.799   7.432  0.1710  2.2069 -0.6308
  604TIP3    H223448   4.159   1.726   7.533  0.8763 -0.9366 -2.2450
  605TIP3   OH223449   3.318   1.431   7.372 -0.0224 -0.5786  0.1639
  605TIP3    H123450   3.253   1.374   7.330 -0.3321 -0.2125  0.1483
  605TIP3    H223451   3.399   1.380   7.369  0.1948 -0.1934 -1.7808
  606TIP3   OH223452   0.628   0.255   6.896  0.0916  0.1486  0.0233
  606TIP3    H123453   0.712   0.211   6.882 -1.1788 -2.1944 -0.5634
  606TIP3    H223454   0.564   0.184   6.897 -1.8029  1.8252  1.2342
  607TIP3   OH223455   2.597   3.231   6.987 -0.4520 -0.3348  0.9121
  607TIP3    H123456   2.620   3.321   7.010 -3.0562  0.8320 -0.7461
  607TIP3    H223457   2.550   3.198   7.063  0.9274 -0.4505  1.7148
  608TIP3   OH223458   1.957   2.158   6.685 -0.0179  0.3205 -0.0553
  608TIP3    H123459   1.901   2.081   6.693 -1.8005  1.6509  0.5526
  608TIP3    H223460   1.919   2.209   6.614  1.3758  0.4779 -0.7105
  609TIP3   OH223461   3.156   1.191   7.931  0.4999 -0.1738  0.0291
  609TIP3    H123462   3.144   1.162   7.841 -0.0319  1.0989 -0.3141
  609TIP3    H223463   3.068   1.195   7.968  0.6116  0.5479  0.2194
  610TIP3   OH223464   3.127   0.254   5.759  0.1768 -0.3585 -0.1502
  610TIP3    H123465   3.172   0.202   5.825  0.2063  0.0928  0.1863
  610TIP3    H223466   3.042   0.275   5.799 -0.2048 -0.9438 -0.6565
  611TIP3   OH223467   0.146   1.153   6.223 -0.3273  0.3601  0.2034
  611TIP3    H123468   0.198   1.231   6.205  0.0640  0.1604  0.4703
  611TIP3    H223469   0.200   1.080   6.194 -0.3628  0.1372  0.6924
  612TIP3   OH223470   1.004   2.594   1.628 -0.0630  0.0324 -0.3495
  612TIP3    H123471   1.060   2.640   1.691  0.5909 -0.3661 -0.6318
  612TIP3    H223472   1.038   2.619   1.542 -1.4549  1.2034 -0.5738
  613TIP3   OH223473   2.431   6.521   7.797  0.3667  0.4096 -0.6762
  613TIP3    H123474   2.364   6.457   7.818  2.3274 -1.2538  0.7812
  613TIP3    H223475   2.501   6.471   7.756  1.2189  1.8983 -1.1012
  614TIP3   OH223476   2.711   0.341   6.263 -0.2151  0.0566 -0.0932
  614TIP3    H123477   2.625   0.379   6.245 -0.2073  0.2548  0.3025
  614TIP3    H223478   2.692   0.251   6.289 -0.5021  0.9000  2.7165
  615TIP3   OH223479   4.334   0.529   6.044  0.0168  0.1391 -0.1640
  615TIP3    H123480   4.405   0.522   5.980  0.7650 -0.1398  0.6842
  615TIP3    H223481   4.255   0.539   5.992  0.7554  1.0830 -1.1045
  616TIP3   OH223482   0.690   6.998   6.798 -0.0562  0.4558 -0.2352
  616TIP3    H123483   0.692   6.964   6.709  1.5417  0.5735 -0.2455
  616TIP3    H223484   0.738   7.080   6.795  1.4204 -0.3186  1.0407
  617TIP3   OH223485   7.112   6.601   7.351 -0.2207 -0.0082 -0.5800
  617TIP3    H123486   7.092   6.682   7.303  0.8491  1.1934  0.9534
  617TIP3    H223487   7.130   6.537   7.282 -0.7456  1.1405 -1.8191
  618TIP3   OH223488   4.619   4.124   5.843  0.1218  0.2593  0.4614
  618TIP3    H123489   4.615   4.219   5.834  0.2162  0.2350  0.1883
  618TIP3    H223490   4.650   4.092   5.758  0.9709  0.0513  0.8353
  619TIP3   OH223491   2.108   1.297   6.234  0.0589 -0.3511  0.3206
  619TIP3    H123492   2.075   1.235   6.169  0.9630  0.1770 -0.6605
  619TIP3    H223493   2.040   1.365   6.240 -0.6789 -1.1383  0.9976
  620TIP3   OH223494   5.821   1.861   6.366  0.7177  0.4277  0.0409
  620TIP3    H123495   5.889   1.889   6.305  0.9629 -1.9883 -0.8691
  620TIP3    H223496   5.867   1.809   6.432  0.4722  3.0863  2.4075
  621TIP3   OH223497   0.475   4.952   0.666  0.0781 -0.1592 -0.2494
  621TIP3    H123498   0.500   5.034   0.710  1.0466 -0.2754 -0.5864
  621TIP3    H223499   0.472   4.887   0.737 -0.1668  0.0477 -0.0680
  622TIP3   OH223500   4.504   6.905   7.082 -0.6522  0.2755 -0.2538
  622TIP3    H123501   4.536   6.969   7.019 -0.4448  1.3389  0.9175
  622TIP3    H223502   4.410   6.924   7.089 -1.0006 -0.9141 -1.4578
  623TIP3   OH223503   3.918   1.010   8.085 -0.4195 -0.6383  0.1545
  623TIP3    H123504   3.971   0.939   8.048 -1.0340 -0.7690 -0.4850
  623TIP3    H223505   3.873   0.970   8.159  0.5879 -0.4525  0.8806
  624TIP3   OH223506   4.997   1.967   1.203  0.0531 -0.2430  0.2256
  624TIP3    H123507   5.049   1.889   1.219 -0.4190 -0.9396 -1.5029
  624TIP3    H223508   4.911   1.948   1.241 -0.5806 -1.2667 -1.6303
  625TIP3   OH223509   4.617   5.577   0.387  0.5384  0.4947 -0.1489
  625TIP3    H123510   4.550   5.534   0.334  1.8808  0.8491 -2.1569
  625TIP3    H223511   4.583   5.665   0.401 -0.3820  0.0302  0.6476
  626TIP3   OH223512   1.407   6.690   5.964 -0.0219 -0.5583 -0.3383
  626TIP3    H123513   1.477   6.684   5.900 -0.9281 -2.6387 -1.1796
  626TIP3    H223514   1.446   6.663   6.047  0.9995  1.5719 -0.0824
  627TIP3   OH223515   4.104   1.542   7.576  0.2978  1.2515  0.6531
  627TIP3    H123516   4.187   1.511   7.541 -0.3201 -0.0919  0.3282
  627TIP3    H223517   4.038   1.493   7.528 -0.7014  2.4113  0.7935
  628TIP3   OH223518   5.201   1.477   1.184 -0.0245  0.4512 -0.4294
  628TIP3    H123519   5.128   1.500   1.126 -0.6324  0.6594  0.4153
  628TIP3    H223520   5.190   1.384   1.202 -2.1263  1.2167  2.5266
  629TIP3   OH223521   1.717   3.461   0.209 -0.4457 -0.8457 -0.1990
  629TIP3    H123522   1.784   3.501   0.265 -0.5189 -1.9008  0.6651
  629TIP3    H223523   1.761   3.384   0.171 -0.4100 -0.1575 -1.5742
  630TIP3   OH223524   5.348   6.463   7.654  0.3409  0.0632 -0.1260
  630TIP3    H123525   5.401   6.542   7.641 -0.6916  0.7004 -0.5564
  630TIP3    H223526   5.284   6.465   7.583 -0.5418 -0.4501  0.6389
  631TIP3   OH223527   1.662   1.893   7.214  0.8831  0.4883  0.0169
  631TIP3    H123528   1.716   1.943   7.152  1.4804 -0.7984 -0.5231
  631TIP3    H223529   1.705   1.905   7.299  2.4523 -1.0848 -0.5224
  632TIP3   OH223530   3.570   7.087   5.934  0.3234 -0.5154 -0.0777
  632TIP3    H123531   3.492   7.060   5.886 -0.8413  1.8382  0.3718
  632TIP3    H223532   3.536   7.126   6.015  1.6566  3.5777 -1.3215
  633TIP3   OH223533   2.900   1.951   7.272 -0.5670  0.4216  0.3685
  633TIP3    H123534   2.944   1.867   7.262  0.8804  1.2276 -0.1371
  633TIP3    H223535   2.886   1.960   7.366 -2.4184 -1.2127  0.2907
  634TIP3   OH223536   0.889   3.025   0.026 -0.4221  0.2026  0.1032
  634TIP3    H123537   0.869   3.070  -0.056 -0.5302  1.2158  0.6754
  634TIP3    H223538   0.838   3.072   0.092 -0.0999 -0.4124  0.7934
  635TIP3   OH223539   3.888   6.191   0.802 -0.0786  0.0533 -0.0376
  635TIP3    H123540   3.879   6.103   0.839  2.4712 -0.3750 -0.3925
  635TIP3    H223541   3.866   6.180   0.709 -1.9056  0.2470  0.3438
  636TIP3   OH223542   4.973   2.996   7.444  0.1344  0.6899  0.1173
  636TIP3    H123543   4.978   2.990   7.540 -0.3234 -1.6246  0.0168
  636TIP3    H223544   5.033   2.928   7.413 -1.1903  0.1328 -1.2443
  637TIP3   OH223545   4.618   2.273   1.209 -0.3397 -0.3957  0.0756
  637TIP3    H123546   4.595   2.365   1.199  0.1353 -0.1788  0.9567
  637TIP3    H223547   4.547   2.226   1.165  1.0377  0.4501 -3.1579
  638TIP3   OH223548   2.036   7.152   6.003  0.0318  0.0278 -0.0137
  638TIP3    H123549   2.085   7.232   6.024 -1.4026  1.6367 -2.5089
  638TIP3    H223550   2.099   7.081   6.017  1.4459  1.5990  1.8970
  639TIP3   OH223551   5.835   6.748   0.788 -0.8947  0.0232  0.3000
  639TIP3    H123552   5.883   6.705   0.860 -0.0284  0.3248 -0.0938
  639TIP3    H223553   5.893   6.817   0.758 -2.2281  1.3961  0.8193
  640TIP3   OH223554   0.654   2.774   6.390 -0.5382 -0.4898  0.4798
  640TIP3    H123555   0.562   2.747   6.383 -0.6874  0.2307 -0.3465
  640TIP3    H223556   0.650   2.868   6.406  0.0555 -0.5029  0.7246
  641TIP3   OH223557   4.929   6.495   6.914  0.1567 -0.8133  0.6089
  641TIP3    H123558   4.835   6.482   6.900  0.2918  0.2235 -1.3716
  641TIP3    H223559   4.934   6.565   6.980 -0.4904  1.8134 -2.0250
  642TIP3   OH223560   1.669   7.084   0.274 -0.2709 -0.5043 -0.6312
  642TIP3    H123561   1.759   7.106   0.298 -0.6961  0.4568  0.1387
  642TIP3    H223562   1.677   7.036   0.192  0.9462 -0.4361 -0.5649
  643TIP3   OH223563   5.375   2.947   7.132 -0.0108 -0.1746  0.0010
  643TIP3    H123564   5.291   2.985   7.160  0.5561  0.4683  0.8568
  643TIP3    H223565   5.356   2.908   7.047 -1.6077 -1.5881  0.9814
  644TIP3   OH223566   0.417   1.753   1.435 -0.0893 -0.5007  1.4952
  644TIP3    H123567   0.431   1.784   1.524 -0.4199 -0.3098  1.4838
  644TIP3    H223568   0.502   1.764   1.392  0.2361 -1.1766  1.9557
  645TIP3   OH223569   2.519   4.578   7.178 -0.4102 -0.3752 -1.0117
  645TIP3    H123570   2.545   4.486   7.165 -0.5140 -0.5328 -0.1626
  645TIP3    H223571   2.473   4.577   7.262  0.8328  0.7076 -0.3164
  646TIP3   OH223572   7.083   0.079   7.103  0.0676  0.6084  0.2358
  646TIP3    H123573   7.163   0.090   7.051  1.8629  1.0964  2.9992
  646TIP3    H223574   7.090  -0.009   7.139 -1.2334  0.2176 -0.4355
  647TIP3   OH223575   5.287   2.177   6.232  0.1765 -0.0618  0.2533
  647TIP3    H123576   5.343   2.108   6.267  2.8261  1.7484 -0.2501
  647TIP3    H223577   5.254   2.142   6.150 -0.9225 -1.8526  1.4281
  648TIP3   OH223578   6.590   5.470   6.571  0.6604 -0.0079  0.0971
  648TIP3    H123579   6.531   5.468   6.496  0.6469 -1.1086  0.1387
  648TIP3    H223580   6.677   5.454   6.534  0.5100 -1.7131  0.4569
  649TIP3   OH223581   3.244   1.374   0.869  0.0733  0.3494 -0.1578
  649TIP3    H123582   3.217   1.287   0.901 -0.8633  0.8686  0.5014
  649TIP3    H223583   3.301   1.408   0.938  0.8144  0.0802 -0.6283
  650TIP3   OH223584   4.502   4.992   6.471 -0.3809 -0.1668  0.3584
  650TIP3    H123585   4.410   5.019   6.469 -0.6652 -1.1722 -0.7223
  650TIP3    H223586   4.550   5.071   6.497 -1.3735  0.8979 -0.9714
  651TIP3   OH223587   3.563   4.791   0.041  0.5785  0.2688  0.3235
  651TIP3    H123588   3.601   4.784   0.128 -0.6840 -0.9517  0.7982
  651TIP3    H223589   3.535   4.702   0.019  1.1595  0.5024 -1.4639
  652TIP3   OH223590   2.785   2.364   5.928  0.0163 -0.0476  0.5885
  652TIP3    H123591   2.860   2.385   5.873  0.6790 -2.2868  0.6205
  652TIP3    H223592   2.748   2.450   5.950  3.1902  1.1717  1.4815
  653TIP3   OH223593   3.666   4.198   0.043  0.5022 -0.3286  0.1166
  653TIP3    H123594   3.719   4.185  -0.036  0.0438 -0.4135 -0.1781
  653TIP3    H223595   3.602   4.265   0.019  0.6836  0.0145  0.5754
  654TIP3   OH223596   3.161   6.412   7.736  0.3869 -0.6997  0.0948
  654TIP3    H123597   3.138   6.319   7.740 -2.0861 -0.1171  0.0788
  654TIP3    H223598   3.228   6.423   7.804  1.9972 -2.8294 -1.1169
  655TIP3   OH223599   3.806   0.042   0.130  0.0483 -0.4825  0.0812
  655TIP3    H123600   3.781   0.058   0.039 -0.6963 -0.7508  0.2370
  655TIP3    H223601   3.802  -0.053   0.139 -1.6845 -0.3464  0.8998
  656TIP3   OH223602   4.827   4.715   5.931 -0.2990 -0.4205  0.1041
  656TIP3    H123603   4.792   4.712   6.021 -1.1356 -2.4364 -0.2582
  656TIP3    H223604   4.879   4.635   5.923  0.5705  0.2359 -0.9065
  657TIP3   OH223605   4.932   6.653   7.125  0.2039  0.4012  0.4471
  657TIP3    H123606   4.970   6.616   7.205  0.6701  2.5630  1.2558
  657TIP3    H223607   4.913   6.744   7.147 -0.0882  0.9137 -1.7685
  658TIP3   OH223608   3.757   3.890   0.065  0.0334  0.1149  0.0978
  658TIP3    H123609   3.770   3.943  -0.014 -0.7318  1.8444  1.1139
  658TIP3    H223610   3.846   3.865   0.091  0.5129  1.9593  0.3104
  659TIP3   OH223611   4.143   6.238   6.323  0.0338  0.0865  0.3270
  659TIP3    H123612   4.079   6.266   6.257  1.4641  2.6363 -0.0422
  659TIP3    H223613   4.203   6.181   6.275  0.3395  0.9174 -0.2822
  660TIP3   OH223614   2.244   5.321   7.649  0.6714 -0.2024 -0.1340
  660TIP3    H123615   2.331   5.356   7.629  0.7171  0.4422  1.1034
  660TIP3    H223616   2.262   5.236   7.691  0.7140 -0.0186  0.2235
  661TIP3   OH223617   5.731   2.770   8.030  0.6202  0.2599  0.3170
  661TIP3    H123618   5.696   2.847   8.075  0.6476 -0.3998  1.4835
  661TIP3    H223619   5.798   2.805   7.971  0.3985  1.1612  0.5935
  662TIP3   OH223620   2.552   6.961   7.420 -0.3907  0.0255  0.3245
  662TIP3    H123621   2.527   6.931   7.508 -0.1536 -2.3596 -0.3697
  662TIP3    H223622   2.646   6.979   7.426 -0.4787  0.3411  0.6991
  663TIP3   OH223623   1.103   6.313   7.985 -0.0579 -0.0600 -0.0914
  663TIP3    H123624   1.056   6.355   7.912  0.7323 -1.9305 -1.7104
  663TIP3    H223625   1.043   6.244   8.015  0.8522 -1.2301 -0.9357
  664TIP3   OH223626   3.869   7.074   7.316  0.0510  0.1950 -0.1719
  664TIP3    H123627   3.879   7.041   7.227  0.8097  0.7750 -0.3069
  664TIP3    H223628   3.957   7.072   7.353  0.2006  2.4597 -0.3334
  665TIP3   OH223629   3.471   3.878   7.231  0.5215 -0.6475  0.7169
  665TIP3    H123630   3.500   3.852   7.318 -0.3649  1.2154  1.5943
  665TIP3    H223631   3.450   3.971   7.239  1.2138 -0.2431 -1.6994
  666TIP3   OH223632   4.021   0.347   5.783  0.1019 -0.2814  0.4584
  666TIP3    H123633   3.931   0.331   5.809 -0.7895  1.6233 -1.3272
  666TIP3    H223634   4.045   0.428   5.827  0.5140 -0.1201 -0.0518
  667TIP3   OH223635   3.477   6.772   7.374  0.4035  0.1064 -0.0933
  667TIP3    H123636   3.527   6.708   7.324  1.4608 -0.8719  2.1273
  667TIP3    H223637   3.404   6.722   7.410  0.1701  0.5874  0.1041
  668TIP3   OH223638   6.591   0.106   6.834  0.8911 -0.4978  0.2241
  668TIP3    H123639   6.650   0.083   6.906  1.2932 -1.4014 -0.3766
  668TIP3    H223640   6.591   0.028   6.778 -2.9648 -1.6187  1.5866
  669TIP3   OH223641   2.193   3.835   7.032 -0.1495 -0.0817 -0.7765
  669TIP3    H123642   2.121   3.832   7.095  0.0368  0.5212 -0.5376
  669TIP3    H223643   2.249   3.906   7.062  0.1753 -0.0851 -1.3662
  670TIP3   OH223644   2.505   5.487   7.009  0.3212 -0.5936  0.3753
  670TIP3    H123645   2.488   5.487   7.103  0.2554 -0.4520  0.3643
  670TIP3    H223646   2.600   5.480   7.002  0.4729  1.0008  0.4936
  671TIP3   OH223647   5.313   3.138   6.780  0.3096  0.5249  0.2595
  671TIP3    H123648   5.252   3.198   6.821 -0.0468  1.4079 -1.4864
  671TIP3    H223649   5.269   3.053   6.783 -0.4640  0.9155  0.1312
  672TIP3   OH223650   1.706   3.506   7.644 -0.2075 -0.1511 -0.4551
  672TIP3    H123651   1.627   3.506   7.590 -0.6646 -3.6943  0.0719
  672TIP3    H223652   1.684   3.561   7.719 -1.0856  1.3415 -1.7706
  673TIP3   OH223653   1.606   1.939   6.187  0.2907  0.2460  0.0411
  673TIP3    H123654   1.541   2.000   6.222  1.0322  0.4655  1.0811
  673TIP3    H223655   1.560   1.856   6.177 -0.0956  0.3420  0.9820
  674TIP3   OH223656   2.527   3.118   6.575 -0.0164  0.1281  0.1085
  674TIP3    H123657   2.461   3.145   6.512 -0.5509  1.1688  1.0995
  674TIP3    H223658   2.512   3.173   6.651  0.1677 -1.6011  1.4287
  675TIP3   OH223659   6.774   0.432   8.083  0.1654  0.1805  0.2149
  675TIP3    H123660   6.779   0.392   7.996 -1.1619  1.7918 -0.6297
  675TIP3    H223661   6.685   0.414   8.112  0.0821  1.0877  0.5251
  676TIP3   OH223662   1.041   6.099   1.064  0.6410 -0.0669  1.2466
  676TIP3    H123663   1.077   6.187   1.067  0.2061  0.0726  2.7025
  676TIP3    H223664   1.090   6.055   0.995  0.7400  1.3586  0.3931
  677TIP3   OH223665   0.045   3.605   7.930 -0.1002 -0.5573 -0.6221
  677TIP3    H123666   0.110   3.547   7.890  1.4393  1.2555 -0.8409
  677TIP3    H223667   0.093   3.687   7.945 -2.6132  1.1326 -1.6389
  678TIP3   OH223668   3.729   1.897   6.726  0.1281  0.0181 -0.1275
  678TIP3    H123669   3.728   1.992   6.729 -1.4999  0.0368 -0.9728
  678TIP3    H223670   3.651   1.873   6.676 -0.9903 -1.8416  2.3844
  679TIP3   OH223671   2.584   4.499   0.493 -0.1636  0.0613  0.1771
  679TIP3    H123672   2.503   4.540   0.521 -0.1946  1.3761 -1.7102
  679TIP3    H223673   2.556   4.427   0.437 -0.0493  1.3215 -1.5458
  680TIP3   OH223674   1.694   2.243   6.264 -0.1687  0.1654 -0.6918
  680TIP3    H123675   1.629   2.300   6.222 -1.3769 -1.6601 -1.3976
  680TIP3    H223676   1.718   2.180   6.195 -0.2287 -1.2763  0.5733
  681TIP3   OH223677   2.169   2.609   7.052 -0.4940  0.3778  0.2782
  681TIP3    H123678   2.256   2.635   7.084 -0.3343  3.1579 -2.1345
  681TIP3    H223679   2.109   2.637   7.121  0.3948 -0.2511  1.3244
  682TIP3   OH223680   2.972   6.744   6.964 -0.3591  0.1654 -0.6213
  682TIP3    H123681   2.931   6.809   7.022  1.1905  0.6259 -0.0024
  682TIP3    H223682   2.937   6.764   6.877  0.1653  1.9254 -0.4568
  683TIP3   OH223683   4.445   2.585   6.677  0.1938 -0.3434  0.0207
  683TIP3    H123684   4.425   2.597   6.584  1.0690  0.5393 -0.0659
  683TIP3    H223685   4.541   2.591   6.682  0.2513 -1.7559  0.7946
  684TIP3   OH223686   0.245   0.646   0.472 -0.5487  0.1045  0.3680
  684TIP3    H123687   0.196   0.670   0.393 -1.8468 -2.1406  0.4472
  684TIP3    H223688   0.192   0.678   0.544 -0.8913 -0.5439  0.4043
  685TIP3   OH223689   0.695   0.949   6.919  0.5028 -0.6035 -0.1453
  685TIP3    H123690   0.698   0.961   6.824  0.0879  0.2430 -0.0552
  685TIP3    H223691   0.657   0.862   6.931 -0.4106 -0.2973 -0.7419
  686TIP3   OH223692   4.411   0.681   6.569 -0.3938 -0.1869 -0.3505
  686TIP3    H123693   4.423   0.673   6.475  0.0992 -1.2063 -0.2018
  686TIP3    H223694   4.491   0.723   6.600 -0.5764  0.1922 -0.3871
  687TIP3   OH223695   5.722   0.136   0.689 -0.0747 -0.1521 -0.1709
  687TIP3    H123696   5.794   0.079   0.661 -0.0345 -0.1251 -0.1204
  687TIP3    H223697   5.764   0.215   0.722 -0.1175 -0.2478  0.1164
  688TIP3   OH223698   0.386   6.557   7.196 -0.1302  0.0572  0.1664
  688TIP3    H123699   0.354   6.467   7.186 -1.6653  0.4274  1.5787
  688TIP3    H223700   0.409   6.564   7.289  1.5793  0.6336 -0.2735
  689TIP3   OH223701   2.049   0.306   6.457 -0.2977 -0.7983  0.4293
  689TIP3    H123702   1.987   0.361   6.410  0.0192 -3.3841 -3.2246
  689TIP3    H223703   1.996   0.237   6.495 -0.2618 -0.0179  1.9280
  690TIP3   OH223704   3.102   1.940   0.603 -0.2772 -0.1755 -0.4429
  690TIP3    H123705   3.128   1.863   0.553 -0.1683  0.4663 -1.3826
  690TIP3    H223706   3.066   2.000   0.538  1.7566  1.5038 -0.0875
  691TIP3   OH223707   1.778   6.074   6.239  0.2386  0.6967  0.3776
  691TIP3    H123708   1.862   6.062   6.281 -0.3750  0.4539  1.5535
  691TIP3    H223709   1.799   6.106   6.151  1.4977  2.2631  1.2361
  692TIP3   OH223710   1.400   0.332   0.275  0.0095  0.1261 -0.0405
  692TIP3    H123711   1.376   0.393   0.345  0.8939 -1.4933  1.7175
  692TIP3    H223712   1.351   0.252   0.295  0.9750 -0.6634 -0.7484
  693TIP3   OH223713   0.308   2.437   1.019 -0.0076 -0.3310  0.0921
  693TIP3    H123714   0.367   2.429   0.944 -0.2385 -0.2085 -0.1032
  693TIP3    H223715   0.257   2.355   1.019  0.1507 -0.4293  0.2501
  694TIP3   OH223716   1.139   2.696   6.923  0.6109 -0.4181  0.2975
  694TIP3    H123717   1.080   2.684   6.997  0.5334  0.8597  0.4516
  694TIP3    H223718   1.108   2.633   6.857  0.1600 -0.9586  1.0148
  695TIP3   OH223719   7.156   6.016   7.108  0.1932  0.5310  0.0038
  695TIP3    H123720   7.237   5.971   7.133 -0.7680 -1.6927 -0.7318
  695TIP3    H223721   7.087   5.966   7.152 -0.9017  1.4529 -0.6412
  696TIP3   OH223722   0.952   4.392   8.020 -0.2841 -0.1257  0.0318
  696TIP3    H123723   0.870   4.345   8.035 -0.2729  0.4440  2.1182
  696TIP3    H223724   1.003   4.334   7.963 -1.7798 -0.8926 -0.5426
  697TIP3   OH223725   1.636   0.915   5.947  0.3643 -0.5706  0.0525
  697TIP3    H123726   1.601   0.835   5.987 -0.0954 -0.2660  0.2653
  697TIP3    H223727   1.730   0.900   5.941  0.3921 -0.7814  0.9055
  698TIP3   OH223728   3.889   6.152   0.529 -0.2450  0.8156  0.8004
  698TIP3    H123729   3.980   6.182   0.519 -0.0356  0.0133  0.1825
  698TIP3    H223730   3.863   6.126   0.440 -0.3291 -1.0249  1.3428
  699TIP3   OH223731   2.773   5.473   6.467  0.2539  0.3960  0.6880
  699TIP3    H123732   2.759   5.457   6.561  0.9181  0.8228  0.8636
  699TIP3    H223733   2.845   5.415   6.444  0.0640  0.2637  0.4292
  700TIP3   OH223734   4.279   0.371   7.272 -0.3628  0.2338  0.3706
  700TIP3    H123735   4.291   0.369   7.177 -1.2814  1.2695  0.2227
  700TIP3    H223736   4.283   0.279   7.299 -1.4404 -0.1872 -0.8509
  701TIP3   OH223737   3.306   0.654   5.854 -0.6282 -0.4509 -0.0516
  701TIP3    H123738   3.397   0.624   5.860 -1.0316 -1.5355  0.6578
  701TIP3    H223739   3.264   0.591   5.796 -0.9938 -0.1064 -0.1584
  702TIP3   OH223740   4.840   3.767   6.964  0.3074  0.2620  0.3003
  702TIP3    H123741   4.875   3.817   6.890 -2.8315  0.0631 -1.4192
  702TIP3    H223742   4.917   3.729   7.006  2.2619  1.1800 -2.2955
  703TIP3   OH223743   1.919   0.351   1.091 -0.5129 -0.2455 -0.3576
  703TIP3    H123744   1.847   0.396   1.048 -1.6117 -2.0313 -0.4611
  703TIP3    H223745   1.983   0.334   1.021 -0.0229  1.2548 -0.2822
  704TIP3   OH223746   0.200   5.746   7.448 -0.0585  0.3867 -0.3565
  704TIP3    H123747   0.240   5.763   7.534  0.3285 -0.6255 -0.3320
  704TIP3    H223748   0.274   5.724   7.392 -0.6260 -2.5147 -0.0707
  705TIP3   OH223749   1.564   7.121   7.699 -0.3280  0.1976  0.2205
  705TIP3    H123750   1.478   7.136   7.738  0.8150  0.9770  2.5358
  705TIP3    H223751   1.595   7.040   7.740 -0.5329 -0.8751 -1.6747
  706TIP3   OH223752   4.933   0.964   7.033 -0.5660  0.0269 -0.5264
  706TIP3    H123753   4.907   0.966   7.125  0.9607 -0.0344 -0.0859
  706TIP3    H223754   4.977   1.047   7.018 -0.4117 -0.1516 -1.0817
  707TIP3   OH223755   1.049   6.168   7.398  0.3379 -0.3269 -0.4431
  707TIP3    H123756   1.051   6.123   7.482  1.6290 -1.5836 -1.1211
  707TIP3    H223757   1.083   6.104   7.336 -0.0056  0.8016 -1.8232
  708TIP3   OH223758   4.560   3.546   0.508  0.3274  0.4925 -0.0099
  708TIP3    H123759   4.543   3.628   0.463 -1.4315  0.0344 -0.2140
  708TIP3    H223760   4.526   3.559   0.596  0.5996  0.1951  0.1409
  709TIP3   OH223761   2.854   5.984   7.381  0.7460 -0.6157 -0.4648
  709TIP3    H123762   2.925   5.934   7.423  0.9064  0.9584  1.1758
  709TIP3    H223763   2.775   5.935   7.402  0.8920 -0.1685  1.1911
  710TIP3   OH223764   5.268   3.434   6.841 -0.0507 -0.3358  0.1628
  710TIP3    H123765   5.214   3.510   6.820 -0.2227  0.1248  2.1856
  710TIP3    H223766   5.348   3.447   6.790 -0.4603  0.6942 -0.2355
  711TIP3   OH223767   2.493   1.649   6.459  0.5000 -0.1069 -0.4382
  711TIP3    H123768   2.449   1.571   6.426  0.0254  0.2607 -0.6771
  711TIP3    H223769   2.538   1.685   6.383 -1.2106  1.1612 -0.8827
  712TIP3   OH223770   1.338   7.153   6.391  0.0884 -0.1888 -0.0287
  712TIP3    H123771   1.326   7.172   6.298 -0.2734  2.7128  0.5731
  712TIP3    H223772   1.251   7.126   6.422 -0.1674  0.4658 -0.1782
  713TIP3   OH223773   4.177   7.042   7.590 -0.5320  0.6254  0.0447
  713TIP3    H123774   4.166   6.998   7.506  1.2182  0.8501 -0.3204
  713TIP3    H223775   4.260   7.089   7.582  0.4148 -0.5649  2.4452
  714TIP3   OH223776   1.428   6.046   7.665 -0.0734  0.0016  0.2026
  714TIP3    H123777   1.401   6.138   7.673 -0.9374 -0.2923  0.7630
  714TIP3    H223778   1.438   6.016   7.756 -0.7758 -0.7415  0.0376
  715TIP3   OH223779   0.691   6.759   0.536  0.0174  0.1223  0.1924
  715TIP3    H123780   0.623   6.764   0.468 -0.8338  0.9060  1.0812
  715TIP3    H223781   0.690   6.668   0.565  1.0099 -0.4411 -1.4587
  716TIP3   OH223782   4.770   0.181   5.862 -0.1491  0.0026 -0.0594
  716TIP3    H123783   4.827   0.185   5.786 -0.5329  1.5071 -0.2849
  716TIP3    H223784   4.689   0.141   5.829 -0.2278  0.4302 -0.3936
  717TIP3   OH223785   0.777   4.230   0.195 -0.3046  0.7895 -0.3316
  717TIP3    H123786   0.756   4.318   0.227 -1.8155 -0.0762  1.1835
  717TIP3    H223787   0.800   4.181   0.274 -0.7631 -0.5126 -0.9770
  718TIP3   OH223788   0.616   5.367   6.306 -0.0031 -0.8653  0.0892
  718TIP3    H123789   0.536   5.351   6.257 -0.1115 -0.9495  0.2940
  718TIP3    H223790   0.683   5.379   6.238 -0.7688  2.4139 -0.1552
  719TIP3   OH223791   3.169   2.976   7.247  0.3646 -0.3689  0.0756
  719TIP3    H123792   3.206   2.944   7.165 -0.7782 -0.6598 -0.3399
  719TIP3    H223793   3.237   2.960   7.312  0.9176 -1.0012 -0.6477
  720TIP3   OH223794   5.860   0.464   6.964 -0.1631 -0.5352  0.1788
  720TIP3    H123795   5.868   0.395   7.030 -2.1579 -0.8948  0.0684
  720TIP3    H223796   5.816   0.422   6.891 -0.9514  0.7197 -0.0862
  721TIP3   OH223797   4.424   0.698   6.274 -0.3806 -0.7855  0.7927
  721TIP3    H123798   4.480   0.756   6.223 -2.4051  1.1659  0.6935
  721TIP3    H223799   4.430   0.614   6.229 -1.0246  0.5375 -1.8740
  722TIP3   OH223800   0.346   6.513   0.226 -0.0184 -0.0140  0.5312
  722TIP3    H123801   0.332   6.443   0.162  1.1176 -0.1923  0.4660
  722TIP3    H223802   0.337   6.469   0.311  1.8996 -0.5243  0.5010
  723TIP3   OH223803   3.794   5.354   0.983  0.1499  0.0451  0.0886
  723TIP3    H123804   3.788   5.440   1.025 -1.3046  0.3109 -0.6562
  723TIP3    H223805   3.706   5.336   0.953  0.7214 -1.1570 -0.8800
  724TIP3   OH223806   1.613   1.287   6.447  0.2159  0.0899  0.2533
  724TIP3    H123807   1.631   1.349   6.377 -1.9802 -0.0622 -0.4887
  724TIP3    H223808   1.587   1.207   6.401 -1.1433 -0.0410  1.2232
  725TIP3   OH223809   1.689   3.114   0.754 -0.4444  0.1717 -0.0864
  725TIP3    H123810   1.742   3.081   0.682 -0.7745  3.1237 -1.7632
  725TIP3    H223811   1.632   3.041   0.778 -0.3564 -0.8563 -2.8412
  726TIP3   OH223812   2.997   0.158   7.650  0.3248  0.8307 -0.6768
  726TIP3    H123813   3.057   0.083   7.653  2.0448  2.2430  2.4677
  726TIP3    H223814   3.032   0.215   7.583  1.8430  1.1005  0.3402
  727TIP3   OH223815   2.932   2.289   7.360  0.0060 -0.4139  0.8212
  727TIP3    H123816   2.907   2.199   7.337 -0.6468  0.1195 -0.5983
  727TIP3    H223817   2.858   2.321   7.411 -0.9604  0.1682 -0.8818
  728TIP3   OH223818   6.129   5.779   1.124 -0.3486 -0.1568 -0.1140
  728TIP3    H123819   6.060   5.805   1.062 -0.3431 -0.4227 -0.2356
  728TIP3    H223820   6.087   5.784   1.210 -0.5391 -0.3707 -0.1926
  729TIP3   OH223821   4.604   5.968   7.180  0.0870  0.1482 -0.6986
  729TIP3    H123822   4.670   6.034   7.159  0.0444  0.5768  0.4284
  729TIP3    H223823   4.535   6.018   7.224 -0.2413 -0.5495 -0.4259
  730TIP3   OH223824   2.794   0.548   6.474 -0.6793  0.1427  0.1315
  730TIP3    H123825   2.722   0.600   6.438 -1.6212 -1.7756 -0.8671
  730TIP3    H223826   2.779   0.460   6.439  1.3415 -0.6105  1.0951
  731TIP3   OH223827   1.238   5.760   7.860  0.4590 -0.2990  0.1073
  731TIP3    H123828   1.293   5.698   7.908  0.2098  0.1907  1.0526
  731TIP3    H223829   1.289   5.841   7.858  0.4770 -0.3283 -0.4796
  732TIP3   OH223830   0.914   1.203   7.192 -0.0571 -0.7303  0.7444
  732TIP3    H123831   0.931   1.257   7.269 -1.0619 -0.6252  0.9013
  732TIP3    H223832   0.860   1.131   7.225 -2.1743  0.3899 -0.2215
  733TIP3   OH223833   4.349   0.132   6.443 -0.1496 -0.5892 -0.5585
  733TIP3    H123834   4.414   0.201   6.437  0.3372 -0.9828  0.2080
  733TIP3    H223835   4.312   0.127   6.354  1.8598 -1.3280 -1.3880
  734TIP3   OH223836   2.348   2.412   6.812  0.3355 -0.5364  0.2827
  734TIP3    H123837   2.437   2.375   6.814 -0.2721 -1.9713  1.6251
  734TIP3    H223838   2.296   2.347   6.764 -0.1226  0.0290  0.0050
  735TIP3   OH223839   4.541   2.097   0.626  0.2505 -0.7123 -0.5027
  735TIP3    H123840   4.618   2.103   0.682  1.3055 -0.6488 -1.9639
  735TIP3    H223841   4.568   2.043   0.552 -1.1089 -0.7013 -1.0285
  736TIP3   OH223842   2.690   2.590   6.897  0.8081  0.1027  0.2418
  736TIP3    H123843   2.612   2.645   6.886  1.3684  0.7709 -0.4646
  736TIP3    H223844   2.658   2.512   6.942  0.1296  1.3086  1.8875
  737TIP3   OH223845   5.962   3.793   8.030 -0.0803  0.2211 -0.0024
  737TIP3    H123846   5.899   3.817   7.962  0.3639  0.8366 -0.1979
  737TIP3    H223847   6.030   3.745   7.983 -0.3372 -0.3386  0.1902
  738TIP3   OH223848   3.697   0.217   0.756  0.2594  0.0702  0.2312
  738TIP3    H123849   3.730   0.300   0.791 -0.7975  0.2201  0.8684
  738TIP3    H223850   3.713   0.153   0.825 -1.5897  0.3163  0.9031
  739TIP3   OH223851   4.308   2.101   6.581 -0.6539  0.2518  0.0505
  739TIP3    H123852   4.396   2.065   6.592 -1.1682 -0.8993  0.4737
  739TIP3    H223853   4.322   2.185   6.537  0.7030  0.3732  0.6723
  740TIP3   OH223854   4.597   2.389   7.088 -0.4319 -0.2819  0.9361
  740TIP3    H123855   4.565   2.303   7.062 -0.5364 -0.2734  1.0363
  740TIP3    H223856   4.525   2.448   7.068 -0.1909 -0.1509  0.4426
  741TIP3   OH223857   3.957   3.115   6.691  0.3807  0.7999  0.4732
  741TIP3    H123858   3.942   3.025   6.663 -0.5454  1.5811 -1.6330
  741TIP3    H223859   4.028   3.109   6.756 -0.1383 -1.4922  0.8396
  742TIP3   OH223860   3.297   0.803   7.360 -0.0111  0.5487 -0.2727
  742TIP3    H123861   3.238   0.849   7.301 -0.6102  1.1866  0.8143
  742TIP3    H223862   3.384   0.839   7.340 -0.5914  2.8945  1.2453
  743TIP3   OH223863   0.292   2.191   1.914 -0.1978 -0.3456  0.6988
  743TIP3    H123864   0.213   2.166   1.961 -0.3357 -0.3346  0.4709
  743TIP3    H223865   0.299   2.285   1.927 -0.9604 -0.1262 -0.4124
  744TIP3   OH223866   3.276   1.014   6.519  0.4694 -0.4242  0.3583
  744TIP3    H123867   3.321   0.936   6.553 -0.4313 -0.0784  2.4505
  744TIP3    H223868   3.336   1.050   6.454  1.2580 -2.4140 -0.0538
  745TIP3   OH223869   6.554   3.022   6.743 -0.0865 -0.1444  0.8097
  745TIP3    H123870   6.570   2.995   6.653  2.6538  1.0167  0.9057
  745TIP3    H223871   6.524   2.942   6.787 -1.4505 -0.7210 -1.0875
  746TIP3   OH223872   0.371   1.762   7.923  0.1371  0.0660 -0.0520
  746TIP3    H123873   0.329   1.802   7.999 -0.7530 -0.8556 -0.0474
  746TIP3    H223874   0.310   1.695   7.895  1.0351 -0.4322 -0.8365
  747TIP3   OH223875   3.594   1.161   6.545  0.1400 -0.3569  0.1517
  747TIP3    H123876   3.681   1.141   6.509  0.3944  0.1114  0.5018
  747TIP3    H223877   3.539   1.177   6.468  1.1713  2.6931 -0.0158
  748TIP3   OH223878   3.262   2.014   6.679 -0.7592  0.3379 -0.1667
  748TIP3    H123879   3.278   2.080   6.611 -1.6655 -0.2263 -0.9445
  748TIP3    H223880   3.176   1.979   6.658  0.6246 -2.6965 -1.1517
  749TIP3   OH223881   6.253   6.010   8.096  0.2208 -0.5380  0.9195
  749TIP3    H123882   6.290   5.921   8.095  0.2135 -0.5326  0.2892
  749TIP3    H223883   6.181   6.007   8.033  1.9621  0.6487 -1.1889
  750TIP3   OH223884   5.055   1.592   6.159  0.4261 -0.1730 -0.0621
  750TIP3    H123885   5.146   1.575   6.184 -0.2057 -0.8276  1.8468
  750TIP3    H223886   5.019   1.641   6.233 -1.4105 -1.9281  0.2264
  751TIP3   OH223887   0.228   1.420   7.449  0.5101  0.4384  0.3821
  751TIP3    H123888   0.261   1.508   7.434  0.0049  0.5033 -0.3656
  751TIP3    H223889   0.306   1.366   7.458  0.8186  0.8300  0.0628
  752TIP3   OH223890   4.094   4.016   1.100  0.0580  0.1033 -0.2307
  752TIP3    H123891   4.023   4.040   1.041 -0.1438 -1.2502 -0.5507
  752TIP3    H223892   4.162   4.081   1.083 -0.6602  0.7267 -0.7323
  753TIP3   OH223893   6.808   2.753   6.819  0.8920  0.3493 -0.4085
  753TIP3    H123894   6.813   2.693   6.745 -0.7313  0.4805 -0.6270
  753TIP3    H223895   6.722   2.738   6.857  1.8442  0.0294  1.6773
  754TIP3   OH223896   5.213   4.747   1.718  0.6032  0.3700 -0.1179
  754TIP3    H123897   5.127   4.762   1.680  0.5687  0.8491  0.1477
  754TIP3    H223898   5.258   4.692   1.654 -0.9482 -2.4551  1.1034
  755TIP3   OH223899   2.233   5.042   6.887  0.2720 -0.1203  0.3561
  755TIP3    H123900   2.240   5.136   6.871  0.0577 -0.1765 -0.0723
  755TIP3    H223901   2.282   5.002   6.816 -0.8358 -0.3770 -0.2716
  756TIP3   OH223902   3.919   5.621   6.691 -0.0864 -0.0332  0.1217
  756TIP3    H123903   3.933   5.704   6.738 -1.3007  1.4215 -2.0000
  756TIP3    H223904   3.824   5.607   6.696 -0.1158 -0.3011 -1.1535
  757TIP3   OH223905   4.190   6.405   6.609  0.2385 -0.3088  0.5159
  757TIP3    H123906   4.160   6.473   6.669  1.7439  0.9865 -0.1500
  757TIP3    H223907   4.116   6.389   6.550 -0.0057  1.0256  0.4520
  758TIP3   OH223908   6.792   4.119   7.804 -0.1156 -0.0026  0.0781
  758TIP3    H123909   6.717   4.073   7.767  1.6304  0.1195 -3.9123
  758TIP3    H223910   6.866   4.060   7.787  1.3269  1.8262 -0.1147
  759TIP3   OH223911   5.408   2.051   6.565 -0.2069 -0.0100  0.3454
  759TIP3    H123912   5.414   1.986   6.495 -0.9066  0.9383 -0.6199
  759TIP3    H223913   5.474   2.024   6.628 -1.6066 -2.5944  0.7772
  760TIP3   OH223914   5.830   2.577   7.246 -0.2186 -0.3255 -0.3543
  760TIP3    H123915   5.877   2.498   7.274  0.8452  0.7463  0.9468
  760TIP3    H223916   5.741   2.546   7.229  0.1691 -1.8028  0.1716
  761TIP3   OH223917   4.505   0.584   0.512 -0.2604  0.5354  0.3265
  761TIP3    H123918   4.550   0.640   0.575 -0.8526  1.0472  0.2994
  761TIP3    H223919   4.477   0.508   0.563  0.7081  0.1693  0.3222
  762TIP3   OH223920   4.272   0.115   1.698 -0.4057  0.1988  0.8261
  762TIP3    H123921   4.195   0.058   1.701 -0.2744  0.0203  0.8455
  762TIP3    H223922   4.341   0.065   1.742 -0.1797  0.2011  0.4851
  763TIP3   OH223923   3.986   0.488   6.892 -0.1296  0.1690  0.0053
  763TIP3    H123924   3.978   0.523   6.803  0.6126  1.2555  0.3563
  763TIP3    H223925   3.956   0.398   6.885 -1.1463  0.5855 -1.1216
  764TIP3   OH223926   6.600   4.349   0.521  0.2215 -0.1452  0.1064
  764TIP3    H123927   6.611   4.411   0.449  2.0200  0.8574  1.2099
  764TIP3    H223928   6.573   4.402   0.596 -1.9582 -1.2209  0.1346
  765TIP3   OH223929   3.911   1.739   7.715  0.5219  0.0049  0.9849
  765TIP3    H123930   3.939   1.825   7.686  0.3761  0.2642  1.6171
  765TIP3    H223931   3.834   1.720   7.661  1.6350 -0.5341 -0.4543
  766TIP3   OH223932   3.668   2.620   7.795  0.0251 -0.3190 -0.0356
  766TIP3    H123933   3.594   2.589   7.743 -1.1388 -0.9161  1.9322
  766TIP3    H223934   3.627   2.665   7.869  1.6443  0.0223  0.6599
  767TIP3   OH223935   6.454   5.278   7.996  0.1285  0.6002  0.0650
  767TIP3    H123936   6.369   5.313   7.969 -0.4825  1.8669  3.4942
  767TIP3    H223937   6.436   5.187   8.022 -0.1415  0.8348  0.6878
  768TIP3   OH223938   4.840   4.602   0.517 -0.2906 -0.6691 -0.6844
  768TIP3    H123939   4.930   4.568   0.514 -0.5413 -1.3958 -0.0910
  768TIP3    H223940   4.817   4.617   0.426  0.2087 -1.0812 -0.8811
  769TIP3   OH223941   6.337   5.419   7.616 -0.3868 -0.3503 -0.0346
  769TIP3    H123942   6.297   5.401   7.701  1.3311 -0.7180  0.7133
  769TIP3    H223943   6.431   5.410   7.631 -0.1198 -1.5880 -2.2648
  770TIP3   OH223944   5.116   0.500   5.794 -0.6948 -0.5921 -0.4020
  770TIP3    H123945   5.179   0.537   5.733  0.0416 -0.3105  0.5353
  770TIP3    H223946   5.141   0.408   5.802 -0.5809 -0.5503 -0.2667
  771TIP3   OH223947   0.763   1.279   6.889  0.1008 -0.1352 -0.5197
  771TIP3    H123948   0.682   1.312   6.849  0.4040 -0.0181 -1.0275
  771TIP3    H223949   0.748   1.185   6.898 -0.9413  0.1729  1.3299
  772TIP3   OH223950   5.128   6.196   0.529  0.4068  0.5540  0.0802
  772TIP3    H123951   5.110   6.204   0.435 -1.1617  0.7770  0.3747
  772TIP3    H223952   5.204   6.139   0.535 -0.9471 -1.4400 -1.2433
  773TIP3   OH223953   3.622   1.661   1.095 -0.1589  0.1058 -0.0336
  773TIP3    H123954   3.622   1.726   1.166  1.0619 -0.6787  0.7024
  773TIP3    H223955   3.708   1.670   1.054  0.1010 -1.1841  0.2105
  774TIP3   OH223956   2.407   4.000   6.745 -0.0770 -0.1028  0.3961
  774TIP3    H123957   2.403   4.088   6.707 -1.6612 -0.6058 -0.6739
  774TIP3    H223958   2.315   3.976   6.759  0.3458 -1.5663  0.7328
  775TIP3   OH223959   4.841   1.160   6.801 -1.0553  0.2547 -0.1014
  775TIP3    H123960   4.877   1.074   6.781  0.1124  0.7277 -0.0703
  775TIP3    H223961   4.903   1.198   6.862 -0.6679  1.7895 -1.4176
  776TIP3   OH223962   4.118   3.326   0.112 -0.4688 -0.3812 -0.1606
  776TIP3    H123963   4.030   3.315   0.148 -0.3332 -0.7192  0.0745
  776TIP3    H223964   4.175   3.327   0.189 -0.2728 -0.1043 -0.3088
  777TIP3   OH223965   6.403   2.735   0.292 -0.1903 -0.3481  0.2313
  777TIP3    H123966   6.483   2.711   0.244  0.8631  1.0093  1.2826
  777TIP3    H223967   6.333   2.687   0.247  1.1652 -1.2978 -0.9059
  778TIP3   OH223968   5.624   6.995   1.127 -0.3058  0.2122  0.6603
  778TIP3    H123969   5.644   7.081   1.091 -0.6372  0.3009  0.6815
  778TIP3    H223970   5.539   7.006   1.170 -0.7749 -0.3481 -0.1216
  779TIP3   OH223971   5.134   4.338   6.661 -0.1144 -0.0861 -0.2748
  779TIP3    H123972   5.205   4.274   6.660 -0.4191 -0.4270 -0.9496
  779TIP3    H223973   5.130   4.368   6.752  0.0028 -1.0699  0.0660
  780TIP3   OH223974   3.736   0.127   5.803  0.5190  0.1291  0.4431
  780TIP3    H123975   3.709   0.218   5.799  0.8110  0.1238 -2.0541
  780TIP3    H223976   3.663   0.082   5.845  0.5023  1.5259  1.9569
  781TIP3   OH223977   4.823   4.127   0.056  0.1697 -0.5935 -0.5411
  781TIP3    H123978   4.820   4.161  -0.033 -1.5854 -0.8008 -0.5706
  781TIP3    H223979   4.892   4.060   0.054 -0.2456 -0.9839 -1.8640
  782TIP3   OH223980   3.234   7.003   7.567  0.4135 -0.9168  0.0011
  782TIP3    H123981   3.235   7.091   7.531 -1.0628 -0.5158  0.9096
  782TIP3    H223982   3.313   6.998   7.621 -0.6441  0.6234  1.7323
  783TIP3   OH223983   1.113   6.314   1.218  0.0119 -0.2585  0.0688
  783TIP3    H123984   1.154   6.328   1.303 -0.6151  0.3064  0.2788
  783TIP3    H223985   1.022   6.295   1.238  0.1377 -1.4497 -0.4014
  784TIP3   OH223986   4.159   1.176   0.640 -0.1449 -0.0874  0.5268
  784TIP3    H123987   4.138   1.118   0.567 -0.0464 -1.3412  1.4828
  784TIP3    H223988   4.169   1.262   0.600 -0.6178 -0.6687 -0.8617
  785TIP3   OH223989   3.867   0.710   1.180 -0.4573 -0.0728 -0.1973
  785TIP3    H123990   3.792   0.686   1.234  0.5782 -0.8343  0.9288
  785TIP3    H223991   3.930   0.639   1.192  0.6740  0.8130 -0.6949
  786TIP3   OH223992   0.411   4.966   8.114  0.6403 -0.5047  0.1209
  786TIP3    H123993   0.406   5.025   8.188 -1.7039  0.1493 -0.5231
  786TIP3    H223994   0.403   4.878   8.152  1.4019 -0.2824  0.8088
  787TIP3   OH223995   6.388   1.451   7.710 -0.7511  0.1644  0.5476
  787TIP3    H123996   6.337   1.442   7.630  0.0436 -0.1081  0.0612
  787TIP3    H223997   6.388   1.364   7.749 -0.1938  0.0296  0.2543
  788TIP3   OH223998   4.429   1.007   0.540  0.3446  0.0961  0.2441
  788TIP3    H123999   4.388   0.938   0.488 -0.7806 -0.0125  1.2314
  788TIP3    H224000   4.389   1.088   0.507  0.6134  0.1432  0.0387
  789TIP3   OH224001   2.205   6.111   6.916  0.1920  0.2087 -0.3514
  789TIP3    H124002   2.286   6.147   6.880  1.4193 -2.3179 -0.2433
  789TIP3    H224003   2.172   6.053   6.848 -0.9916  0.4273  0.0198
  790TIP3   OH224004   5.987   0.632   6.586 -0.3086 -0.0781 -0.2269
  790TIP3    H124005   5.901   0.592   6.601 -0.3209  0.0357 -0.0018
  790TIP3    H224006   6.001   0.621   6.492  0.2743 -1.8005  0.0392
  791TIP3   OH224007   6.199   6.233   7.663  0.3706  0.1899 -0.1001
  791TIP3    H124008   6.217   6.323   7.636 -2.3883  0.8984  0.2813
  791TIP3    H224009   6.180   6.239   7.757 -0.3624 -0.6986 -0.1793
  792TIP3   OH224010   3.413   1.639   5.832  0.4027  0.0204 -0.1575
  792TIP3    H124011   3.346   1.703   5.812  0.0951 -0.1408  0.3436
  792TIP3    H224012   3.440   1.660   5.922  1.8273  0.8028 -0.7524
  793TIP3   OH224013   6.119   0.391   6.326 -0.2659  0.0948  0.1188
  793TIP3    H124014   6.107   0.365   6.234 -0.9864  0.7756  0.0115
  793TIP3    H224015   6.072   0.475   6.333 -0.4952 -0.1184  1.1856
  794TIP3   OH224016   6.393   6.634   7.232  1.0404  0.0401 -0.0975
  794TIP3    H124017   6.377   6.729   7.236  2.8339  0.3526  0.1938
  794TIP3    H224018   6.375   6.611   7.141  1.4319  0.8163 -0.3776
  795TIP3   OH224019   5.702   6.224   6.728 -0.0962 -0.4838  0.1183
  795TIP3    H124020   5.628   6.174   6.693  2.0165 -2.1245 -2.2067
  795TIP3    H224021   5.764   6.229   6.655  0.5635  4.0515  0.8279
  796TIP3   OH224022   5.498   6.256   7.493 -0.8139  0.0754  0.4062
  796TIP3    H124023   5.466   6.278   7.581 -1.2984  0.9757  0.0190
  796TIP3    H224024   5.477   6.334   7.441 -1.3299 -0.8003 -0.7030
  797TIP3   OH224025   7.041   5.898   6.835 -0.4040 -0.5688 -0.6631
  797TIP3    H124026   6.971   5.962   6.822  2.0428  2.3033 -0.2443
  797TIP3    H224027   7.075   5.916   6.923  0.8289 -1.9354 -0.8298
  798TIP3   OH224028   3.525   4.914   7.534 -0.4100 -0.1324  0.6001
  798TIP3    H124029   3.486   4.881   7.614  0.2603  0.1481  1.0489
  798TIP3    H224030   3.620   4.910   7.549 -0.2996  2.8487  1.0518
  799TIP3   OH224031   5.186   4.101   0.820 -0.2709 -0.1260  0.0097
  799TIP3    H124032   5.137   4.104   0.738 -0.8860  0.5981  0.3954
  799TIP3    H224033   5.143   4.165   0.876  0.6174 -0.0661  0.6402
  800TIP3   OH224034   0.932   0.567   7.679  0.4428  0.1733  0.8598
  800TIP3    H124035   0.977   0.648   7.655 -0.5697  0.5872  0.3175
  800TIP3    H224036   0.844   0.595   7.703  0.1855 -0.7355  0.9910
  801TIP3   OH224037   5.677   5.021   6.687  0.2539 -0.4294  0.1311
  801TIP3    H124038   5.750   4.959   6.690  1.4753  1.0254  1.0076
  801TIP3    H224039   5.598   4.966   6.693  1.2414 -2.0276 -1.0911
  802TIP3   OH224040   2.387   3.464   7.908 -0.2356 -0.2700 -0.8591
  802TIP3    H124041   2.322   3.483   7.840 -1.7476  0.4901  0.7450
  802TIP3    H224042   2.358   3.515   7.984  2.0896 -0.1459 -0.0033
  803TIP3   OH224043   4.054   1.549   0.468  0.5945 -0.4951  0.0322
  803TIP3    H124044   4.064   1.635   0.429 -0.2597 -0.0719  0.7200
  803TIP3    H224045   4.118   1.494   0.422  2.1436  0.8152  0.5616
  804TIP3   OH224046   6.249   4.093   6.193  0.3081  0.4569 -0.0099
  804TIP3    H124047   6.190   4.022   6.218  0.3852  0.6351  0.6986
  804TIP3    H224048   6.229   4.163   6.256  1.0440  0.6370  0.0189
  805TIP3   OH224049   5.632   1.945   5.642 -0.4219 -0.5446  0.1456
  805TIP3    H124050   5.564   1.984   5.588  0.5374  1.0802  0.0779
  805TIP3    H224051   5.588   1.924   5.724 -0.7748  1.5493  0.5329
  806TIP3   OH224052   5.247   1.216   1.262  0.4199 -0.0500 -0.3094
  806TIP3    H124053   5.192   1.141   1.283 -0.4224  1.4022  3.1479
  806TIP3    H224054   5.334   1.191   1.294  0.3729 -0.0051 -0.1419
  807TIP3   OH224055   1.895   6.246   1.750 -0.2322 -0.6838  0.1031
  807TIP3    H124056   1.937   6.320   1.706  0.3421 -1.8055 -1.2571
  807TIP3    H224057   1.838   6.287   1.815  2.5394  0.8888  1.6364
  808TIP3   OH224058   7.015   3.302   1.163  0.9059 -0.1428  0.2229
  808TIP3    H124059   6.966   3.296   1.081  1.6433 -0.7726 -0.1754
  808TIP3    H224060   6.951   3.281   1.231  0.2915  0.3957 -0.1889
  809TIP3   OH224061   2.666   5.848   6.240 -0.0846  0.2643 -0.5371
  809TIP3    H124062   2.733   5.889   6.296 -0.3984  0.0292  0.0163
  809TIP3    H224063   2.659   5.906   6.165 -0.1698  0.9678  0.0091
  810TIP3   OH224064   2.375   1.439   0.969 -1.0190 -0.2945 -0.5271
  810TIP3    H124065   2.285   1.422   0.942 -0.6869  1.3044 -2.7186
  810TIP3    H224066   2.420   1.463   0.889  1.3233 -0.8127  0.5977
  811TIP3   OH224067   2.317   0.996   7.555  0.0220 -0.0755 -0.1392
  811TIP3    H124068   2.260   0.937   7.604  0.8141 -0.7065  0.0269
  811TIP3    H224069   2.285   0.992   7.465 -1.5358  1.2018  0.3342
  812TIP3   OH224070   4.754   0.785   6.427 -0.3022 -0.0080 -0.0098
  812TIP3    H124071   4.728   0.802   6.518  1.7633 -1.1910  0.8355
  812TIP3    H224072   4.720   0.697   6.409 -0.2316  0.0047 -0.2059
  813TIP3   OH224073   1.805   5.994   0.113  0.1014  0.1356  0.1695
  813TIP3    H124074   1.792   5.917   0.058  0.4809  0.3842 -0.2797
  813TIP3    H224075   1.850   5.962   0.190 -1.4356 -0.4115  0.8576
  814TIP3   OH224076   6.452   0.334   7.815  0.1158 -0.7729  0.7433
  814TIP3    H124077   6.356   0.331   7.825  0.0997 -1.6912  0.3202
  814TIP3    H224078   6.467   0.418   7.770 -0.5591 -0.9815  0.1090
  815TIP3   OH224079   6.205   1.595   7.026 -0.1276  0.4322  0.3560
  815TIP3    H124080   6.158   1.679   7.024 -0.9697 -0.0031  1.3530
  815TIP3    H224081   6.295   1.618   7.004 -0.2354  1.6951  1.1508
  816TIP3   OH224082   6.370   6.443   0.761  0.3641  0.4877  0.3048
  816TIP3    H124083   6.388   6.515   0.701 -2.4916  0.7206 -0.3468
  816TIP3    H224084   6.335   6.373   0.706  1.5456 -0.7877  1.1557
  817TIP3   OH224085   1.226   1.579   8.069  0.1247 -0.1541 -0.2276
  817TIP3    H124086   1.271   1.662   8.058 -0.8208  0.1729 -1.9225
  817TIP3    H224087   1.189   1.582   8.157  0.6957  0.9165 -0.0233
  818TIP3   OH224088   6.806   2.352   6.767 -0.2431 -0.2496 -0.3728
  818TIP3    H124089   6.805   2.256   6.762  0.9929 -0.2513 -0.7552
  818TIP3    H224090   6.749   2.372   6.841 -0.9060 -1.2562 -0.5905
  819TIP3   OH224091   4.064   1.287   6.681  0.5147 -0.2028 -0.2177
  819TIP3    H124092   4.083   1.275   6.588 -1.2476 -0.9907 -0.4930
  819TIP3    H224093   3.977   1.327   6.683  0.9240  0.6341  1.0729
  820TIP3   OH224094   0.347   3.127   7.414 -0.1672  0.0332 -0.6123
  820TIP3    H124095   0.403   3.052   7.434  0.8886  0.5772 -1.4656
  820TIP3    H224096   0.273   3.090   7.367  0.0645 -0.5532 -0.5147
  821TIP3   OH224097   0.841   3.011   7.426  0.6762 -0.5190  0.1907
  821TIP3    H124098   0.911   2.976   7.372  1.0919 -0.7519  0.8734
  821TIP3    H224099   0.770   3.030   7.365  1.1772 -0.6901 -0.4410
  822TIP3   OH224100   4.547   5.442   6.354  0.0634  0.3444  0.2231
  822TIP3    H124101   4.547   5.393   6.436  1.2536 -2.1238 -1.1948
  822TIP3    H224102   4.465   5.416   6.310  1.1744 -1.1856 -0.9770
  823TIP3   OH224103   0.952   0.788   5.924  0.5029 -0.3406 -0.1060
  823TIP3    H124104   0.920   0.873   5.892  0.0165 -0.3610  0.3159
  823TIP3    H224105   0.877   0.730   5.916  0.6345 -0.5619  0.2554
  824TIP3   OH224106   4.434   6.925   6.683 -0.1127 -0.1670  0.3900
  824TIP3    H124107   4.348   6.901   6.719 -0.0207  0.7994  1.2818
  824TIP3    H224108   4.493   6.856   6.714 -0.5844 -0.9235 -0.3573
  825TIP3   OH224109   1.389   5.543   6.980  0.4574 -0.2091 -0.3916
  825TIP3    H124110   1.390   5.529   6.885 -0.3088  0.6263 -0.5211
  825TIP3    H224111   1.442   5.470   7.014 -0.3012 -1.2408 -1.3574
  826TIP3   OH224112   7.005   6.662   7.922 -0.0373  0.7315  0.8339
  826TIP3    H124113   7.079   6.603   7.937 -0.9580 -0.4193  0.9326
  826TIP3    H224114   7.025   6.706   7.840  0.8129  0.5259  0.9288
  827TIP3   OH224115   1.494   0.397   7.842 -0.5561 -0.2469  0.8722
  827TIP3    H124116   1.412   0.378   7.889 -1.0128 -0.4954 -0.0157
  827TIP3    H224117   1.558   0.413   7.911 -0.4221 -3.7959  1.6813
  828TIP3   OH224118   0.709   4.330   7.495 -0.1579 -0.1896  0.3062
  828TIP3    H124119   0.692   4.279   7.416  0.6980 -0.4548  0.2898
  828TIP3    H224120   0.625   4.330   7.542 -0.8241  0.4403 -0.8602
  829TIP3   OH224121   4.713   0.530   1.096 -0.3358  0.3932  0.0550
  829TIP3    H124122   4.749   0.472   1.029  0.6000  1.3356 -0.2657
  829TIP3    H224123   4.624   0.549   1.067  0.7055  2.3774 -1.9647
  830TIP3   OH224124   5.029   2.173   6.882 -0.3325  0.4970  0.0596
  830TIP3    H124125   5.028   2.084   6.917 -2.1776  0.8314  0.9113
  830TIP3    H224126   5.107   2.176   6.827 -0.5554 -1.8053 -0.4261
  831TIP3   OH224127   1.694   4.762   7.831  0.0234 -0.1912 -0.0293
  831TIP3    H124128   1.606   4.735   7.859  0.2095 -0.2470  0.5054
  831TIP3    H224129   1.683   4.854   7.806 -0.4338 -0.5182 -1.0690
  832TIP3   OH224130   4.953   0.234   8.104  0.6287 -0.0378 -0.1370
  832TIP3    H124131   5.020   0.298   8.079  0.1225  0.6620  0.2677
  832TIP3    H224132   5.002   0.162   8.143  1.1493  0.4847  0.1958
  833TIP3   OH224133   4.579   5.925   6.713 -0.0418 -0.2913 -0.1524
  833TIP3    H124134   4.633   5.880   6.648  0.5386 -0.1791  0.2407
  833TIP3    H224135   4.604   6.017   6.706 -1.4738  0.0279 -1.1913
  834TIP3   OH224136   5.289   1.354   5.917  0.6408  0.5400 -0.6774
  834TIP3    H124137   5.333   1.387   5.838  0.5356 -0.8848 -1.3421
  834TIP3    H224138   5.318   1.263   5.924 -0.7717  0.1320 -0.0836
  835TIP3   OH224139   4.339   2.342   6.459 -0.0571 -0.3057  0.1884
  835TIP3    H124140   4.273   2.348   6.390  0.3997  0.8729 -0.1740
  835TIP3    H224141   4.364   2.433   6.475 -0.6693 -0.5155  2.4233
  836TIP3   OH224142   0.452   6.366   0.719 -0.2397  0.2303  0.1460
  836TIP3    H124143   0.473   6.275   0.699 -0.1376  0.5949 -1.4431
  836TIP3    H224144   0.430   6.365   0.812 -1.0950 -1.5689 -0.0554
  837TIP3   OH224145   5.310   0.778   1.796  0.2247  0.2132 -0.0378
  837TIP3    H124146   5.397   0.746   1.816 -0.0262 -0.1456  0.4936
  837TIP3    H224147   5.254   0.740   1.863 -0.0479  1.9402  0.7491
  838TIP3   OH224148   4.613   6.708   0.192 -0.0030 -0.2014  0.4551
  838TIP3    H124149   4.576   6.780   0.141 -1.3108 -1.1619  0.0289
  838TIP3    H224150   4.708   6.721   0.187 -0.2477  3.0630  2.6753
  839TIP3   OH224151   5.371   6.754   5.959 -0.1936 -0.7614 -0.1221
  839TIP3    H124152   5.312   6.706   5.901 -2.2603  1.3032  0.1898
  839TIP3    H224153   5.415   6.687   6.010 -2.3375 -2.3628 -0.3205
  840TIP3   OH224154   5.659   1.059   6.516 -0.2902 -0.3583 -0.5651
  840TIP3    H124155   5.584   1.090   6.466 -1.7572 -1.1901  1.0726
  840TIP3    H224156   5.689   1.136   6.565  0.2659  0.1004 -1.6144
  841TIP3   OH224157   6.633   7.074   7.818 -0.8245  0.4651  0.6828
  841TIP3    H124158   6.648   6.990   7.862  0.2264  0.2004 -0.1530
  841TIP3    H224159   6.589   7.128   7.884 -1.0981 -0.5906  1.3802
  842TIP3   OH224160   5.197   2.608   6.521 -0.2054  0.7838  0.4451
  842TIP3    H124161   5.268   2.613   6.457 -0.3901 -0.5768  0.1080
  842TIP3    H224162   5.122   2.575   6.471 -0.9793  1.8594  0.8778
  843TIP3   OH224163   3.528   4.456   6.413 -0.0538  0.0845 -0.5542
  843TIP3    H124164   3.534   4.549   6.436 -3.4703 -0.1937  1.8817
  843TIP3    H224165   3.492   4.454   6.325 -1.0401  1.1087 -0.1859
  844TIP3   OH224166   5.021   0.003   0.823  0.3524 -0.3645  0.3025
  844TIP3    H124167   4.929   0.028   0.812  0.7234  0.8592 -0.1229
  844TIP3    H224168   5.056   0.068   0.885  0.8138 -1.0932  0.8047
  845TIP3   OH224169   5.760   0.890   7.027  0.1232  0.3641  0.3778
  845TIP3    H124170   5.833   0.899   7.089  1.1400  1.0848 -0.8908
  845TIP3    H224171   5.800   0.848   6.950 -0.7718  0.8976 -0.3825
  846TIP3   OH224172   1.851   6.730   7.778  0.1045  0.3728  0.2751
  846TIP3    H124173   1.916   6.795   7.805  0.4109 -0.0083  0.4573
  846TIP3    H224174   1.768   6.778   7.776  0.4823  1.0122 -0.5515
  847TIP3   OH224175   5.286   5.454   6.958 -0.2178 -0.8179 -0.1740
  847TIP3    H124176   5.244   5.408   7.030 -3.5961  2.0409 -0.2013
  847TIP3    H224177   5.338   5.523   7.001 -0.5304 -0.4412 -0.4047
  848TIP3   OH224178   0.462   0.465   7.049  0.4530  0.2853 -0.1713
  848TIP3    H124179   0.547   0.427   7.027 -0.1760 -1.6610  0.5894
  848TIP3    H224180   0.465   0.477   7.144 -0.1819  0.0465 -0.1191
  849TIP3   OH224181   4.310   6.223   0.991 -0.5308  0.1511  0.3326
  849TIP3    H124182   4.233   6.267   0.954 -0.6083  0.8288  1.2778
  849TIP3    H224183   4.290   6.215   1.084  0.8484  0.9539  0.6998
  850TIP3   OH224184   5.074   0.823   1.084 -0.1822 -0.1918 -0.4371
  850TIP3    H124185   5.051   0.829   0.992 -1.9471 -0.2456 -0.0202
  850TIP3    H224186   5.169   0.838   1.087  0.2497 -2.3852 -2.4631
  851TIP3   OH224187   2.929   3.445   0.951 -0.0902  0.2073 -0.0331
  851TIP3    H124188   2.938   3.355   0.920 -0.6970 -0.3055  1.2626
  851TIP3    H224189   3.013   3.464   0.993 -0.0720  0.1441 -0.0419
  852TIP3   OH224190   5.224   0.833   6.305  0.1697  0.0613  0.0259
  852TIP3    H124191   5.215   0.839   6.210  1.8260 -0.3426 -0.1798
  852TIP3    H224192   5.254   0.743   6.320  1.2540  0.5393  0.7989
  853TIP3   OH224193   5.559   0.905   1.613  0.7832 -0.1998  0.1596
  853TIP3    H124194   5.574   0.839   1.681  0.3071 -0.9308 -0.4423
  853TIP3    H224195   5.635   0.963   1.620  1.5893 -1.2253  0.2222
  854TIP3   OH224196   2.802   5.682   7.445 -0.2227  0.1421 -0.1193
  854TIP3    H124197   2.812   5.592   7.414  0.6718  0.4120 -0.6194
  854TIP3    H224198   2.883   5.700   7.493 -0.1860  0.8416 -0.4402
  855TIP3   OH224199   5.709   1.162   7.082  0.6048  0.3373 -0.0452
  855TIP3    H124200   5.760   1.110   7.020  3.3346  1.2438  1.3120
  855TIP3    H224201   5.669   1.097   7.140 -0.5936 -0.4341 -1.6973
  856TIP3   OH224202   1.363   5.203   6.614  0.2432 -0.6975  0.2407
  856TIP3    H124203   1.387   5.255   6.537 -0.6507 -0.4943  0.0979
  856TIP3    H224204   1.447   5.183   6.656  0.7084 -0.4774 -0.5687
  857TIP3   OH224205   5.843   6.116   0.822 -0.4062  0.4831  0.4004
  857TIP3    H124206   5.786   6.187   0.850  0.4245  2.0008 -1.5738
  857TIP3    H224207   5.785   6.052   0.781 -1.0027  0.6976  0.9179
  858TIP3   OH224208   6.069   1.105   7.445 -0.3878 -0.0228 -0.0106
  858TIP3    H124209   5.979   1.082   7.471 -0.4375  0.2391  0.0507
  858TIP3    H224210   6.124   1.048   7.499 -0.5699 -2.3842 -2.2235
  859TIP3   OH224211   0.331   1.019   7.918  0.3359 -0.8107 -0.2190
  859TIP3    H124212   0.408   1.073   7.936  0.0383 -0.4753  0.0479
  859TIP3    H224213   0.363   0.952   7.857  0.6437 -0.1679 -0.7723
  860TIP3   OH224214   2.786   6.814   7.979 -0.0165  0.2387  0.4180
  860TIP3    H124215   2.761   6.788   8.068 -0.5196  0.3387  0.3089
  860TIP3    H224216   2.754   6.743   7.924  1.8363 -0.6692  0.4920
  861TIP3   OH224217   3.373   0.023   7.078  0.1581 -0.0253  0.4024
  861TIP3    H124218   3.400   0.087   7.144 -0.4397 -0.1824  0.8062
  861TIP3    H224219   3.289   0.056   7.047 -0.1750 -0.6389  0.6458
  862TIP3   OH224220   1.813   4.253   7.604  0.2218 -1.0178  0.1540
  862TIP3    H124221   1.801   4.180   7.665  2.7282 -0.3109  1.5706
  862TIP3    H224222   1.792   4.331   7.656  0.7157 -0.5196 -0.3903
  863TIP3   OH224223   2.658   3.364   0.362  0.7179 -0.1441 -0.8165
  863TIP3    H124224   2.670   3.423   0.287 -0.1490  0.2763 -0.6352
  863TIP3    H224225   2.594   3.300   0.333  0.7106 -0.2418 -0.5895
  864TIP3   OH224226   4.642   2.578   8.042  0.3084 -0.2417 -0.6000
  864TIP3    H124227   4.719   2.609   8.089  0.2996 -2.0504  0.6605
  864TIP3    H224228   4.654   2.483   8.036 -2.0454 -0.5973  0.0228
  865TIP3   OH224229   3.152   1.486   7.923  0.2870 -0.3854  0.2724
  865TIP3    H124230   3.115   1.525   7.844  1.5536 -1.3667 -0.8185
  865TIP3    H224231   3.109   1.401   7.930  0.8235 -0.6615  0.1666
  866TIP3   OH224232   0.783   5.840   7.960 -0.0126  0.0371 -0.0764
  866TIP3    H124233   0.771   5.863   7.868  0.2139  2.2702  0.4381
  866TIP3    H224234   0.799   5.745   7.959 -1.1199 -0.1451 -2.2183
  867TIP3   OH224235   0.797   6.844   0.168  0.4661 -0.3182 -0.3319
  867TIP3    H124236   0.870   6.862   0.227  1.7345 -0.8322 -1.6884
  867TIP3    H224237   0.746   6.777   0.212  0.4462  0.5140  0.9281
  868TIP3   OH224238   5.982   7.097   6.208  0.4297  0.0851 -0.4828
  868TIP3    H124239   6.025   7.026   6.160  0.2655  0.4446 -1.1659
  868TIP3    H224240   6.018   7.090   6.297  0.7848 -0.5445 -0.6678
  869TIP3   OH224241   3.466   1.823   6.644  0.3153 -0.0815  0.4825
  869TIP3    H124242   3.388   1.878   6.653 -0.3108 -0.6958 -1.0501
  869TIP3    H224243   3.475   1.782   6.729 -0.7647  0.3579  0.8303
  870TIP3   OH224244   3.726   7.008   7.727 -1.1035 -0.6854 -0.1599
  870TIP3    H124245   3.777   6.952   7.669  1.0608  1.6436 -0.5936
  870TIP3    H224246   3.774   7.008   7.810 -0.7242  1.0254 -0.3691
  871TIP3   OH224247   6.362   5.679   6.431 -0.1610  0.0320  0.3550
  871TIP3    H124248   6.290   5.724   6.473  0.4739  0.5550  0.8851
  871TIP3    H224249   6.394   5.741   6.365 -2.4314 -1.5252 -2.3449
  872TIP3   OH224250   1.436   5.937   7.927  0.6828 -0.1968 -0.5518
  872TIP3    H124251   1.427   5.874   7.999 -4.7914 -1.0189 -1.6833
  872TIP3    H224252   1.435   6.022   7.969  0.8958 -0.7431  0.5690
  873TIP3   OH224253   3.407   3.983   6.386  0.2269  0.0851 -0.5161
  873TIP3    H124254   3.343   4.023   6.444 -0.8286  0.3168 -1.8061
  873TIP3    H224255   3.395   3.888   6.399  1.6418  0.1386  1.3710
  874TIP3   OH224256   6.810   0.792   6.630  0.0165 -0.0398  0.5038
  874TIP3    H124257   6.845   0.863   6.577  0.4162 -0.4728  0.1803
  874TIP3    H224258   6.715   0.806   6.631  0.1211  0.6608  0.6877
  875TIP3   OH224259   3.491   3.747   1.036 -0.2176 -0.3625 -0.1639
  875TIP3    H124260   3.403   3.711   1.049  0.7082 -2.2597  0.9931
  875TIP3    H224261   3.541   3.675   0.997  0.5815  1.0434 -1.8258
  876TIP3   OH224262   2.446   5.854   6.706 -0.4753 -0.7079  0.3061
  876TIP3    H124263   2.372   5.912   6.689  0.1828 -0.4445 -1.8255
  876TIP3    H224264   2.523   5.908   6.687  0.1653 -1.9858 -0.8155
  877TIP3   OH224265   6.532   4.545   1.831  0.0031 -0.2273 -0.6728
  877TIP3    H124266   6.603   4.553   1.895 -0.9504  0.3806  0.3393
  877TIP3    H224267   6.456   4.582   1.875 -1.1542 -1.6324 -1.4147
  878TIP3   OH224268   5.309   3.309   8.026 -0.2179 -0.0845  0.2701
  878TIP3    H124269   5.336   3.337   8.113 -0.9876  0.5661  0.3031
  878TIP3    H224270   5.323   3.214   8.026  0.7061  0.0524  0.7660
  879TIP3   OH224271   4.324   0.525   0.183 -0.5414  0.1863 -0.7495
  879TIP3    H124272   4.332   0.432   0.206 -1.4177  0.1754 -0.4852
  879TIP3    H224273   4.254   0.558   0.238  1.1257  1.5221  0.6487
  880TIP3   OH224274   6.858   2.452   7.837 -0.2501 -0.3219  0.2834
  880TIP3    H124275   6.947   2.421   7.822  0.7417  1.8520  1.3254
  880TIP3    H224276   6.835   2.498   7.756  0.8052  1.7531  1.1025
  881TIP3   OH224277   7.017   6.083   1.671 -0.9177  0.2334 -0.1034
  881TIP3    H124278   6.938   6.119   1.711 -2.5572 -0.8870 -2.2145
  881TIP3    H224279   7.026   5.996   1.710 -2.4173 -0.7903 -1.9615
  882TIP3   OH224280   6.470   4.596   7.892 -0.8434 -0.2154  0.3063
  882TIP3    H124281   6.541   4.650   7.858  0.2677 -0.6791  1.8144
  882TIP3    H224282   6.504   4.507   7.888 -1.1484 -0.3976  1.4296
  883TIP3   OH224283   0.685   1.580   0.673  0.9095  0.3154  0.4584
  883TIP3    H124284   0.690   1.512   0.740  2.5781 -0.0421 -0.0092
  883TIP3    H224285   0.734   1.545   0.599 -1.1232  0.5964 -1.0828
  884TIP3   OH224286   0.332   0.707   0.158 -0.9490  0.3232 -0.5279
  884TIP3    H124287   0.310   0.698   0.066 -4.3756 -2.3076  0.4374
  884TIP3    H224288   0.249   0.731   0.200  0.5802  1.6810  1.8836
  885TIP3   OH224289   0.563   5.383   1.092  0.4834 -0.4682 -0.4434
  885TIP3    H124290   0.512   5.313   1.132  0.5831  0.6476  1.6900
  885TIP3    H224291   0.643   5.388   1.144  1.4988 -0.2728 -1.9829
  886TIP3   OH224292   6.650   3.894   8.000 -0.2729  0.5552 -0.8707
  886TIP3    H124293   6.678   3.977   7.962  1.3158  0.6378  0.4313
  886TIP3    H224294   6.625   3.915   8.090 -1.3340 -0.1213 -0.9976
  887TIP3   OH224295   5.386   3.136   1.510  0.5283 -0.0119 -0.0257
  887TIP3    H124296   5.313   3.129   1.572  1.4886 -2.3561  0.9234
  887TIP3    H224297   5.344   3.144   1.425 -0.9456 -3.5523  0.2674
  888TIP3   OH224298   0.250   1.653   7.058  0.4457 -0.2433  0.8988
  888TIP3    H124299   0.218   1.566   7.081  1.2231 -0.5439  0.8526
  888TIP3    H224300   0.206   1.711   7.120 -1.4766 -0.4500 -0.2394
  889TIP3   OH224301   0.031   4.758   7.524 -0.3530 -0.2245 -0.1404
  889TIP3    H124302  -0.037   4.800   7.578 -1.9448 -0.8655 -1.5841
  889TIP3    H224303   0.104   4.744   7.584 -1.7885 -0.2144  1.6682
  890TIP3   OH224304   5.840   0.331   6.425  0.3042  0.1799 -0.0542
  890TIP3    H124305   5.796   0.268   6.367  0.3233 -1.0313  1.2318
  890TIP3    H224306   5.934   0.313   6.413  0.2511 -1.9707  2.3951
  891TIP3   OH224307   6.776   1.360   7.391 -0.1945  0.3753  0.3000
  891TIP3    H124308   6.799   1.273   7.360 -0.4711  0.9964 -1.6896
  891TIP3    H224309   6.848   1.385   7.448  1.0505 -0.1785 -1.0165
  892TIP3   OH224310   4.668   2.758   7.453  0.4359 -0.1767  0.0342
  892TIP3    H124311   4.612   2.714   7.517  1.5395 -1.2974  0.2301
  892TIP3    H224312   4.682   2.845   7.489  0.6556 -0.6403  1.0707
  893TIP3   OH224313   0.169   0.211   6.484 -0.0847 -0.3046  0.1328
  893TIP3    H124314   0.092   0.176   6.528 -0.2020 -0.0595  0.1212
  893TIP3    H224315   0.221   0.250   6.555  0.2485 -0.8731  0.2052
  894TIP3   OH224316   1.689   0.483   6.887  0.2875  0.1314  0.3900
  894TIP3    H124317   1.697   0.575   6.861  3.3302  0.1345  1.2402
  894TIP3    H224318   1.616   0.482   6.949 -0.1427  1.8469 -0.0501
  895TIP3   OH224319   0.629   1.043   7.473 -0.0999  0.2638 -0.4715
  895TIP3    H124320   0.566   0.979   7.505 -0.9544  1.9878  1.3597
  895TIP3    H224321   0.673   0.998   7.400 -0.8991 -2.2554  0.5455
  896TIP3   OH224322   5.972   5.503   7.125  0.9994 -0.6346  0.6941
  896TIP3    H124323   6.019   5.580   7.158 -0.6433  0.6559  0.0916
  896TIP3    H224324   5.895   5.539   7.080 -1.4193 -2.7538  2.9580
  897TIP3   OH224325   2.255   6.643   0.379  0.0118  0.2638 -0.3905
  897TIP3    H124326   2.274   6.722   0.328  0.8382  0.1910 -0.1981
  897TIP3    H224327   2.337   6.624   0.425 -0.1078 -0.8475 -0.6272
  898TIP3   OH224328   6.774   6.951   0.095 -0.5740 -0.1081 -0.1242
  898TIP3    H124329   6.719   6.999   0.157 -0.1626 -1.0852  1.0051
  898TIP3    H224330   6.756   6.859   0.112 -1.3173 -0.3855 -2.2506
  899TIP3   OH224331   5.786   2.166   7.150  0.6222 -0.6543 -0.3745
  899TIP3    H124332   5.697   2.141   7.124 -0.3780  0.7089  1.6278
  899TIP3    H224333   5.825   2.204   7.071 -1.3149  0.7092 -0.7028
  900TIP3   OH224334   4.627   3.753   7.131 -0.7397  0.0822 -0.2160
  900TIP3    H124335   4.668   3.668   7.150  1.2923  1.4203  1.6132
  900TIP3    H224336   4.684   3.793   7.065 -1.0534  0.5147 -0.2290
  901TIP3   OH224337   6.564   5.551   6.160  0.6619  0.2499 -0.0396
  901TIP3    H124338   6.487   5.545   6.104  1.1104  2.3828 -0.9545
  901TIP3    H224339   6.545   5.492   6.233 -1.5770  0.2893 -0.5353
  902TIP3   OH224340   0.376   2.684   6.376 -0.2418 -0.5999 -0.0437
  902TIP3    H124341   0.382   2.624   6.301 -2.7429 -1.5418  0.4431
  902TIP3    H224342   0.284   2.713   6.375  0.4749  1.7918  0.8323
  903TIP3   OH224343   0.858   5.870   7.271  0.0067 -0.7859 -0.3137
  903TIP3    H124344   0.910   5.919   7.334  0.9498 -0.8495 -1.0260
  903TIP3    H224345   0.838   5.934   7.202  0.8086 -1.2611 -0.9960
  904TIP3   OH224346   0.790   2.555   6.282  0.0480  0.1702  0.2862
  904TIP3    H124347   0.822   2.585   6.197  0.2958 -1.4089 -0.1977
  904TIP3    H224348   0.730   2.624   6.311 -0.2165  0.6252 -1.2776
  905TIP3   OH224349   5.355   2.146   7.684 -0.3388  0.3888 -0.2398
  905TIP3    H124350   5.261   2.135   7.674 -0.3407 -2.3145  1.9973
  905TIP3    H224351   5.366   2.229   7.730 -1.6487  0.6502 -0.4026
  906TIP3   OH224352   3.560   2.512   0.367 -0.9367 -0.1885 -0.0898
  906TIP3    H124353   3.599   2.554   0.444 -0.2533  2.1591 -1.6970
  906TIP3    H224354   3.569   2.418   0.385  0.9230  0.3187  1.8375
  907TIP3   OH224355   5.956   1.184   0.886 -0.0210 -0.0400  0.4101
  907TIP3    H124356   5.883   1.236   0.854 -0.6017 -0.4834  0.9949
  907TIP3    H224357   5.914   1.112   0.934  0.8071 -0.0198  1.1693
  908TIP3   OH224358   6.765   1.590   6.214  0.5176 -0.2816  0.0611
  908TIP3    H124359   6.711   1.586   6.135  0.3609 -0.5823  0.1847
  908TIP3    H224360   6.724   1.529   6.274  0.9840 -0.4952  0.1628
  909TIP3   OH224361   0.568   6.384   6.221 -0.4714  0.1440 -0.5228
  909TIP3    H124362   0.507   6.318   6.253 -0.3085 -0.2674 -1.0446
  909TIP3    H224363   0.591   6.354   6.133 -0.5074  0.9739 -0.8160
  910TIP3   OH224364   6.574   0.536   6.791 -0.3272  0.7610  0.1417
  910TIP3    H124365   6.593   0.444   6.773 -2.5549  0.2979 -0.0103
  910TIP3    H224366   6.600   0.581   6.710  2.7858  0.6044  0.9918
  911TIP3   OH224367   2.170   6.724   1.244  0.1390  0.1296  0.2000
  911TIP3    H124368   2.235   6.786   1.277 -0.6125  0.2504  1.4891
  911TIP3    H224369   2.211   6.685   1.167  1.5130  0.5925  0.6778
  912TIP3   OH224370   5.957   3.509   6.634 -0.0104 -0.0768 -0.1627
  912TIP3    H124371   6.028   3.472   6.581 -0.7274 -0.2881 -0.9772
  912TIP3    H224372   5.897   3.549   6.571 -0.3831  0.5143  0.5561
  913TIP3   OH224373   0.158   2.951   7.321  0.3012 -0.1227 -0.9040
  913TIP3    H124374   0.093   2.910   7.265  1.0010 -1.2583 -0.8955
  913TIP3    H224375   0.208   2.878   7.358 -0.0809  0.6318  1.1160
  914TIP3   OH224376   5.754   1.013   7.873  0.0787  0.2888  0.3879
  914TIP3    H124377   5.693   0.996   7.801  0.6053  0.8777 -0.2052
  914TIP3    H224378   5.699   1.012   7.951 -0.5078 -0.3163 -0.0288
  915TIP3   OH224379   1.885   1.050   0.806  0.0332 -0.4626 -0.2777
  915TIP3    H124380   1.866   1.143   0.793  0.1550 -0.2308  1.0576
  915TIP3    H224381   1.801   1.011   0.830  0.6936  0.1235  3.3082
  916TIP3   OH224382   6.624   0.987   6.923 -1.0104  0.1925 -0.4427
  916TIP3    H124383   6.583   1.010   6.839  0.2083  1.7126 -0.6636
  916TIP3    H224384   6.716   1.010   6.911 -0.9511  1.0932  1.5624
  917TIP3   OH224385   4.263   2.081   6.848  0.1341  0.3271 -0.0870
  917TIP3    H124386   4.271   2.053   6.757  0.2139 -1.2243  0.3809
  917TIP3    H224387   4.220   2.166   6.843 -1.7866 -0.6922 -1.4625
  918TIP3   OH224388   4.879   0.121   6.098 -0.0028 -0.0712  0.1415
  918TIP3    H124389   4.832   0.045   6.132 -0.5001  0.4801  0.6982
  918TIP3    H224390   4.828   0.149   6.022 -0.8023  0.7567  0.9688
  919TIP3   OH224391   5.629   0.193   1.722 -0.0824  0.1206 -0.3368
  919TIP3    H124392   5.712   0.235   1.745  0.2664  0.3413 -1.9831
  919TIP3    H224393   5.643   0.100   1.741  1.4588 -0.2532 -3.0843
  920TIP3   OH224394   7.128   1.603   7.315  0.6700  0.3191  0.4646
  920TIP3    H124395   7.210   1.568   7.281  1.2383  0.2741  1.8348
  920TIP3    H224396   7.133   1.589   7.409 -1.1822 -0.2263  0.5125
  921TIP3   OH224397   4.172   2.592   6.776  0.1663 -0.6317  0.3060
  921TIP3    H124398   4.265   2.594   6.753  0.3352 -0.4350  1.0241
  921TIP3    H224399   4.157   2.502   6.807  0.1009 -0.6816  0.1312
  922TIP3   OH224400   1.509   1.976   0.755 -0.0186 -0.1082  0.3548
  922TIP3    H124401   1.487   1.883   0.766 -2.0625  0.3464  0.3865
  922TIP3    H224402   1.439   2.022   0.801 -0.0263  1.5003 -1.2324
  923TIP3   OH224403   5.997   6.929   7.672  0.4364  0.0672 -0.2166
  923TIP3    H124404   5.907   6.959   7.687 -0.0550 -0.9624 -1.0076
  923TIP3    H224405   6.049   7.009   7.673 -0.8993  1.0392 -2.6814
  924TIP3   OH224406   5.801   2.063   6.013  0.6772 -0.1609  0.5442
  924TIP3    H124407   5.844   2.015   5.942  0.0674 -0.1827  0.1929
  924TIP3    H224408   5.714   2.025   6.020 -0.2772  1.6968 -0.5804
  925TIP3   OH224409   6.914   1.838   6.139 -0.0457 -0.1930 -0.2353
  925TIP3    H124410   6.852   1.778   6.180 -1.3687  1.0669 -0.3567
  925TIP3    H224411   6.881   1.851   6.051 -0.6613  1.9334  0.2903
  926TIP3   OH224412   6.174   4.813   7.238 -1.1039 -0.6647  0.6486
  926TIP3    H124413   6.219   4.811   7.322 -1.7404 -2.1253  0.9772
  926TIP3    H224414   6.241   4.791   7.174 -0.5971  0.5455  0.7448
  927TIP3   OH224415   0.164   0.795   6.185  0.5063  0.4163  0.4041
  927TIP3    H124416   0.219   0.849   6.128  1.3297  0.3944  1.1645
  927TIP3    H224417   0.074   0.818   6.162  0.8399  0.8711 -0.4534
  928TIP3   OH224418   1.538   2.847   0.189 -0.1779  0.1012  0.1280
  928TIP3    H124419   1.514   2.760   0.220 -0.9779 -0.0088 -0.7715
  928TIP3    H224420   1.546   2.900   0.268  0.6751 -0.8774  0.7052
  929TIP3   OH224421   6.162   6.632   6.241 -0.4947  0.1222 -0.0692
  929TIP3    H124422   6.216   6.620   6.162 -2.0296  0.9612 -1.2889
  929TIP3    H224423   6.211   6.695   6.293 -0.5010  1.2266 -1.3662
  930TIP3   OH224424   2.425   0.435   5.493  0.0422 -0.3029 -0.4010
  930TIP3    H124425   2.432   0.501   5.423  0.2738  0.6363  0.4996
  930TIP3    H224426   2.511   0.436   5.535 -0.7000  0.5532  1.1429
  931TIP3   OH224427   0.905   5.585   7.018 -0.6369  0.3650 -0.3301
  931TIP3    H124428   1.000   5.587   7.032 -0.6571  1.6646 -0.2801
  931TIP3    H224429   0.883   5.675   6.994 -1.6853 -0.2205 -1.5905
  932TIP3   OH224430   4.985   6.545   7.489 -0.2067 -0.6636  0.5339
  932TIP3    H124431   5.011   6.561   7.580 -1.7004  1.7205  0.5829
  932TIP3    H224432   5.068   6.550   7.441  0.1126  2.5025  1.2398
  933TIP3   OH224433   5.746   1.821   6.962 -0.1788 -0.7338 -0.2323
  933TIP3    H124434   5.743   1.813   7.057  1.0726 -1.8653 -0.2889
  933TIP3    H224435   5.837   1.841   6.942 -0.6096  0.3736 -1.1369
  934TIP3   OH224436   1.504   0.200   7.528 -0.5924  0.2693 -0.1603
  934TIP3    H124437   1.423   0.154   7.510 -1.7154  2.0544  0.1684
  934TIP3    H224438   1.539   0.158   7.606 -1.8137  0.2327  0.3791
  935TIP3   OH224439   5.970   6.615   7.238  0.3317 -0.0732 -0.7348
  935TIP3    H124440   5.965   6.675   7.313 -0.7863  0.8396 -1.5089
  935TIP3    H224441   6.053   6.570   7.248  0.2840  0.1923  0.9473
  936TIP3   OH224442   2.998   0.664   1.110 -0.0008 -0.1971 -0.5640
  936TIP3    H124443   3.056   0.626   1.176 -0.0063 -0.7160 -0.8534
  936TIP3    H224444   2.923   0.604   1.105 -0.1275 -0.0196 -0.8421
  937TIP3   OH224445   0.789   4.222   6.892  0.2003 -0.4567  0.0914
  937TIP3    H124446   0.704   4.196   6.929 -0.0706  1.1745  0.6543
  937TIP3    H224447   0.770   4.303   6.844  0.7147 -2.0226 -2.9025
  938TIP3   OH224448   5.692   6.634   6.509  0.0502 -0.0996 -0.5680
  938TIP3    H124449   5.769   6.597   6.554  0.8177  0.5427 -1.3247
  938TIP3    H224450   5.633   6.560   6.498  1.8662 -1.3158 -2.6878
  939TIP3   OH224451   6.912   7.044   8.018  0.4978 -0.3545  0.2591
  939TIP3    H124452   6.868   6.976   7.968 -0.2621 -0.3683  0.9385
  939TIP3    H224453   6.862   7.051   8.099 -1.0653  2.8233 -0.8833
  940TIP3   OH224454   3.385   6.849   6.738 -0.3790 -0.2998  0.4797
  940TIP3    H124455   3.320   6.918   6.744 -1.7108 -1.3829 -0.8759
  940TIP3    H224456   3.340   6.778   6.692  1.2679 -1.6755  0.9353
  941TIP3   OH224457   6.142   0.743   7.778 -0.8506 -0.3636  0.2865
  941TIP3    H124458   6.099   0.776   7.699 -1.9304 -1.6881  0.3137
  941TIP3    H224459   6.077   0.685   7.819 -0.0018 -0.3321  1.7132
  942TIP3   OH224460   0.384   5.322   6.105  0.3336  0.4204  0.3809
  942TIP3    H124461   0.302   5.367   6.126 -0.7320 -0.5164 -1.6053
  942TIP3    H224462   0.435   5.386   6.055  0.0224  0.4059  0.0395
  943TIP3   OH224463   3.374   6.883   0.133 -0.0581 -0.2696 -0.3458
  943TIP3    H124464   3.382   6.851   0.223 -1.4143  0.0943 -0.0851
  943TIP3    H224465   3.297   6.839   0.098 -0.2923  0.5714 -0.9151
  944TIP3   OH224466   4.832   3.860   1.234 -0.5744 -0.0009  0.7567
  944TIP3    H124467   4.805   3.768   1.242 -2.0066 -0.0841 -3.5725
  944TIP3    H224468   4.909   3.858   1.178 -1.0033  1.4758  0.0791
  945TIP3   OH224469   5.459   2.489   6.887  0.2223 -0.6466 -0.2057
  945TIP3    H124470   5.502   2.469   6.804 -1.2237 -0.0117 -1.1400
  945TIP3    H224471   5.368   2.505   6.862  0.2709  1.9517  1.1818
  946TIP3   OH224472   4.688   3.548   7.549 -0.3454  0.3266  0.4689
  946TIP3    H124473   4.751   3.584   7.611  0.8712 -1.0379  0.0606
  946TIP3    H224474   4.611   3.527   7.602  0.4167 -0.1647  1.4008
  947TIP3   OH224475   3.971   7.155   6.558  0.3300 -0.4233  0.4501
  947TIP3    H124476   3.976   7.250   6.547  0.5648 -0.4353  0.4487
  947TIP3    H224477   3.957   7.122   6.469  2.3024 -0.5230  0.1359
  948TIP3   OH224478   6.576   1.349   1.508  0.2593  0.1084 -0.1552
  948TIP3    H124479   6.537   1.400   1.579  2.5257 -2.2004  2.8946
  948TIP3    H224480   6.642   1.406   1.470  1.9338 -0.0528  2.4202
  949TIP3   OH224481   3.801   1.362   6.600  0.1543  0.1289 -0.3131
  949TIP3    H124482   3.705   1.364   6.609  0.1460  1.3233 -0.4649
  949TIP3    H224483   3.817   1.305   6.525 -0.4000 -0.5955  0.1101
  950TIP3   OH224484   0.267   1.187   6.500 -0.1364  0.0830 -0.7333
  950TIP3    H124485   0.205   1.139   6.444 -0.9101  2.3706 -1.8989
  950TIP3    H224486   0.241   1.279   6.491  2.3394  0.9064  0.1597
  951TIP3   OH224487   5.460   2.732   0.596 -0.1565  0.0567 -0.3184
  951TIP3    H124488   5.443   2.773   0.511 -3.9297  1.3774  0.9904
  951TIP3    H224489   5.453   2.804   0.659  0.8410 -1.2274  1.2986
  952TIP3   OH224490   6.992   6.949   5.591  0.4802  0.6465 -0.5324
  952TIP3    H124491   7.084   6.963   5.569  1.2755 -2.1249  0.7814
  952TIP3    H224492   6.964   6.878   5.534 -0.5438  0.7350 -0.1495
  953TIP3   OH224493   3.671   0.652   6.685  0.0905 -0.1166 -0.0610
  953TIP3    H124494   3.645   0.661   6.594  2.1950 -0.1408 -0.6918
  953TIP3    H224495   3.635   0.567   6.712  0.9453 -0.9187 -1.4038
  954TIP3   OH224496   6.020   0.204   6.135  0.2230 -0.4929 -0.3832
  954TIP3    H124497   5.955   0.222   6.067 -0.8021  1.3642  1.0596
  954TIP3    H224498   6.018   0.108   6.144 -1.6618 -0.5435 -1.0139
  955TIP3   OH224499   5.100   1.474   0.808 -0.0769 -0.6321  0.9059
  955TIP3    H124500   5.132   1.428   0.730  1.1376 -0.8999  1.5352
  955TIP3    H224501   5.032   1.417   0.843 -1.1765 -0.1203 -0.3963
  956TIP3   OH224502   5.070   2.927   7.995 -0.3881  0.1391  1.0177
  956TIP3    H124503   5.082   2.851   7.938 -1.4748  0.3863  0.4425
  956TIP3    H224504   5.099   2.897   8.081 -1.7821 -1.2778  1.0216
  957TIP3   OH224505   0.845   2.578   1.213  0.1777  0.4088 -0.2376
  957TIP3    H124506   0.889   2.496   1.187 -0.6342 -0.2686  0.4821
  957TIP3    H224507   0.753   2.553   1.222 -0.1830  1.5728 -0.6850
  958TIP3   OH224508   2.862   1.645   1.595  0.2358 -0.1468 -0.3993
  958TIP3    H124509   2.772   1.617   1.612 -0.0829  1.5289  0.8386
  958TIP3    H224510   2.914   1.565   1.601 -0.8247 -0.7063  1.6913
  959TIP3   OH224511   6.910   1.039   6.451  0.0466 -0.0634  0.5529
  959TIP3    H124512   6.948   1.108   6.397  1.2881 -2.4842 -1.7674
  959TIP3    H224513   6.825   1.022   6.412 -0.2542  0.1015  1.1196
  960TIP3   OH224514   4.638   6.346   7.173  0.7160 -0.2256  0.2650
  960TIP3    H124515   4.674   6.258   7.159 -0.5499 -0.7358  0.2248
  960TIP3    H224516   4.679   6.376   7.254 -0.2254 -1.5680  1.2542
  961TIP3   OH224517   4.761   4.484   7.337  0.2978 -0.1904  0.3508
  961TIP3    H124518   4.777   4.483   7.431  1.0686 -0.6039  0.2224
  961TIP3    H224519   4.833   4.431   7.300 -1.7817 -2.7648 -0.1710
  962TIP3   OH224520   6.512   1.469   0.619  0.4732  0.1653 -0.0607
  962TIP3    H124521   6.430   1.420   0.616  0.0061  0.7064  2.3043
  962TIP3    H224522   6.566   1.419   0.680  1.1469  0.9086 -0.0449
  963TIP3   OH224523   1.213   5.713   7.345 -0.8362 -0.4331  0.0549
  963TIP3    H124524   1.272   5.675   7.409  0.0558  0.9037  0.0507
  963TIP3    H224525   1.196   5.802   7.377 -1.5507 -0.2567 -0.7795
  964TIP3   OH224526   0.074   1.128   1.856  0.0969 -0.3869 -0.0412
  964TIP3    H124527   0.080   1.059   1.789 -1.8627 -0.5733 -0.0558
  964TIP3    H224528   0.142   1.191   1.831  1.8150 -2.2241 -0.1200
  965TIP3   OH224529   5.061   6.636   0.322  0.2841 -0.1358 -0.1351
  965TIP3    H124530   5.083   6.688   0.399  0.5814 -0.4669  0.0060
  965TIP3    H224531   5.133   6.574   0.313  1.0464  0.9430 -1.6189
  966TIP3   OH224532   2.197   6.219   0.744  0.3880 -0.0057  0.1973
  966TIP3    H124533   2.193   6.226   0.839 -0.0177 -0.0354  0.1835
  966TIP3    H224534   2.180   6.127   0.725  0.7274 -0.0510  0.1095
  967TIP3   OH224535   6.612   3.661   0.673 -0.4252 -0.5381 -0.1025
  967TIP3    H124536   6.523   3.628   0.685  0.5452 -2.7721  1.0757
  967TIP3    H224537   6.623   3.725   0.744 -1.4412  0.5797 -0.9159
  968TIP3   OH224538   0.641   0.457   8.001 -0.0245 -0.1354 -0.4956
  968TIP3    H124539   0.672   0.456   8.091  0.6035 -2.5331 -0.6913
  968TIP3    H224540   0.574   0.389   7.998 -1.1669  1.0152 -1.4635
  969TIP3   OH224541   0.669   5.077   7.658 -0.0641 -0.6463  0.1136
  969TIP3    H124542   0.634   4.990   7.677 -0.5410  0.0579  2.6277
  969TIP3    H224543   0.656   5.127   7.739 -0.7585  2.0953 -1.5910
  970TIP3   OH224544   5.636   1.925   7.942  0.2824  0.2482 -0.0819
  970TIP3    H124545   5.620   1.953   7.851 -1.0055 -0.6576 -0.1529
  970TIP3    H224546   5.652   1.831   7.935  2.4364  0.5663  0.3902
  971TIP3   OH224547   1.143   6.658   5.964  0.1084  0.4342  0.1806
  971TIP3    H124548   1.113   6.733   5.911 -0.2719  0.7483  0.8335
  971TIP3    H224549   1.238   6.668   5.967  0.1857  0.0920 -0.9230
  972TIP3   OH224550   6.377   6.524   6.494  0.0544 -0.7004 -0.1155
  972TIP3    H124551   6.461   6.507   6.537  0.6232 -0.8321 -1.2717
  972TIP3    H224552   6.389   6.491   6.405 -0.5106  1.1890 -0.9036
  973TIP3   OH224553   1.354   5.321   6.114  0.3327  0.4075  0.2921
  973TIP3    H124554   1.342   5.226   6.115 -0.6950  0.5338  2.5123
  973TIP3    H224555   1.300   5.352   6.042 -2.0740 -0.3934  1.7147
  974TIP3   OH224556   1.069   0.818   7.562 -0.8817  0.3997  0.0374
  974TIP3    H124557   1.105   0.906   7.571 -0.4302  0.2574 -0.3644
  974TIP3    H224558   1.139   0.767   7.522 -1.0605 -0.2007  0.4724
  975TIP3   OH224559   7.102   3.468   6.598 -0.0885  0.2145 -0.2346
  975TIP3    H124560   7.073   3.427   6.680  2.2938 -0.7149  0.1851
  975TIP3    H224561   7.076   3.560   6.607  0.8874  0.3133  1.9507
  976TIP3   OH224562   5.880   2.373   6.901 -0.4514  0.1615  0.4819
  976TIP3    H124563   5.833   2.449   6.936 -0.3763  0.9224 -1.0151
  976TIP3    H224564   5.861   2.375   6.807 -0.1529 -1.4714  0.3809
  977TIP3   OH224565   6.470   5.300   0.772 -0.3682  0.0591 -0.4164
  977TIP3    H124566   6.543   5.240   0.757 -0.8406  0.0520 -2.9689
  977TIP3    H224567   6.504   5.365   0.833  1.9545  0.3427 -1.9354
  978TIP3   OH224568   4.767   7.019   7.802  0.0326 -0.5006 -0.0105
  978TIP3    H124569   4.792   6.963   7.728 -1.4938 -0.6515 -0.4288
  978TIP3    H224570   4.682   7.054   7.777  0.6249  1.4156  0.5941
  979TIP3   OH224571   1.994   3.341   1.107 -0.0077  0.3153  0.3597
  979TIP3    H124572   2.029   3.380   1.027  0.8695 -1.6767 -0.2586
  979TIP3    H224573   1.907   3.309   1.083  0.7670 -1.4267 -0.1616
  980TIP3   OH224574   6.408   0.372   2.009  0.0479 -0.1201 -0.2465
  980TIP3    H124575   6.379   0.305   2.071 -0.3192  0.1494 -0.1211
  980TIP3    H224576   6.472   0.424   2.058  1.0232 -0.9295 -0.6345
  981TIP3   OH224577   0.991   0.773   6.852 -0.3317  0.7875  0.8468
  981TIP3    H124578   0.953   0.806   6.933  0.0077 -0.4637  1.5209
  981TIP3    H224579   1.074   0.819   6.843 -0.2777  0.7759  1.3117
  982TIP3   OH224580   2.860   5.579   7.891  0.3451 -0.4465 -0.4401
  982TIP3    H124581   2.869   5.527   7.812  0.4100 -1.2509  0.0953
  982TIP3    H224582   2.801   5.529   7.947  1.0139 -0.3287  0.3933
  983TIP3   OH224583   4.565   0.441   7.358  0.2382 -0.3019 -0.2404
  983TIP3    H124584   4.479   0.420   7.323 -0.4909  0.9130  0.8149
  983TIP3    H224585   4.563   0.535   7.374  1.8903 -0.1918 -0.5548
  984TIP3   OH224586   4.345   1.690   7.000  0.1892  0.3094 -0.0387
  984TIP3    H124587   4.390   1.618   6.955 -2.0214 -1.2602  0.2137
  984TIP3    H224588   4.280   1.721   6.936  0.7728  1.7757  0.0477
  985TIP3   OH224589   4.532   1.323   0.285  0.0488 -0.1666  0.2052
  985TIP3    H124590   4.508   1.250   0.227  0.5861 -0.4506  0.3373
  985TIP3    H224591   4.627   1.316   0.295 -0.1191 -0.5774  1.7091
  986TIP3   OH224592   5.495   0.815   7.375  0.0076 -0.6269 -0.1180
  986TIP3    H124593   5.546   0.745   7.335 -1.4682 -1.2354 -0.9584
  986TIP3    H224594   5.408   0.805   7.339 -0.2601  1.5626 -0.1267
  987TIP3   OH224595   5.887   1.735   6.678 -0.2069 -1.0209 -0.7187
  987TIP3    H124596   5.866   1.744   6.771 -0.2891 -2.1121 -0.6351
  987TIP3    H224597   5.879   1.825   6.644  0.3175 -0.5300  0.4199
  988TIP3   OH224598   6.690   6.731   6.657 -0.0957  0.5218  0.0688
  988TIP3    H124599   6.653   6.773   6.579 -1.2958 -0.4668  0.0908
  988TIP3    H224600   6.783   6.751   6.653  0.1274 -0.7612 -2.4469
  989TIP3   OH224601   4.186   5.760   2.021  0.4058 -0.0163  0.1571
  989TIP3    H124602   4.166   5.779   2.112  0.5961 -1.0082  0.4036
  989TIP3    H224603   4.280   5.740   2.021  0.8643  1.9396 -0.5708
  990TIP3   OH224604   6.425   5.163   7.447  0.2529 -0.8056 -0.2001
  990TIP3    H124605   6.485   5.237   7.437 -0.5203  0.1496  1.8534
  990TIP3    H224606   6.362   5.174   7.377  1.1138 -0.4644 -0.9272
  991TIP3   OH224607   5.401   5.604   1.175 -0.8236 -0.5753 -0.4880
  991TIP3    H124608   5.445   5.526   1.208 -1.3957 -0.3909  0.7028
  991TIP3    H224609   5.312   5.576   1.155 -0.9274 -0.3067 -0.4049
  992TIP3   OH224610   2.302   0.753   6.937  0.6099  0.6366 -0.5033
  992TIP3    H124611   2.219   0.796   6.958  0.0007 -0.9845  0.4517
  992TIP3    H224612   2.296   0.666   6.977  1.9795 -0.2190 -2.0903
  993TIP3   OH224613   6.724   5.740   5.893 -0.0050 -0.3073  0.0216
  993TIP3    H124614   6.790   5.671   5.898 -2.9681 -3.1168  1.3717
  993TIP3    H224615   6.641   5.694   5.889 -1.9769  3.1860 -0.9084
  994TIP3   OH224616   1.049   6.868   7.068  0.1961  0.5689 -0.4240
  994TIP3    H124617   1.079   6.803   7.132 -0.4297 -0.8971 -1.6018
  994TIP3    H224618   0.981   6.823   7.018 -0.4297  2.2186 -1.1013
  995TIP3   OH224619   3.824   1.842   0.957 -0.0346  0.3037 -0.2717
  995TIP3    H124620   3.833   1.839   0.862  1.4629  0.0322 -0.1407
  995TIP3    H224621   3.914   1.842   0.989 -0.5272  0.9474  1.1313
  996TIP3   OH224622   6.246   6.402   6.724  0.4117 -0.0293 -0.4488
  996TIP3    H124623   6.319   6.347   6.695  0.6050  0.7903 -1.5909
  996TIP3    H224624   6.249   6.477   6.664 -0.9802  0.3094 -0.0955
  997TIP3   OH224625   1.560   0.823   7.779  0.1880  0.0329 -0.2348
  997TIP3    H124626   1.572   0.826   7.684  1.2472 -0.9124 -0.1237
  997TIP3    H224627   1.477   0.776   7.791  0.7298 -1.0209 -0.6311
  998TIP3   OH224628   0.515   1.364   1.463  0.4732  0.3103  0.1232
  998TIP3    H124629   0.441   1.340   1.406 -0.5724  0.5768  1.3468
  998TIP3    H224630   0.537   1.283   1.508  3.0433 -0.5839 -2.5289
  999TIP3   OH224631   5.192   6.060   5.990 -0.3068  0.3529 -0.5078
  999TIP3    H124632   5.170   6.145   5.953  0.4559  0.1385 -1.4878
  999TIP3    H224633   5.273   6.035   5.946 -1.8931 -2.0591 -2.1799
 1000TIP3   OH224634   2.650   1.097   6.508  0.6030  0.0905  0.4334
 1000TIP3    H124635   2.716   1.131   6.447  1.7176 -2.6636  0.0363
 1000TIP3    H224636   2.608   1.026   6.460  0.3703 -1.0443  2.2720
 1001TIP3   OH224637   2.344   1.740   0.955 -0.4754 -0.2920 -0.5957
 1001TIP3    H124638   2.309   1.782   0.877  0.0015 -0.6878 -1.0231
 1001TIP3    H224639   2.390   1.663   0.923 -0.6315 -0.6865  0.1125
 1002TIP3   OH224640   0.051   7.091   0.445  0.0647 -0.1109 -0.1750
 1002TIP3    H124641   0.024   7.102   0.536 -0.7777 -1.6081 -0.2229
 1002TIP3    H224642  -0.031   7.080   0.397  0.6088 -2.4342 -0.6447
 1003TIP3   OH224643   1.095   0.937   0.714  0.3156 -0.1795 -0.5804
 1003TIP3    H124644   1.070   0.864   0.770 -0.3017 -0.4460 -1.2033
 1003TIP3    H224645   1.014   0.965   0.673  0.4740  1.1577  0.0043
 1004TIP3   OH224646   5.365   4.365   0.654 -0.3285  0.1147 -0.0472
 1004TIP3    H124647   5.448   4.411   0.645 -0.2572 -0.0392 -0.1548
 1004TIP3    H224648   5.356   4.350   0.748 -0.3641  0.3712 -0.0073
 1005TIP3   OH224649   0.541   1.841   7.188  0.0593 -0.5945  0.2297
 1005TIP3    H124650   0.479   1.789   7.137 -0.8734  0.0605  0.6901
 1005TIP3    H224651   0.571   1.908   7.127  0.4099 -0.9842 -0.0297
 1006TIP3   OH224652   5.023   0.728   7.672 -0.1099 -0.4061  0.3803
 1006TIP3    H124653   4.982   0.678   7.743 -0.4867 -0.6360 -0.0021
 1006TIP3    H224654   4.976   0.811   7.671 -1.5702 -1.2351 -1.0388
 1007TIP3   OH224655   4.331   1.211   6.687 -0.1474  0.1065 -0.0725
 1007TIP3    H124656   4.238   1.204   6.711 -0.2559 -2.5639 -1.0101
 1007TIP3    H224657   4.339   1.158   6.607  2.2798 -0.1556  0.2998
 1008TIP3   OH224658   1.047   2.572   6.688 -0.7429 -0.1209 -0.4532
 1008TIP3    H124659   1.030   2.478   6.685 -1.4984 -0.0272  0.5244
 1008TIP3    H224660   1.086   2.593   6.604  1.8452 -1.7644  0.3046
 1009TIP3   OH224661   7.154   6.987   7.246  0.6575  0.3260  0.0883
 1009TIP3    H124662   7.125   6.896   7.233  0.2133  0.0939  2.6046
 1009TIP3    H224663   7.230   6.980   7.303  0.3254  1.5823  0.6892
 1010TIP3   OH224664   0.763   5.443   5.884 -0.2705 -0.1794 -0.1764
 1010TIP3    H124665   0.725   5.407   5.804  0.0549 -0.8117 -0.0522
 1010TIP3    H224666   0.689   5.482   5.931 -0.6003 -0.5258 -0.4044
 1011TIP3   OH224667   6.003   5.699   7.391  0.1781  0.8616 -0.4164
 1011TIP3    H124668   6.089   5.667   7.419 -0.4730 -0.9089 -0.3676
 1011TIP3    H224669   6.022   5.757   7.317  1.5665  2.0537  0.8356
 1012TIP3   OH224670   0.513   7.084   6.151  0.7328 -0.2457 -0.2549
 1012TIP3    H124671   0.545   7.120   6.068  2.1222  2.3288  1.3437
 1012TIP3    H224672   0.431   7.130   6.168 -0.1533 -1.6151 -0.7502
 1013TIP3   OH224673   3.347   4.168   6.720  0.6952  0.6695  0.4968
 1013TIP3    H124674   3.376   4.126   6.800 -0.0079 -0.7089  0.0549
 1013TIP3    H224675   3.276   4.111   6.688 -1.8016  3.3388  1.0246
 1014TIP3   OH224676   5.804   5.916   6.027 -0.1348 -0.7409 -0.1940
 1014TIP3    H124677   5.869   5.877   5.969 -0.6144 -1.5289 -0.2014
 1014TIP3    H224678   5.729   5.857   6.023 -1.1710  0.5781 -0.8282
 1015TIP3   OH224679   6.520   2.239   6.103 -0.6840  0.1356 -0.1443
 1015TIP3    H124680   6.553   2.186   6.030  0.4555  0.2738  0.2592
 1015TIP3    H224681   6.432   2.265   6.076 -0.6190 -0.5825 -1.0698
 1016TIP3   OH224682   5.772   0.005   1.832  0.1530 -0.2651  0.1316
 1016TIP3    H124683   5.824  -0.059   1.783  1.3126 -0.3280  1.4177
 1016TIP3    H224684   5.787  -0.017   1.924 -1.4019  0.3217  0.5422
 1017TIP3   OH224685   1.260   0.658   7.478 -0.0450  0.0231 -0.1105
 1017TIP3    H124686   1.246   0.595   7.407 -1.1526  0.8179 -0.6274
 1017TIP3    H224687   1.338   0.627   7.524 -1.5788 -2.7274  0.7368
 1018TIP3   OH224688   6.684   1.430   6.431  0.5160  0.0133  0.4604
 1018TIP3    H124689   6.678   1.412   6.525  1.7438  0.1779  0.5807
 1018TIP3    H224690   6.728   1.353   6.395 -0.4276 -0.2916 -0.0733
 1019TIP3   OH224691   1.780   6.507   7.951  0.4724 -0.3036 -0.0304
 1019TIP3    H124692   1.863   6.459   7.943  0.4898 -0.1713 -0.7534
 1019TIP3    H224693   1.789   6.579   7.888  0.8115  1.1893  1.6795
 1020TIP3   OH224694   1.282   3.171   0.566  0.0490  0.1893 -0.1090
 1020TIP3    H124695   1.249   3.085   0.541  1.1548 -0.8858  2.0250
 1020TIP3    H224696   1.372   3.172   0.534  0.1922  0.3658  0.3007
 1021TIP3   OH224697   6.778   6.837   7.888 -0.3745  0.0164 -0.4084
 1021TIP3    H124698   6.847   6.771   7.888 -0.6825 -0.3671  2.3003
 1021TIP3    H224699   6.702   6.792   7.852  0.5918  0.2788 -2.8861
 1022TIP3   OH224700   1.684   1.500   6.786 -0.0721 -0.4013 -0.6091
 1022TIP3    H124701   1.705   1.560   6.857 -2.4504 -0.9964  0.6751
 1022TIP3    H224702   1.643   1.555   6.719  2.2622  0.1771 -1.6351
 1023TIP3   OH224703   4.325   6.499   1.337 -0.9156  0.4598 -0.0719
 1023TIP3    H124704   4.279   6.556   1.275 -0.3480  2.5280  1.3809
 1023TIP3    H224705   4.390   6.555   1.378 -1.1705 -0.9188  2.2865
 1024TIP3   OH224706   6.943   6.933   1.147  0.3186 -0.0568  0.0156
 1024TIP3    H124707   7.020   6.986   1.169  2.2424 -2.5762 -0.4172
 1024TIP3    H224708   6.937   6.870   1.219  0.6743 -1.9780 -1.6039
 1025TIP3   OH224709   0.725   0.256   1.417 -0.3339  0.4701  0.4896
 1025TIP3    H124710   0.768   0.333   1.380  1.9451  0.2466  2.6096
 1025TIP3    H224711   0.793   0.211   1.467 -2.3705 -1.3564  1.7065
 1026TIP3   OH224712   4.255   0.574   7.673 -0.3355 -0.0558  0.2891
 1026TIP3    H124713   4.224   0.557   7.763 -2.0832  1.7286  0.0578
 1026TIP3    H224714   4.202   0.516   7.619  0.6556 -1.0653  0.3831
 1027TIP3   OH224715   6.981   3.820   7.133  0.2836  0.2140  0.0349
 1027TIP3    H124716   6.886   3.834   7.132  0.4025  1.1244  0.7754
 1027TIP3    H224717   6.993   3.732   7.096 -0.8063  0.3163 -0.5700
 1028TIP3   OH224718   4.860   4.769   6.564  0.4066 -0.0722 -0.3085
 1028TIP3    H124719   4.907   4.774   6.481 -2.1224  1.8467 -1.7096
 1028TIP3    H224720   4.795   4.700   6.551 -1.1784  1.4438 -0.5925
 1029TIP3   OH224721   0.253   0.771   7.085  0.8129 -0.0076 -0.0740
 1029TIP3    H124722   0.211   0.689   7.111  0.4583 -0.2826 -1.4521
 1029TIP3    H224723   0.181   0.835   7.085  1.5007  0.8157  3.1413
 1030TIP3   OH224724   6.812   2.068   6.106  0.6883  0.1863  0.3195
 1030TIP3    H124725   6.845   1.981   6.130 -0.6615 -0.5097 -0.3086
 1030TIP3    H224726   6.748   2.089   6.174 -0.3620 -0.1335 -0.5602
 1031TIP3   OH224727   5.619   6.593   0.799 -0.1436 -0.2690  0.1732
 1031TIP3    H124728   5.704   6.636   0.786 -0.3599 -0.3096 -1.4748
 1031TIP3    H224729   5.583   6.635   0.877  1.4466 -0.3563  0.9828
 1032TIP3   OH224730   5.736   0.539   6.557  0.0952 -0.2045  0.0047
 1032TIP3    H124731   5.652   0.550   6.513 -0.5518 -3.0767  0.4175
 1032TIP3    H224732   5.775   0.463   6.515  1.5274 -0.2118  1.2892
 1033TIP3   OH224733   6.148   0.044   0.786  0.3185 -0.2164 -0.5237
 1033TIP3    H124734   6.117   0.001   0.865  0.1360  0.0134 -0.4682
 1033TIP3    H224735   6.225   0.094   0.814  0.1409  0.0170 -0.4504
 1034TIP3   OH224736   0.594   4.205   7.276  0.2019 -0.7388  0.2884
 1034TIP3    H124737   0.607   4.294   7.244 -0.2599 -0.2515  1.3990
 1034TIP3    H224738   0.557   4.158   7.202  0.4718 -0.0063 -0.3199
 1035TIP3   OH224739   2.581   4.673   7.771 -0.2030 -0.0981  0.5700
 1035TIP3    H124740   2.587   4.583   7.804  0.2407  0.0288  0.8408
 1035TIP3    H224741   2.671   4.705   7.770 -0.3564  0.3441  0.4725
 1036TIP3   OH224742   1.479   6.445   7.013  0.0891  0.0851  0.0686
 1036TIP3    H124743   1.445   6.361   7.043  0.0712 -0.2928 -0.9969
 1036TIP3    H224744   1.414   6.509   7.042 -0.2349 -0.3428  0.2893
 1037TIP3   OH224745   5.070   2.178   1.340  0.0499  0.0293  0.6508
 1037TIP3    H124746   5.047   2.111   1.276  1.2399  0.4156 -0.1977
 1037TIP3    H224747   4.997   2.178   1.402 -0.0776 -1.8859  0.5293
 1038TIP3   OH224748   5.510   2.162   7.049 -0.2429  0.0407 -0.0153
 1038TIP3    H124749   5.456   2.215   7.109 -0.6790 -0.7985  0.3454
 1038TIP3    H224750   5.515   2.214   6.969  0.2470  1.1260  0.7117
 1039TIP3   OH224751   6.392   1.379   6.471  0.1932 -0.9803  0.4364
 1039TIP3    H124752   6.389   1.381   6.566 -1.0361 -0.2876  0.3926
 1039TIP3    H224753   6.457   1.312   6.450 -0.5038 -2.0762  1.7517
 1040TIP3   OH224754   6.830   0.030   6.929  0.6611 -0.2226 -0.0127
 1040TIP3    H124755   6.862   0.039   7.019  1.2422 -0.7463 -0.1623
 1040TIP3    H224756   6.859  -0.057   6.902  0.8444  0.0875 -0.8425
 1041TIP3   OH224757   6.195   6.035   1.613 -0.4084  0.2069 -0.1027
 1041TIP3    H124758   6.290   6.047   1.617 -0.4947  0.5822  0.9732
 1041TIP3    H224759   6.162   6.088   1.685 -1.5100  0.8051 -1.0459
 1042TIP3   OH224760   3.006   2.258   1.997 -0.2030 -0.2359  0.0389
 1042TIP3    H124761   3.033   2.294   2.082  2.1651 -1.0851 -0.3121
 1042TIP3    H224762   3.017   2.163   2.007  0.0079 -0.3499 -1.1616
 1043TIP3   OH224763   0.842   4.934   0.965 -0.6872  0.0455  0.2627
 1043TIP3    H124764   0.762   4.882   0.974 -0.6108 -0.0765  0.2331
 1043TIP3    H224765   0.887   4.925   1.049 -0.1772 -0.7588 -0.0909
 1044TIP3   OH224766   5.855   4.023   6.547  0.5168  0.4964  0.0033
 1044TIP3    H124767   5.889   4.110   6.568  1.1853  0.6216 -1.4703
 1044TIP3    H224768   5.788   4.038   6.481  0.8070 -0.1156 -0.4453
 1045TIP3   OH224769   2.875   2.861   7.106 -0.5848  0.3801 -0.1303
 1045TIP3    H124770   2.822   2.907   7.042 -2.1286 -1.4096 -0.1781
 1045TIP3    H224771   2.943   2.817   7.054 -0.0078  1.3616 -0.2227
 1046TIP3   OH224772   1.691   5.597   0.626 -0.8137  0.6323 -0.3800
 1046TIP3    H124773   1.732   5.608   0.540  0.3814 -0.8500 -0.0314
 1046TIP3    H224774   1.609   5.647   0.621 -1.2160 -0.2137 -2.6855
 1047TIP3   OH224775   2.905   3.060   7.955  0.1256 -0.3827 -0.5582
 1047TIP3    H124776   2.879   3.149   7.981  0.2374 -0.5791  0.2444
 1047TIP3    H224777   2.986   3.072   7.907  0.0044 -0.0263 -0.6782
 1048TIP3   OH224778   1.810   4.525   7.463 -0.0842 -0.8027  0.2828
 1048TIP3    H124779   1.859   4.595   7.420  0.5486  0.0820  2.3778
 1048TIP3    H224780   1.876   4.475   7.511 -0.9237 -0.8994  1.3750
 1049TIP3   OH224781   0.956   4.017   6.781  0.1702  0.3008  0.0454
 1049TIP3    H124782   0.889   4.086   6.784 -0.2457 -0.1106  0.2979
 1049TIP3    H224783   0.972   3.996   6.873  0.1298 -0.0952 -0.0375
 1050TIP3   OH224784   7.059   1.252   6.312  0.1848  0.1286  0.3971
 1050TIP3    H124785   7.103   1.333   6.336 -1.7938  2.2391 -2.6681
 1050TIP3    H224786   7.127   1.198   6.272  0.8389  1.7302 -0.6803
 1051TIP3   OH224787   6.453   4.674   7.480  0.4234 -0.0050 -0.2772
 1051TIP3    H124788   6.521   4.738   7.460  1.3393 -1.5788 -2.3871
 1051TIP3    H224789   6.465   4.605   7.415 -2.0428 -1.1930  0.4638
 1052TIP3   OH224790   0.852   4.053   8.106 -0.1654 -0.3380  0.3018
 1052TIP3    H124791   0.826   4.128   8.159  1.7988  0.0544  0.7473
 1052TIP3    H224792   0.824   4.075   8.017 -1.1491  0.1467  0.7237
 1053TIP3   OH224793   6.895   1.020   0.529 -0.4476  0.1407  0.6026
 1053TIP3    H124794   6.899   1.047   0.437  0.5773  1.1435  0.9312
 1053TIP3    H224795   6.923   0.928   0.528 -0.6568  0.0779 -0.1075
 1054TIP3   OH224796   3.320   3.673   0.251  0.0188  0.1558  0.1289
 1054TIP3    H124797   3.350   3.759   0.280 -1.5955  1.2936 -1.4505
 1054TIP3    H224798   3.399   3.629   0.218  0.6787  1.4280  0.0015
 1055TIP3   OH224799   3.649   2.939   0.318 -0.1843  0.1183  0.0591
 1055TIP3    H124800   3.560   2.956   0.287  0.1645  0.7761 -0.6216
 1055TIP3    H224801   3.677   3.022   0.356  1.0287  0.7060 -2.0017
 1056TIP3   OH224802   1.637   4.550   6.085  0.1342 -0.0440 -0.3064
 1056TIP3    H124803   1.656   4.641   6.065  0.4269 -0.2793 -1.1183
 1056TIP3    H224804   1.695   4.500   6.028 -1.2557 -0.7412 -1.1311
 1057TIP3   OH224805   6.702   4.237   0.835  0.2887  1.0648  0.4790
 1057TIP3    H124806   6.636   4.181   0.793  1.5311 -0.0413 -0.0445
 1057TIP3    H224807   6.722   4.193   0.918  1.9671  0.1893 -0.3665
 1058TIP3   OH224808   3.477   4.735   6.458 -0.3916  0.2083 -0.3043
 1058TIP3    H124809   3.412   4.803   6.475 -0.2038  0.1506  0.6581
 1058TIP3    H224810   3.549   4.781   6.415 -1.2422  0.1945 -1.7789
 1059TIP3   OH224811   1.290   1.192   0.617 -0.0197 -0.0536  0.4736
 1059TIP3    H124812   1.209   1.142   0.627 -1.2473  1.8101 -0.0335
 1059TIP3    H224813   1.354   1.144   0.670 -1.5662 -1.2585  1.2902
 1060TIP3   OH224814   1.178   1.268   7.325  0.1120 -0.5715  0.1751
 1060TIP3    H124815   1.168   1.210   7.250  2.5795 -1.4809  0.5021
 1060TIP3    H224816   1.248   1.329   7.300  2.8571 -2.5455  2.6552
 1061TIP3   OH224817   5.028   4.499   7.874 -0.1462 -0.2202  0.3312
 1061TIP3    H124818   5.027   4.422   7.818  0.8199  1.0684 -1.4882
 1061TIP3    H224819   5.110   4.492   7.923  0.5781  0.2974 -0.7833
 1062TIP3   OH224820   0.302   3.297   6.877  0.3237 -0.4085  0.0996
 1062TIP3    H124821   0.329   3.251   6.957 -1.0829  0.0825  0.8713
 1062TIP3    H224822   0.382   3.306   6.826  1.5570  0.6657  2.1701
 1063TIP3   OH224823   4.556   1.983   6.673  0.2830 -0.1235  0.1095
 1063TIP3    H124824   4.588   1.998   6.762  0.8406 -1.3606  0.1237
 1063TIP3    H224825   4.613   2.037   6.618  0.9030 -0.5074  0.3646
 1064TIP3   OH224826   2.080   4.120   0.546  0.3867  0.6029  0.4241
 1064TIP3    H124827   2.055   4.084   0.460  0.3380 -1.6164  1.3290
 1064TIP3    H224828   2.004   4.104   0.601  0.4857  1.8782  0.9246
 1065TIP3   OH224829   5.573   4.270   8.125 -0.0012 -0.2995 -0.1698
 1065TIP3    H124830   5.549   4.363   8.122 -0.3175 -0.3789 -0.1008
 1065TIP3    H224831   5.608   4.258   8.213 -0.0691 -0.2719 -0.1396
 1066TIP3   OH224832   0.470   0.152   7.341  0.3278 -0.2279 -0.3106
 1066TIP3    H124833   0.383   0.114   7.353  0.5816 -1.2307 -1.4760
 1066TIP3    H224834   0.456   0.247   7.346 -0.9626 -0.3548 -1.2191
 1067TIP3   OH224835   7.003   2.185   8.074  0.2258  0.4004  0.2214
 1067TIP3    H124836   7.036   2.159   8.160  0.9360  0.5181 -0.0123
 1067TIP3    H224837   6.937   2.252   8.093  1.1589  1.2256  0.6279
 1068TIP3   OH224838   2.897   3.493   7.395  0.2148 -0.4094 -0.0454
 1068TIP3    H124839   2.817   3.477   7.446  0.3302 -0.6286  0.0705
 1068TIP3    H224840   2.963   3.437   7.437  0.3369 -0.5070 -0.3664
 1069TIP3   OH224841   6.230   3.238   0.585  0.0280  0.2832  0.2528
 1069TIP3    H124842   6.195   3.159   0.627  1.3215 -0.3091  0.2445
 1069TIP3    H224843   6.183   3.243   0.502  0.4495 -0.9031 -0.0704
 1070TIP3   OH224844   6.789   4.572   0.059  0.4394 -0.3032 -0.1026
 1070TIP3    H124845   6.802   4.632  -0.014 -0.2157  0.5707  0.4954
 1070TIP3    H224846   6.840   4.494   0.035  0.0453 -0.1215 -1.5957
 1071TIP3   OH224847   6.748   1.171   0.165 -0.5294 -0.0305  0.5459
 1071TIP3    H124848   6.823   1.131   0.209 -0.4040  1.1517  1.4536
 1071TIP3    H224849   6.673   1.115   0.189  0.1492 -1.5702 -0.8775
 1072TIP3   OH224850   1.130   3.554   7.401 -0.5799 -0.1015  0.2994
 1072TIP3    H124851   1.107   3.468   7.438  0.8795 -1.2465 -1.3700
 1072TIP3    H224852   1.068   3.566   7.329  0.5572 -0.7622 -0.8195
 1073TIP3   OH224853   4.184   5.403   2.049 -0.3123 -0.0976  0.2986
 1073TIP3    H124854   4.091   5.416   2.029 -0.5406 -1.4089  0.5142
 1073TIP3    H224855   4.225   5.387   1.965 -0.5752 -1.2882  0.3871
 1074TIP3   OH224856   1.899   3.490   6.945 -0.0036  0.0258 -0.1353
 1074TIP3    H124857   1.954   3.561   6.976  0.2305 -0.4564  0.5722
 1074TIP3    H224858   1.811   3.510   6.978  0.1271 -0.1818  0.3331
 1075TIP3   OH224859   0.568   2.130   6.202  0.1480  0.5351  0.4042
 1075TIP3    H124860   0.554   2.209   6.148  1.5596 -0.1181 -0.9469
 1075TIP3    H224861   0.506   2.067   6.167 -1.7903  1.3764  2.2373
 1076TIP3   OH224862   0.773   5.196   0.955  0.2399  0.1514 -0.5535
 1076TIP3    H124863   0.816   5.112   0.941  0.4186  0.3595 -1.2977
 1076TIP3    H224864   0.837   5.249   1.003  0.0572 -0.1932  0.0768
 1077TIP3   OH224865   0.106   2.731   6.382 -0.3089 -0.7208  0.1653
 1077TIP3    H124866   0.082   2.752   6.472 -1.6888  1.7449 -0.7264
 1077TIP3    H224867   0.057   2.794   6.329  0.9723 -1.7151 -2.2755
 1078TIP3   OH224868   0.183   1.412   0.256 -0.3796  0.4355  0.0497
 1078TIP3    H124869   0.227   1.399   0.340  1.7505 -0.3777 -1.1735
 1078TIP3    H224870   0.207   1.501   0.230  1.6747 -0.4858 -1.2598
 1079TIP3   OH224871   5.487   2.459   0.193  0.1580  0.0114  0.0129
 1079TIP3    H124872   5.525   2.372   0.182 -0.3964 -0.2186 -0.1142
 1079TIP3    H224873   5.492   2.476   0.287  0.9877  0.1770 -0.0564
 1080TIP3   OH224874   0.432   3.725   7.444  0.3236 -0.7713  0.1259
 1080TIP3    H124875   0.470   3.684   7.522 -0.4096 -1.6557  0.0279
 1080TIP3    H224876   0.374   3.792   7.479  1.0117 -0.2570  0.3040
 1081TIP3   OH224877   4.234   0.371   6.991  0.1956  0.1812 -0.1221
 1081TIP3    H124878   4.160   0.428   6.971  1.4518  1.7978 -0.2891
 1081TIP3    H224879   4.303   0.398   6.929  0.5862 -2.0152 -0.6946
 1082TIP3   OH224880   1.868   2.515   7.977 -0.2377 -0.2403 -0.1918
 1082TIP3    H124881   1.952   2.477   8.004  0.4465  1.0135 -0.5021
 1082TIP3    H224882   1.822   2.444   7.934  0.2249 -1.2436  0.9490
 1083TIP3   OH224883   2.755   2.316   0.456  0.3125 -0.4362  0.7004
 1083TIP3    H124884   2.743   2.402   0.496 -0.4950 -0.6826  1.0037
 1083TIP3    H224885   2.756   2.255   0.531  0.6050 -0.7126  0.4712
 1084TIP3   OH224886   3.031   2.764   7.362  0.1804 -0.2881 -0.0404
 1084TIP3    H124887   3.042   2.807   7.278  0.1018 -0.4880 -0.1541
 1084TIP3    H224888   3.005   2.834   7.422 -0.7520 -0.3223 -0.3997
 1085TIP3   OH224889   6.016   3.985   0.079 -0.7616  0.4136  0.5754
 1085TIP3    H124890   6.105   3.978   0.113 -0.1332  0.1009 -1.0915
 1085TIP3    H224891   6.009   3.914   0.015 -2.2271  0.4142  0.7078
 1086TIP3   OH224892   0.694   4.613   5.728  0.2083  0.4131 -0.4110
 1086TIP3    H124893   0.771   4.563   5.701 -1.1157 -3.0675  1.9932
 1086TIP3    H224894   0.623   4.549   5.729 -2.0277  2.8360  0.6875
 1087TIP3   OH224895   4.078   5.106   1.912  0.3146 -0.0125 -0.6418
 1087TIP3    H124896   4.157   5.105   1.858  0.1370  1.9074 -0.9687
 1087TIP3    H224897   4.108   5.139   1.996 -0.3286  1.7516 -1.0955
 1088TIP3   OH224898   3.240   2.519   7.282 -0.1095 -0.3399 -0.1541
 1088TIP3    H124899   3.316   2.548   7.331 -1.0743  0.1043  1.1045
 1088TIP3    H224900   3.275   2.492   7.197  1.2831  0.9875 -0.0194
 1089TIP3   OH224901   4.031   4.910   7.019  0.2848 -0.1535 -0.1080
 1089TIP3    H124902   4.091   4.852   6.971 -0.0892 -0.9465  0.3729
 1089TIP3    H224903   4.003   4.858   7.094 -0.8699  0.2746 -0.2349
 1090TIP3   OH224904   0.787   2.637   0.176  0.6754 -0.4267 -0.5797
 1090TIP3    H124905   0.706   2.649   0.225  1.1395 -0.4959  0.2204
 1090TIP3    H224906   0.834   2.568   0.223  2.4968  1.5982  0.7171
 1091TIP3   OH224907   4.511   6.298   7.610 -0.1729 -0.2812 -0.3766
 1091TIP3    H124908   4.537   6.361   7.543 -0.8917  1.0779  0.5931
 1091TIP3    H224909   4.419   6.319   7.629  0.0986 -0.4353  1.2288
 1092TIP3   OH224910   6.535   4.196   7.011  0.2601 -0.0916  0.0174
 1092TIP3    H124911   6.625   4.171   7.030  0.2051 -0.1056  0.2606
 1092TIP3    H224912   6.539   4.290   6.995  0.4790 -0.2649 -0.9646
 1093TIP3   OH224913   0.452   1.776   6.684 -0.2594 -0.0047  0.3141
 1093TIP3    H124914   0.464   1.805   6.774 -3.0428  0.4129  0.5946
 1093TIP3    H224915   0.512   1.830   6.633  1.2346 -0.1475  1.8921
 1094TIP3   OH224916   1.745   3.708   6.585  0.2915 -0.1274  0.0156
 1094TIP3    H124917   1.798   3.760   6.646  0.8202  0.8525 -1.2720
 1094TIP3    H224918   1.693   3.772   6.537 -0.1864 -0.9073 -0.5290
 1095TIP3   OH224919   0.096   4.097   6.469  0.4806  0.2237 -0.5704
 1095TIP3    H124920   0.040   4.137   6.403  2.0856  2.6648 -0.5603
 1095TIP3    H224921   0.142   4.027   6.423 -3.0495 -2.3074 -0.3777
 1096TIP3   OH224922   2.002   4.417   0.680  0.3408 -0.4939  0.6157
 1096TIP3    H124923   2.061   4.463   0.740  0.6769 -2.5635  1.9299
 1096TIP3    H224924   2.060   4.376   0.615 -0.0138  1.6484 -1.1166
 1097TIP3   OH224925   3.594   1.042   0.039 -0.5847 -0.1341 -0.4651
 1097TIP3    H124926   3.535   0.997   0.099  0.1999 -0.6175 -0.0504
 1097TIP3    H224927   3.625   1.118   0.088  0.5618 -0.8867 -0.0327
 1098TIP3   OH224928   3.731   2.856   7.019  0.1869  0.6093 -0.2872
 1098TIP3    H124929   3.708   2.917   6.949 -1.0308  1.4363  0.8027
 1098TIP3    H224930   3.792   2.794   6.979  0.0201  1.4704 -1.8878
 1099TIP3   OH224931   0.965   2.735   5.930  0.3613  0.1981  0.6193
 1099TIP3    H124932   0.875   2.747   5.960  0.6146  0.1186  1.4095
 1099TIP3    H224933   0.994   2.822   5.903 -0.2429  0.0741 -0.4493
 1100TIP3   OH224934   0.885   3.796   6.562 -0.0482 -0.1188  0.0646
 1100TIP3    H124935   0.887   3.866   6.627  1.2635  2.1665 -2.3429
 1100TIP3    H224936   0.915   3.718   6.610  0.9670  1.5157  2.1803
 1101TIP3   OH224937   5.284   4.419   6.254  0.3537 -0.0887 -0.5057
 1101TIP3    H124938   5.235   4.476   6.313  1.3202 -0.1561  0.3838
 1101TIP3    H224939   5.321   4.478   6.189  1.3257  0.3189  0.3935
 1102TIP3   OH224940   6.991   4.933   7.270  0.2793 -0.8687 -0.5207
 1102TIP3    H124941   7.031   4.931   7.183 -0.0445  2.2884 -0.8290
 1102TIP3    H224942   7.065   4.940   7.330  0.4098  1.2057 -0.8624
 1103TIP3   OH224943   1.001   1.243   7.743  0.1864  0.1885  0.0897
 1103TIP3    H124944   1.000   1.323   7.796  0.7502  0.2685 -0.0195
 1103TIP3    H224945   0.911   1.234   7.712  0.3049  1.2382 -0.5744
 1104TIP3   OH224946   4.033   3.162   0.351 -0.1331  0.0725  0.0320
 1104TIP3    H124947   4.095   3.189   0.419 -0.7739 -0.8684  1.0052
 1104TIP3    H224948   4.069   3.080   0.316  1.4689  1.7722 -2.4667
 1105TIP3   OH224949   7.090   4.043   7.736  0.4961 -0.2849 -0.0918
 1105TIP3    H124950   7.095   4.125   7.785 -0.8941  0.2492 -0.8124
 1105TIP3    H224951   7.143   4.059   7.658  1.4687 -0.6091  0.4934
 1106TIP3   OH224952   3.567   5.160   7.371 -0.4080 -0.1752  0.3764
 1106TIP3    H124953   3.540   5.079   7.415 -1.9061 -0.6359 -1.3349
 1106TIP3    H224954   3.503   5.226   7.401 -1.5957 -0.5493 -1.2421
 1107TIP3   OH224955   6.241   2.103   6.836  0.0061 -0.0863 -0.5593
 1107TIP3    H124956   6.220   2.192   6.862  0.7228 -0.2721  0.6653
 1107TIP3    H224957   6.305   2.114   6.765  1.3560  0.3617  0.6999
 1108TIP3   OH224958   0.803   6.967   7.469  0.1476  0.0926  0.0470
 1108TIP3    H124959   0.767   6.917   7.395  0.4213 -1.9272  1.2420
 1108TIP3    H224960   0.730   7.022   7.499 -0.3026  0.0571 -0.9751
 1109TIP3   OH224961   0.264   0.918   0.981 -0.0231  0.1128  0.3179
 1109TIP3    H124962   0.314   0.844   1.015  0.3444  0.4187  0.4391
 1109TIP3    H224963   0.195   0.877   0.928  1.2709 -0.2694 -1.1088
 1110TIP3   OH224964   3.305   2.432   0.695 -0.2080  0.1937 -0.0198
 1110TIP3    H124965   3.255   2.425   0.613 -1.6281 -0.9705  0.9244
 1110TIP3    H224966   3.248   2.392   0.761  1.4200  0.0779  1.3295
 1111TIP3   OH224967   0.429   0.983   7.141  0.4261 -0.2740 -0.0750
 1111TIP3    H124968   0.394   1.014   7.224  0.0631  1.6149 -0.9100
 1111TIP3    H224969   0.371   0.910   7.116  0.8481 -1.1896  1.5430
 1112TIP3   OH224970   5.723   1.719   7.561 -1.1570  0.1376  0.1242
 1112TIP3    H124971   5.738   1.790   7.623 -0.5483 -0.4200  0.6287
 1112TIP3    H224972   5.776   1.646   7.595 -0.8405 -0.1862 -1.0262
 1113TIP3   OH224973   6.519   0.692   0.929  0.1795  0.3700  0.4954
 1113TIP3    H124974   6.533   0.775   0.975  2.1947 -1.5642  3.4859
 1113TIP3    H224975   6.454   0.646   0.982 -0.4946 -0.2573 -0.8507
 1114TIP3   OH224976   4.269   3.243   1.300 -0.6537  0.3917 -0.0633
 1114TIP3    H124977   4.269   3.239   1.395  0.1395  0.6025 -0.0529
 1114TIP3    H224978   4.181   3.214   1.275 -1.5925  2.3942  0.8154
 1115TIP3   OH224979   0.071   3.163   1.674 -0.3170  0.1979 -0.5014
 1115TIP3    H124980   0.145   3.109   1.702 -0.2077  0.4930 -0.2203
 1115TIP3    H224981   0.008   3.101   1.637  0.1560 -0.0316 -0.9329
 1116TIP3   OH224982   6.804   6.159   6.517 -0.2013  0.2552  0.1135
 1116TIP3    H124983   6.810   6.065   6.534  2.0290  0.3541  0.1228
 1116TIP3    H224984   6.852   6.172   6.435 -0.6512  1.3599  0.0110
 1117TIP3   OH224985   1.147   1.734   6.647  0.2465  0.1493 -0.3310
 1117TIP3    H124986   1.189   1.732   6.561  0.7387 -0.8400 -0.0758
 1117TIP3    H224987   1.076   1.798   6.638  0.1324 -0.1387 -1.5379
 1118TIP3   OH224988   6.483   0.063   1.451 -0.1322 -0.3634  0.1061
 1118TIP3    H124989   6.486   0.013   1.369  2.1673 -1.3159  0.7306
 1118TIP3    H224990   6.479  -0.003   1.519  0.8884  0.3457  0.8711
 1119TIP3   OH224991   0.648   5.933   1.526  0.0331  0.0912 -0.0542
 1119TIP3    H124992   0.730   5.884   1.515 -0.5024 -0.9853  0.6291
 1119TIP3    H224993   0.625   5.963   1.439  0.6467 -0.4431 -0.4012
 1120TIP3   OH224994   0.206   1.374   1.705 -0.2505  0.3273 -0.5339
 1120TIP3    H124995   0.208   1.446   1.769 -0.7533 -0.3951  0.3013
 1120TIP3    H224996   0.241   1.413   1.625 -0.1914  1.4145  0.0062
 1121TIP3   OH224997   1.425   2.410   2.375  0.4533  0.0963 -0.4049
 1121TIP3    H124998   1.517   2.401   2.403  0.7010  0.9032 -0.9338
 1121TIP3    H224999   1.397   2.321   2.355  1.2180 -0.1176 -0.5399
 1122TIP3   OH225000   3.162   4.061   7.416  0.1026  0.8892 -0.1018
 1122TIP3    H125001   3.087   4.002   7.416  1.8067 -1.3522 -0.4685
 1122TIP3    H225002   3.203   4.049   7.502  2.2480 -0.8667 -1.3208
 1123TIP3   OH225003   5.781   5.122   0.843  0.1513  1.0340  0.5439
 1123TIP3    H125004   5.829   5.190   0.890  0.6076  2.9143 -2.4886
 1123TIP3    H225005   5.828   5.113   0.760 -1.8081 -0.6867 -0.4135
 1124TIP3   OH225006   2.461   4.865   7.341 -0.1475  0.5163  0.2811
 1124TIP3    H125007   2.367   4.881   7.343 -0.3476 -0.2031 -1.7018
 1124TIP3    H225008   2.470   4.776   7.375 -0.4722 -0.4000 -1.9488
 1125TIP3   OH225009   1.411   2.047   7.596  0.1860 -0.3431 -0.5083
 1125TIP3    H125010   1.364   2.116   7.548  1.7414  1.1767  0.0742
 1125TIP3    H225011   1.494   2.038   7.549  1.4503  0.6861  1.4585
 1126TIP3   OH225012   7.119   1.415   7.981 -0.2760 -0.9577  0.2578
 1126TIP3    H125013   7.082   1.354   7.918 -0.1963  0.7669 -1.5315
 1126TIP3    H225014   7.046   1.470   8.008  0.4553  0.9991 -1.5693
 1127TIP3   OH225015   3.234   5.275   6.485 -0.0878  0.3628 -0.0093
 1127TIP3    H125016   3.245   5.247   6.394 -0.1672  1.4523 -0.3607
 1127TIP3    H225017   3.268   5.202   6.537  2.2011  0.7216 -0.9593
 1128TIP3   OH225018   5.229   3.816   1.396 -0.5979 -0.4882 -0.5382
 1128TIP3    H125019   5.237   3.727   1.431 -0.5754 -0.5920 -0.8070
 1128TIP3    H225020   5.208   3.870   1.473  0.9530 -0.4747 -0.1188
 1129TIP3   OH225021   0.859   3.336   6.207  0.2659  0.1121  1.1736
 1129TIP3    H125022   0.879   3.364   6.296  1.9695  2.0798  0.2276
 1129TIP3    H225023   0.916   3.390   6.152 -1.2672 -0.5659 -1.1460
 1130TIP3   OH225024   6.221   0.794   0.268  0.2225 -0.3546 -0.2420
 1130TIP3    H125025   6.220   0.874   0.215  2.5102  0.7304  1.2996
 1130TIP3    H225026   6.310   0.760   0.261 -0.1859 -1.6921  0.6975
 1131TIP3   OH225027   0.093   5.939   0.880  0.2813 -0.2392  0.0838
 1131TIP3    H125028   0.168   5.883   0.900 -0.2716 -0.9620  0.2081
 1131TIP3    H225029   0.110   5.972   0.792  0.2801 -1.1942 -0.2872
 1132TIP3   OH225030   0.401   4.033   6.439 -0.3274  0.2680  0.3080
 1132TIP3    H125031   0.413   3.991   6.525 -0.7174 -0.7084 -0.1042
 1132TIP3    H225032   0.356   3.966   6.387  2.0320 -0.0339 -1.3805
 1133TIP3   OH225033   0.189   4.205   5.802  0.3100  0.1372  1.4411
 1133TIP3    H125034   0.151   4.244   5.723  2.0189 -1.0156  0.0245
 1133TIP3    H225035   0.217   4.280   5.855  2.0662  0.9030 -0.5152
 1134TIP3   OH225036   0.276   4.654   7.056  0.4674  0.0997 -0.1890
 1134TIP3    H125037   0.196   4.606   7.080  1.3853 -0.9885  0.7891
 1134TIP3    H225038   0.273   4.734   7.109  0.5687 -0.4660  0.6738
 1135TIP3   OH225039   6.411   5.080   7.727 -0.7204 -0.6461 -0.5249
 1135TIP3    H125040   6.426   5.079   7.633  0.4303  0.4624 -0.3690
 1135TIP3    H225041   6.319   5.103   7.737 -0.5056  0.5793 -1.3606
 1136TIP3   OH225042   7.116   4.221   7.952  0.0608 -0.4669 -0.0319
 1136TIP3    H125043   7.137   4.256   8.039  0.0092 -2.3601  0.7865
 1136TIP3    H225044   7.044   4.276   7.921 -1.1892 -0.9104  1.9594
 1137TIP3   OH225045   2.307   1.771   6.930 -0.5319  0.4912  0.7889
 1137TIP3    H125046   2.298   1.776   6.835 -0.2993 -1.5037  0.6379
 1137TIP3    H225047   2.319   1.678   6.948 -0.8202  0.8181  2.8013
 1138TIP3   OH225048   0.383   3.591   5.712  0.0173  0.0442  0.0064
 1138TIP3    H125049   0.315   3.537   5.672  1.1253 -0.7320 -0.8585
 1138TIP3    H225050   0.335   3.650   5.771 -1.2638 -1.5122  0.5705
 1139TIP3   OH225051   6.734   2.526   6.381  0.2261  0.0046  0.2108
 1139TIP3    H125052   6.814   2.577   6.370  0.0023 -0.0592 -1.8724
 1139TIP3    H225053   6.665   2.578   6.339 -0.1902 -1.4950 -1.0102
 1140TIP3   OH225054   7.134   3.862   6.090  0.6585  0.0555 -0.2735
 1140TIP3    H125055   7.124   3.927   6.020  0.4451 -0.6937 -0.9453
 1140TIP3    H225056   7.049   3.819   6.095  0.7755 -0.1176  0.2331
 1141TIP3   OH225057   1.210   2.352   7.524  0.1292 -0.3975  0.1840
 1141TIP3    H125058   1.139   2.293   7.550  0.9545 -1.5408 -0.1111
 1141TIP3    H225059   1.181   2.389   7.441  0.0736 -1.2005 -0.1580
 1142TIP3   OH225060   1.596   3.836   7.448  0.0758  0.4936 -0.2628
 1142TIP3    H125061   1.540   3.894   7.395 -0.8172 -0.3524 -0.2529
 1142TIP3    H225062   1.582   3.749   7.412  1.6172  0.3125 -0.4342
 1143TIP3   OH225063   4.942   5.316   6.927 -0.2018  0.1095  0.3689
 1143TIP3    H125064   4.879   5.327   6.856  0.4043  1.6545  0.0605
 1143TIP3    H225065   5.013   5.377   6.906  1.2756 -1.3967  0.8594
 1144TIP3   OH225066   6.825   6.398   0.366 -0.5886  0.5398 -0.1860
 1144TIP3    H125067   6.789   6.372   0.451  0.4948 -1.6588 -0.3423
 1144TIP3    H225068   6.918   6.375   0.372 -0.3057  1.2740 -1.6232
 1145TIP3   OH225069   3.383   2.225   0.445 -0.5377  0.3194  0.1854
 1145TIP3    H125070   3.299   2.257   0.474 -0.2513 -0.9034  2.4701
 1145TIP3    H225071   3.363   2.144   0.397 -0.7499  0.6288 -0.2479
 1146TIP3   OH225072   3.660   1.762   0.558  0.1915  0.1846 -0.6660
 1146TIP3    H125073   3.691   1.689   0.504  2.0646 -1.3697  2.3349
 1146TIP3    H225074   3.565   1.749   0.563  0.4831 -1.9962 -0.3060
 1147TIP3   OH225075   2.025   1.561   7.682 -0.0829 -0.3070  1.0337
 1147TIP3    H125076   2.019   1.475   7.724  1.8279 -1.1719 -0.4231
 1147TIP3    H225077   2.084   1.548   7.608 -0.4385  2.0760  0.2936
 1148TIP3   OH225078   2.724   1.777   6.908 -0.3958  0.3079  0.5611
 1148TIP3    H125079   2.766   1.861   6.890 -0.2473  0.0546 -0.2999
 1148TIP3    H225080   2.681   1.754   6.825  0.5523 -1.0402  0.4323
 1149TIP3   OH225081   0.098   2.732   6.668  0.4199 -0.6784  0.3038
 1149TIP3    H125082   0.054   2.665   6.722  2.3723 -0.0321  2.8003
 1149TIP3    H225083   0.190   2.705   6.668  1.4358  2.5148  2.2744
 1150TIP3   OH225084   2.775   0.784   8.122 -0.1346 -0.2222  0.0898
 1150TIP3    H125085   2.696   0.747   8.082  0.5325 -0.4345 -1.0450
 1150TIP3    H225086   2.833   0.804   8.048  0.2908  1.3178  0.8190
 1151TIP3   OH225087   4.735   0.119   0.805  0.1019  0.1229 -0.5071
 1151TIP3    H125088   4.674   0.051   0.776 -1.2852  1.0249  0.1959
 1151TIP3    H225089   4.761   0.165   0.725  0.6894 -0.9426 -0.9309
 1152TIP3   OH225090   0.275   6.006   7.055  0.3997  0.5869 -0.8314
 1152TIP3    H125091   0.339   6.068   7.021  0.8629  1.5236  1.6166
 1152TIP3    H225092   0.320   5.962   7.127 -1.2396  0.2665  0.0236
 1153TIP3   OH225093   6.145   1.481   7.956 -0.0083 -0.2013 -0.1609
 1153TIP3    H125094   6.225   1.439   7.989 -1.3012 -1.6091  1.3242
 1153TIP3    H225095   6.101   1.412   7.907 -0.6022  0.3743 -0.4339
 1154TIP3   OH225096   1.655   0.788   1.709 -0.1668 -0.1221 -0.0903
 1154TIP3    H125097   1.691   0.700   1.727 -0.4878 -0.1213  0.5697
 1154TIP3    H225098   1.571   0.789   1.754  0.1417  0.7686  0.4857
 1155TIP3   OH225099   4.361   1.063   7.948  0.4226 -0.1599 -0.5102
 1155TIP3    H125100   4.315   1.119   7.886  1.2447 -1.2387 -2.1344
 1155TIP3    H225101   4.326   0.975   7.932 -1.7473  0.0195  2.8685
 1156TIP3   OH225102   2.404   4.816   0.654 -0.2423  0.5392  0.0953
 1156TIP3    H125103   2.473   4.774   0.704  0.1764  0.5617 -0.4547
 1156TIP3    H225104   2.448   4.850   0.576 -0.9233  0.2953 -0.4037
 1157TIP3   OH225105   0.739   3.823   1.451  0.3713  0.0031 -0.0130
 1157TIP3    H125106   0.751   3.749   1.511  1.3438  0.2970  0.1685
 1157TIP3    H225107   0.739   3.900   1.508 -0.4581  0.1624 -0.2215
 1158TIP3   OH225108   2.756   2.082   1.696  0.1519 -0.2389  0.4806
 1158TIP3    H125109   2.780   2.035   1.775  0.9013 -1.2716 -0.3373
 1158TIP3    H225110   2.760   2.175   1.720 -0.0029 -0.5528  1.7385
 1159TIP3   OH225111   0.749   3.011   6.691 -0.1140 -0.2559  0.1480
 1159TIP3    H125112   0.730   3.101   6.664  2.0214  0.9331  2.3757
 1159TIP3    H225113   0.821   2.984   6.634  2.3536  1.1601  2.5080
 1160TIP3   OH225114   2.296   1.457   6.391 -0.4215 -0.3162 -0.5160
 1160TIP3    H125115   2.268   1.441   6.481 -0.2091  1.2761 -0.1637
 1160TIP3    H225116   2.247   1.393   6.339 -0.1379 -1.6082  0.7860
 1161TIP3   OH225117   2.674   3.498   7.949 -0.1705 -0.3454 -0.2234
 1161TIP3    H125118   2.678   3.509   8.044 -1.2053  1.5920 -0.3676
 1161TIP3    H225119   2.582   3.477   7.931 -0.0622 -0.3177 -0.8317
 1162TIP3   OH225120   6.379   5.462   7.127 -0.7462 -0.0871  0.1037
 1162TIP3    H125121   6.424   5.408   7.062  0.7784  0.7789  0.3994
 1162TIP3    H225122   6.334   5.400   7.183  0.1526 -1.0024 -0.1698
 1163TIP3   OH225123   1.931   4.211   0.940 -0.2556 -0.0798 -0.2977
 1163TIP3    H125124   1.859   4.162   0.900 -0.1104 -1.6944  1.3407
 1163TIP3    H225125   1.898   4.301   0.945 -2.4887 -0.9235  1.1094
 1164TIP3   OH225126   3.834   1.186   1.128  0.4853  0.5191 -0.9117
 1164TIP3    H125127   3.907   1.247   1.119 -0.0444  1.2387 -0.3738
 1164TIP3    H225128   3.874   1.099   1.128  1.4065  0.9468  0.2823
 1165TIP3   OH225129   7.001   0.316   0.788 -0.1566  0.1905 -0.6758
 1165TIP3    H125130   6.973   0.280   0.872  2.5653 -0.8267 -0.1316
 1165TIP3    H225131   7.060   0.388   0.812 -0.9947  1.2467 -1.7408
 1166TIP3   OH225132   6.921   3.204   1.725 -0.0430 -0.1650  0.0891
 1166TIP3    H125133   6.852   3.185   1.788 -0.7958 -0.6011 -0.8452
 1166TIP3    H225134   6.961   3.119   1.706 -0.5002 -0.1997 -0.7758
 1167TIP3   OH225135   0.911   4.050   5.424  0.0447 -0.2814 -0.4633
 1167TIP3    H125136   0.977   4.055   5.494 -1.0785 -1.8188  0.7292
 1167TIP3    H225137   0.896   4.141   5.399  2.2889  0.1169 -0.4467
 1168TIP3   OH225138   3.525   2.857   1.163  0.4007  0.2821 -0.2238
 1168TIP3    H125139   3.481   2.911   1.229  0.2239 -0.9203  0.6745
 1168TIP3    H225140   3.454   2.810   1.119  0.3074  2.8018 -2.9144
 1169TIP3   OH225141   6.890   1.683   7.664  0.1969  0.4589 -0.2226
 1169TIP3    H125142   6.858   1.594   7.651 -0.3402  0.6313 -0.0671
 1169TIP3    H225143   6.814   1.732   7.693 -0.3468  1.7626 -3.6190
 1170TIP3   OH225144   0.469   2.949   6.666 -0.6363 -0.2483  0.3291
 1170TIP3    H125145   0.563   2.947   6.648 -0.0681 -0.2806  3.1174
 1170TIP3    H225146   0.431   2.995   6.591  1.7228  0.5693 -0.3966
 1171TIP3   OH225147   2.289   3.907   6.439  0.0964 -0.0224 -0.4764
 1171TIP3    H125148   2.382   3.921   6.456  0.1768 -0.4459 -0.5687
 1171TIP3    H225149   2.267   3.828   6.488 -0.5972  0.9654  0.8360
 1172TIP3   OH225150   6.780   6.112   7.476  0.3095  0.6770  0.3946
 1172TIP3    H125151   6.840   6.052   7.520 -1.9180 -1.2835  0.8672
 1172TIP3    H225152   6.780   6.083   7.385  2.6270  2.8466 -0.3619
 1173TIP3   OH225153   2.044   4.215   7.937  0.4023  0.0146  0.0502
 1173TIP3    H125154   2.115   4.183   7.881 -2.1320 -2.4056 -1.9199
 1173TIP3    H225155   2.009   4.136   7.978 -2.1363  0.9813 -0.1995
 1174TIP3   OH225156   1.130   4.401   6.640  0.2037  0.4041 -0.3050
 1174TIP3    H125157   1.057   4.452   6.674  0.4216 -0.6677  1.8592
 1174TIP3    H225158   1.204   4.461   6.641  0.2268  0.3730  1.2546
 1175TIP3   OH225159   5.793   3.701   6.819 -0.1810  0.5596  0.6893
 1175TIP3    H125160   5.847   3.632   6.780  0.4473 -0.1114  2.6498
 1175TIP3    H225161   5.730   3.724   6.751  0.1014 -1.4095 -0.2862
 1176TIP3   OH225162   6.423   4.849   0.336 -0.0463  0.4479 -0.6499
 1176TIP3    H125163   6.468   4.841   0.252  1.9302 -1.2839  0.4874
 1176TIP3    H225164   6.399   4.759   0.359 -1.8055  1.0602 -0.0104
 1177TIP3   OH225165   2.826   7.074   7.441  0.1811 -0.2761  0.5010
 1177TIP3    H125166   2.918   7.062   7.417 -0.0903  0.1977 -0.8374
 1177TIP3    H225167   2.808   7.166   7.421 -0.7325 -0.5068  0.2372
 1178TIP3   OH225168   0.243   5.380   7.600  0.3122 -0.2107  0.3026
 1178TIP3    H125169   0.276   5.385   7.510 -0.1899  1.0788  0.1823
 1178TIP3    H225170   0.318   5.349   7.651  0.7439 -0.4789 -0.4736
 1179TIP3   OH225171   0.731   1.197   7.659  0.0395 -0.1016  0.0611
 1179TIP3    H125172   0.709   1.135   7.589  1.2326 -0.8335  0.3153
 1179TIP3    H225173   0.680   1.275   7.639  0.3090 -0.3340 -1.5882
 1180TIP3   OH225174   1.816   1.898   7.446 -0.0451  0.2024  0.4878
 1180TIP3    H125175   1.798   1.987   7.476 -0.9170  0.2488 -0.1614
 1180TIP3    H225176   1.836   1.849   7.526 -0.5264  0.7533  0.9462
 1181TIP3   OH225177   3.494   3.428   1.821 -0.0354  0.3725 -0.2063
 1181TIP3    H125178   3.560   3.370   1.858 -0.1850  0.0886 -0.3836
 1181TIP3    H225179   3.501   3.509   1.872  0.7012  0.4728 -0.4633
 1182TIP3   OH225180   2.701   2.408   6.449  0.4353  0.0335 -0.2924
 1182TIP3    H125181   2.612   2.425   6.417  0.5488 -0.1922 -0.7223
 1182TIP3    H225182   2.752   2.392   6.370  0.7745 -0.2335 -0.0177
 1183TIP3   OH225183   1.953   2.434   5.794 -0.7309 -0.2539 -0.0483
 1183TIP3    H125184   1.941   2.523   5.830 -3.6398 -0.6122  0.0200
 1183TIP3    H225185   2.039   2.436   5.754 -0.4867  2.4468  0.4803
 1184TIP3   OH225186   1.006   4.670   8.018 -0.1710 -0.0835 -0.6821
 1184TIP3    H125187   1.005   4.574   8.025  0.1171 -0.0232  0.4358
 1184TIP3    H225188   1.086   4.695   8.064 -0.6007  0.7341 -0.3820
 1185TIP3   OH225189   2.834   4.585   0.470  0.1268 -0.3064 -0.1988
 1185TIP3    H125190   2.867   4.602   0.558  1.6824 -0.3066 -0.7633
 1185TIP3    H225191   2.739   4.573   0.481  0.2030  0.4425  1.3567
 1186TIP3   OH225192   0.293   1.353   1.299  0.5634 -0.4021 -0.1397
 1186TIP3    H125193   0.254   1.402   1.227  0.1650 -0.2799  0.1529
 1186TIP3    H225194   0.254   1.392   1.378  0.7289 -0.7630  0.1216
 1187TIP3   OH225195   4.263   0.266   6.667 -0.0983 -0.2022  0.0307
 1187TIP3    H125196   4.304   0.206   6.605  1.3718 -0.8637  1.6304
 1187TIP3    H225197   4.178   0.285   6.628  1.2943  0.3978 -2.8185
 1188TIP3   OH225198   6.812   2.245   7.484  0.0304 -0.3241 -0.0250
 1188TIP3    H125199   6.844   2.316   7.429  0.1689 -0.6307 -0.3394
 1188TIP3    H225200   6.890   2.194   7.507 -0.2432 -1.1713 -0.9337
 1189TIP3   OH225201   2.544   2.815   7.119 -0.3111 -0.2198 -0.1058
 1189TIP3    H125202   2.488   2.890   7.139 -0.1936  0.0130 -0.6470
 1189TIP3    H225203   2.606   2.848   7.053  1.6251  0.0399  1.7772
 1190TIP3   OH225204   6.892   4.166   6.340  0.5713  0.5310 -0.6794
 1190TIP3    H125205   6.975   4.188   6.297 -0.5853  2.1162 -2.1881
 1190TIP3    H225206   6.869   4.080   6.306  1.9004 -0.1960  0.2315
 1191TIP3   OH225207   0.750   3.810   5.476 -0.0881 -0.0378  0.5903
 1191TIP3    H125208   0.697   3.859   5.540  2.7439  1.5204  1.8368
 1191TIP3    H225209   0.812   3.874   5.442  2.2296 -2.2089  0.5519
 1192TIP3   OH225210   3.331   2.539   0.180  0.4214 -0.1464  0.8305
 1192TIP3    H125211   3.409   2.558   0.231 -0.5809  0.5460  2.1331
 1192TIP3    H225212   3.269   2.608   0.203 -0.2535 -0.1503 -0.8919
 1193TIP3   OH225213   4.930   3.864   0.402  0.0735  0.1990  0.0373
 1193TIP3    H125214   4.947   3.866   0.308 -1.7722  1.7931 -0.3030
 1193TIP3    H225215   4.860   3.799   0.412 -1.0728  1.3994  0.0314
 1194TIP3   OH225216   1.784   4.639   6.395 -0.1064 -0.0741 -0.3773
 1194TIP3    H125217   1.724   4.712   6.378  1.1262  1.4909  1.8095
 1194TIP3    H225218   1.859   4.656   6.338  0.2727  0.4925  0.2866
 1195TIP3   OH225219   0.863   3.529   7.000  0.0738  0.2025  0.4971
 1195TIP3    H125220   0.792   3.504   7.059 -0.8433 -0.5927 -0.9044
 1195TIP3    H225221   0.840   3.488   6.916  2.1319  0.0205 -0.0094
 1196TIP3   OH225222   2.417   6.383   0.866  0.1060 -0.4466 -0.0456
 1196TIP3    H125223   2.357   6.371   0.792 -0.6771 -2.1381  0.8547
 1196TIP3    H225224   2.403   6.474   0.893 -0.3271 -0.1187 -1.3303
 1197TIP3   OH225225   2.519   4.026   1.505  0.1338 -0.5838  0.0988
 1197TIP3    H125226   2.573   4.090   1.459 -0.4174 -0.4262 -0.3381
 1197TIP3    H225227   2.576   3.951   1.518  1.3252  0.6317  2.1512
 1198TIP3   OH225228   0.033   5.277   7.346 -0.0048 -0.0867 -0.2536
 1198TIP3    H125229   0.117   5.233   7.331  1.2185  2.4174 -0.8986
 1198TIP3    H225230   0.055   5.369   7.357 -2.5759  0.4672  0.6563
 1199TIP3   OH225231   3.036   2.017   1.611 -0.6289  0.0263  0.7132
 1199TIP3    H125232   3.036   1.925   1.585 -2.7560  0.6768 -1.8872
 1199TIP3    H225233   2.943   2.040   1.616 -0.1269  2.2486  0.3473
 1200TIP3   OH225234   2.027   0.153   1.272 -0.7399  0.3491 -0.5036
 1200TIP3    H125235   1.994   0.230   1.227 -0.0545 -0.1158 -1.8007
 1200TIP3    H225236   2.043   0.183   1.362 -0.1550  1.7833 -1.0798
 1201TIP3   OH225237   0.576   5.130   5.786  0.2850 -0.6703 -0.2313
 1201TIP3    H125238   0.489   5.134   5.824  0.4452 -1.5591  0.2485
 1201TIP3    H225239   0.599   5.037   5.789  1.6988 -0.3128  0.6974
 1202TIP3   OH225240   0.081   0.743   0.245 -0.0282  0.3335 -0.8564
 1202TIP3    H125241   0.082   0.795   0.326 -1.7300 -2.4322  1.0335
 1202TIP3    H225242  -0.003   0.762   0.204 -1.5163 -2.2661  0.8389
 1203TIP3   OH225243   4.029   4.212   6.230 -0.1790  0.4841 -0.0496
 1203TIP3    H125244   4.124   4.222   6.229 -0.3245  2.0179  0.2332
 1203TIP3    H225245   4.012   4.142   6.293  0.6561  1.5033  1.3126
 1204TIP3   OH225246   6.142   3.029   6.173  0.6194 -0.0699  0.3577
 1204TIP3    H125247   6.059   3.030   6.221  0.2755 -0.6481 -0.2197
 1204TIP3    H225248   6.200   2.976   6.227  0.2902 -0.5675  0.2254
 1205TIP3   OH225249   1.853   2.438   7.048  0.4462  0.4628 -0.0496
 1205TIP3    H125250   1.781   2.499   7.030 -0.6279  0.1208  2.7502
 1205TIP3    H225251   1.818   2.380   7.116  2.8906 -0.6222  0.3153
 1206TIP3   OH225252   5.758   3.346   0.085 -0.3185 -0.1959  0.1027
 1206TIP3    H125253   5.780   3.316  -0.003 -0.6303  1.4422 -0.5625
 1206TIP3    H225254   5.840   3.376   0.122 -0.1507 -1.0829  0.4550
 1207TIP3   OH225255   0.206   0.130   7.653 -0.4033  0.0914  0.0425
 1207TIP3    H125256   0.231   0.045   7.618  0.0102 -0.9807  2.7866
 1207TIP3    H225257   0.111   0.129   7.652 -0.4032 -0.4612  0.1375
 1208TIP3   OH225258   2.793   4.706   6.770 -0.1658 -0.2239 -0.5667
 1208TIP3    H125259   2.864   4.674   6.715  0.1244  1.5943 -1.2895
 1208TIP3    H225260   2.832   4.778   6.819 -1.2494  0.1259 -0.2177
 1209TIP3   OH225261   2.755   1.324   7.527  0.1278 -0.0685 -0.2662
 1209TIP3    H125262   2.690   1.290   7.467  0.1311 -2.7598  1.1873
 1209TIP3    H225263   2.815   1.251   7.541  0.7635  0.8686  2.0682
 1210TIP3   OH225264   1.957   2.702   0.080  0.4850 -0.2860  0.0073
 1210TIP3    H125265   1.965   2.743   0.167 -1.1332  0.9835 -0.4115
 1210TIP3    H225266   1.864   2.677   0.075  0.3378  0.5659 -1.7451
 1211TIP3   OH225267   4.631   3.503   7.293 -0.2124 -0.0533 -0.4826
 1211TIP3    H125268   4.589   3.417   7.299  1.3783 -0.9049 -1.2555
 1211TIP3    H225269   4.627   3.538   7.382 -0.2991 -1.2058 -0.0206
 1212TIP3   OH225270   6.951   5.733   8.019  0.5693  0.2151 -0.3154
 1212TIP3    H125271   6.923   5.643   8.001  2.6626 -0.6065  0.4412
 1212TIP3    H225272   6.880   5.770   8.071  0.0688 -1.2747  0.0919
 1213TIP3   OH225273   0.185   4.610   0.282  0.0517  0.1115  0.7324
 1213TIP3    H125274   0.192   4.531   0.336  0.8136  0.3429  0.9768
 1213TIP3    H225275   0.272   4.650   0.286 -0.6954  1.6637  1.6629
 1214TIP3   OH225276   2.238   4.266   5.909  1.0473 -0.4793 -0.3914
 1214TIP3    H125277   2.207   4.357   5.910  1.5655 -0.2934  1.6438
 1214TIP3    H225278   2.213   4.233   5.823 -0.1569  1.2461 -0.7350
 1215TIP3   OH225279   3.125   5.189   7.482 -0.2687  0.1016 -0.1881
 1215TIP3    H125280   3.207   5.235   7.497 -0.3106 -0.2337  1.0623
 1215TIP3    H225281   3.134   5.154   7.393  0.4729  1.0144 -0.4818
 1216TIP3   OH225282   1.383   2.090   6.697  0.1490 -0.4464 -0.7962
 1216TIP3    H125283   1.402   2.180   6.723 -0.2807 -0.2055 -1.3050
 1216TIP3    H225284   1.438   2.075   6.619  0.4669 -0.7352 -0.5194
 1217TIP3   OH225285   2.896   6.451   6.560  0.7796  0.0725  0.1778
 1217TIP3    H125286   2.844   6.384   6.516  1.2921 -0.7343  0.7885
 1217TIP3    H225287   2.880   6.437   6.653  1.2902  0.4749  0.3312
 1218TIP3   OH225288   3.133   0.940   8.085 -0.0959  0.5213 -0.2350
 1218TIP3    H125289   3.205   1.001   8.073  0.1497  0.2087 -0.3674
 1218TIP3    H225290   3.092   0.934   7.998 -1.2335  1.8746  0.1893
 1219TIP3   OH225291   0.968   6.368   7.760 -0.0936 -0.1002 -0.0174
 1219TIP3    H125292   0.928   6.409   7.683  0.4199 -0.6915 -0.6157
 1219TIP3    H225293   0.942   6.276   7.753 -1.1196  0.0900  1.2284
 1220TIP3   OH225294   4.838   4.391   7.610 -0.1059 -0.0433 -0.1414
 1220TIP3    H125295   4.812   4.476   7.645  0.3582 -0.4242  1.1524
 1220TIP3    H225296   4.930   4.402   7.587 -0.1940 -0.0299 -0.4818
 1221TIP3   OH225297   2.642   3.494   7.064  0.3037  0.1376  0.2159
 1221TIP3    H125298   2.724   3.542   7.073 -0.2248  1.3554 -1.2848
 1221TIP3    H225299   2.603   3.496   7.152  0.7617  1.6062  0.3956
 1222TIP3   OH225300   2.310   0.552   7.628 -0.5384  0.0796  0.0117
 1222TIP3    H125301   2.302   0.622   7.562  1.6138 -0.5431 -0.9468
 1222TIP3    H225302   2.404   0.544   7.643 -0.8532 -1.6624  1.1576
 1223TIP3   OH225303   2.128   3.534   6.733  0.3210  0.0167 -0.2168
 1223TIP3    H125304   2.084   3.471   6.676 -0.2423  0.5492 -0.3649
 1223TIP3    H225305   2.193   3.576   6.677 -0.6706  1.0060 -0.6518
 1224TIP3   OH225306   2.166   3.144   6.102 -0.5390  0.1661 -0.0645
 1224TIP3    H125307   2.243   3.136   6.158 -1.4174 -1.3910  0.9447
 1224TIP3    H225308   2.092   3.138   6.162 -1.4743  2.1044 -0.9626
 1225TIP3   OH225309   2.360   3.236   5.876  0.4388  0.6329  0.1566
 1225TIP3    H125310   2.324   3.308   5.825  1.8559  0.1936 -1.4987
 1225TIP3    H225311   2.454   3.238   5.857  0.7960 -0.3410  1.7423
 1226TIP3   OH225312   6.473   0.456   8.086 -0.7299 -0.0332  0.7237
 1226TIP3    H125313   6.462   0.425   7.996  0.2452 -1.7161  1.1539
 1226TIP3    H225314   6.396   0.512   8.101 -0.8484  0.3664 -1.1707
 1227TIP3   OH225315   6.756   1.551   1.430  0.6116  0.0628 -0.3740
 1227TIP3    H125316   6.779   1.631   1.382 -0.9751 -0.1975 -1.5874
 1227TIP3    H225317   6.729   1.582   1.516 -0.6263  0.8969 -1.0557
 1228TIP3   OH225318   2.988   2.906   7.591  0.0330 -0.1221 -0.0634
 1228TIP3    H125319   2.900   2.929   7.619  0.2932  0.6685  0.1314
 1228TIP3    H225320   3.045   2.960   7.645  0.6037  0.0214 -0.8024
 1229TIP3   OH225321   3.478   2.578   7.414  0.1447  0.3331  0.1258
 1229TIP3    H125322   3.559   2.588   7.364 -1.0374 -1.2177 -2.1850
 1229TIP3    H225323   3.496   2.504   7.473  1.3873  1.8797  1.7486
 1230TIP3   OH225324   1.259   4.495   7.363  0.4216  0.9276  0.0309
 1230TIP3    H125325   1.200   4.435   7.409  0.5730  0.2141 -0.7010
 1230TIP3    H225326   1.340   4.492   7.415  0.9455 -0.6777 -0.8510
 1231TIP3   OH225327   3.205   1.609   1.282 -0.3161 -0.5072  0.2953
 1231TIP3    H125328   3.124   1.640   1.240 -0.0580  1.2429  1.0477
 1231TIP3    H225329   3.245   1.551   1.217 -0.9105  0.6209 -1.1076
 1232TIP3   OH225330   1.618   1.231   6.760 -0.1224  0.3933 -0.7691
 1232TIP3    H125331   1.677   1.191   6.696  0.6224  0.3759 -0.0808
 1232TIP3    H225332   1.647   1.321   6.767  1.6775 -0.3082  1.6623
 1233TIP3   OH225333   0.492   3.585   6.923 -0.2734  0.3813 -0.2636
 1233TIP3    H125334   0.463   3.620   7.007 -0.2568  0.5802 -0.3410
 1233TIP3    H225335   0.559   3.646   6.892  0.2661 -0.1061 -0.0634
 1234TIP3   OH225336   5.604   1.677   6.344 -0.5535  0.2033  1.2919
 1234TIP3    H125337   5.545   1.708   6.275  1.2330 -2.2669 -1.4752
 1234TIP3    H225338   5.667   1.748   6.355  0.5153 -0.3025 -1.3156
 1235TIP3   OH225339   2.786   1.233   7.147 -0.1397 -0.5532 -0.9905
 1235TIP3    H125340   2.838   1.193   7.078 -0.4326 -0.2381 -1.3948
 1235TIP3    H225341   2.850   1.279   7.202  0.1139 -0.9767 -0.9286
 1236TIP3   OH225342   1.967   2.841   0.316  0.6372  0.7081  0.0753
 1236TIP3    H125343   2.037   2.887   0.362 -0.0476 -0.4981  2.3564
 1236TIP3    H225344   1.930   2.782   0.381 -0.0567 -1.3685 -2.1516
 1237TIP3   OH225345   2.763   4.690   7.202  0.1986  0.1212 -0.5429
 1237TIP3    H125346   2.681   4.644   7.183 -0.0454 -0.0973  0.9568
 1237TIP3    H225347   2.805   4.637   7.270  1.2958  0.5708 -0.8542
 1238TIP3   OH225348   4.419   4.857   7.069 -0.7133 -0.1236  0.1149
 1238TIP3    H125349   4.367   4.840   6.991 -0.4171  1.5717 -0.4885
 1238TIP3    H225350   4.500   4.809   7.056  0.0561  1.5358 -1.4688
 1239TIP3   OH225351   1.012   3.114   7.157  0.5837  0.3275 -0.4792
 1239TIP3    H125352   1.077   3.182   7.173  0.1205  0.5587  0.4362
 1239TIP3    H225353   0.948   3.155   7.099 -0.3834  1.0952  1.1172
 1240TIP3   OH225354   2.623   0.957   5.832 -0.4998 -0.0173 -0.5033
 1240TIP3    H125355   2.679   0.885   5.803 -0.3433 -0.2786  0.4244
 1240TIP3    H225356   2.682   1.019   5.873 -0.6969  0.4149 -0.8742
 1241TIP3   OH225357   2.980   5.303   6.400  0.1057 -0.6974 -0.0379
 1241TIP3    H125358   2.976   5.283   6.306  1.0234 -1.6067  0.1099
 1241TIP3    H225359   3.060   5.261   6.430 -1.0431 -1.8459  1.4928
 1242TIP3   OH225360   3.836   4.421   6.367 -0.2868 -0.2132  0.0579
 1242TIP3    H125361   3.776   4.372   6.424  0.1036 -0.8943 -0.1176
 1242TIP3    H225362   3.878   4.354   6.314 -0.8274  0.4480 -1.2166
 1243TIP3   OH225363   4.760   1.793   7.311 -0.2980  0.2287  0.4587
 1243TIP3    H125364   4.829   1.855   7.287 -0.0703 -0.3483 -0.3728
 1243TIP3    H225365   4.696   1.801   7.240 -1.1838  0.8904  1.3098
 1244TIP3   OH225366   4.627   4.194   6.924  0.2012  0.8778  0.5096
 1244TIP3    H125367   4.656   4.174   6.836  1.1341  1.8684  0.5938
 1244TIP3    H225368   4.533   4.176   6.923  0.2275  0.8056 -0.6500
 1245TIP3   OH225369   2.964   3.853   7.858 -0.5837  0.4302  0.0779
 1245TIP3    H125370   3.033   3.910   7.892  0.3454 -0.1058 -0.8805
 1245TIP3    H225371   2.960   3.781   7.921  0.4843 -0.0817 -0.4232
 1246TIP3   OH225372   4.026   1.793   0.341  0.3011 -0.0563 -0.0125
 1246TIP3    H125373   4.039   1.882   0.374  0.0974  0.3130 -0.9397
 1246TIP3    H225374   4.038   1.800   0.247 -1.6055 -0.6568 -0.3139
 1247TIP3   OH225375   5.069   6.797   1.944 -0.1646  0.1523  0.3030
 1247TIP3    H125376   5.131   6.752   2.001 -0.2920  0.3030  0.5628
 1247TIP3    H225377   5.020   6.855   2.003 -2.2276 -1.7270  0.5200
 1248TIP3   OH225378   1.780   1.954   6.394 -0.7657  0.2535  0.2836
 1248TIP3    H125379   1.712   1.956   6.327  0.4657  0.5435 -0.9767
 1248TIP3    H225380   1.852   2.004   6.357  0.5608 -0.9669  1.1549
 1249TIP3   OH225381   5.664   5.774   6.434 -0.1806  0.4674 -0.2705
 1249TIP3    H125382   5.713   5.851   6.463 -2.0528  1.3446  0.6191
 1249TIP3    H225383   5.627   5.737   6.515 -0.0449 -0.8543 -0.7959
 1250TIP3   OH225384   4.804   1.303   7.115  0.4672 -0.6165 -0.3558
 1250TIP3    H125385   4.888   1.262   7.133  0.1184 -0.4823  1.7078
 1250TIP3    H225386   4.826   1.389   7.079  1.2543  0.0082  1.5376
 1251TIP3   OH225387   2.044   1.935   6.346  0.1357 -0.4065 -0.1162
 1251TIP3    H125388   2.026   1.847   6.377  1.4914 -0.6475  0.0533
 1251TIP3    H225389   2.079   1.922   6.257 -0.1683 -0.0072 -0.2945
 1252TIP3   OH225390   0.135   1.436   7.178  0.9185  0.1818 -0.4826
 1252TIP3    H125391   0.170   1.368   7.121 -0.3733 -1.4392  0.5775
 1252TIP3    H225392   0.154   1.405   7.267  0.2101  1.1349  0.0191
 1253TIP3   OH225393   4.048   7.056   7.975 -0.7262 -0.1580  0.1048
 1253TIP3    H125394   3.962   7.016   7.961  0.5073 -3.2689  1.0572
 1253TIP3    H225395   4.047   7.134   7.919 -5.0124  1.2308  1.9009
 1254TIP3   OH225396   1.396   2.967   8.099  0.1718 -0.1898 -0.2995
 1254TIP3    H125397   1.443   2.896   8.143  0.2640  0.2059  0.2452
 1254TIP3    H225398   1.408   3.043   8.156 -1.2301 -0.1113 -0.0933
 1255TIP3   OH225399   4.555   7.086   0.748  0.3486 -1.1946 -0.5125
 1255TIP3    H125400   4.538   7.013   0.807 -1.5370 -0.2136  0.1988
 1255TIP3    H225401   4.577   7.045   0.664  0.9655 -2.5680  0.3199
 1256TIP3   OH225402   1.623   3.843   7.720 -0.1111  0.2875  0.4475
 1256TIP3    H125403   1.586   3.769   7.767 -0.1512 -0.2035 -0.3411
 1256TIP3    H225404   1.629   3.813   7.629  0.1812  1.1314  0.1810
 1257TIP3   OH225405   2.455   2.233   6.108 -0.2891 -0.0103 -0.2755
 1257TIP3    H125406   2.449   2.327   6.086  0.2522 -0.1235 -0.9149
 1257TIP3    H225407   2.505   2.195   6.036  0.1022 -0.6751  0.3501
 1258TIP3   OH225408   0.169   1.890   7.269  0.6896  0.2396 -0.1752
 1258TIP3    H125409   0.243   1.950   7.261  1.6786 -0.8323  0.5869
 1258TIP3    H225410   0.096   1.945   7.297  0.9458  1.4720 -1.8572
 1259TIP3   OH225411   4.324   5.073   0.727 -0.2123  0.2448 -0.6454
 1259TIP3    H125412   4.323   5.167   0.740  0.8046  0.0404  1.1293
 1259TIP3    H225413   4.249   5.041   0.777 -0.0699  0.0381 -0.5613
 1260TIP3   OH225414   6.692   2.998   5.823  0.0936  0.0837 -0.2301
 1260TIP3    H125415   6.599   3.004   5.801  0.5222 -1.8306 -2.7949
 1260TIP3    H225416   6.697   2.930   5.890 -0.0345 -2.2677 -2.5448
 1261TIP3   OH225417   4.088   4.528   6.156  0.0279 -0.0676  0.0307
 1261TIP3    H125418   4.151   4.590   6.193  1.4731 -0.8177 -1.1080
 1261TIP3    H225419   4.123   4.442   6.179  0.7637 -0.5449 -2.6474
 1262TIP3   OH225420   2.460   0.887   6.490 -0.2039 -0.5612  0.7558
 1262TIP3    H125421   2.370   0.864   6.469  0.1728 -2.1272  0.8091
 1262TIP3    H225422   2.459   0.910   6.583 -0.0543 -3.3424  1.4890
 1263TIP3   OH225423   0.278   4.903   7.188 -0.0774  0.4750 -0.5877
 1263TIP3    H125424   0.372   4.917   7.186 -0.1627  1.0032 -1.0382
 1263TIP3    H225425   0.248   4.946   7.268  0.2747 -1.0757  0.4021
 1264TIP3   OH225426   6.724   3.384   1.543  0.1546  0.3829  0.1593
 1264TIP3    H125427   6.637   3.350   1.564 -0.9213  2.5434 -0.5948
 1264TIP3    H225428   6.776   3.307   1.521 -1.8836 -0.8388 -0.4558
 1265TIP3   OH225429   0.105   2.317   7.136  0.2989 -0.1524  0.5680
 1265TIP3    H125430   0.046   2.242   7.134  0.3024 -0.1837  1.6172
 1265TIP3    H225431   0.057   2.386   7.091  0.8477 -1.1695 -1.6550
 1266TIP3   OH225432   2.080   0.595   6.595 -0.6537  0.1262  0.0371
 1266TIP3    H125433   2.011   0.548   6.642 -1.0098 -0.0013 -0.6180
 1266TIP3    H225434   2.125   0.527   6.544  0.5456  0.0498  1.1652
 1267TIP3   OH225435   1.912   5.921   0.366  0.1070  0.1342 -0.2600
 1267TIP3    H125436   1.876   5.960   0.446 -2.5300 -1.1628 -0.7702
 1267TIP3    H225437   1.922   5.828   0.388  0.7980  0.0450 -0.9505
 1268TIP3   OH225438   3.570   3.567   6.346  0.1580 -0.6625  0.2016
 1268TIP3    H125439   3.565   3.636   6.279  0.5946 -1.0808 -0.2630
 1268TIP3    H225440   3.479   3.545   6.364  0.0555 -1.0618 -0.7881
 1269TIP3   OH225441   4.342   3.263   7.798  0.5646  0.0461 -0.2266
 1269TIP3    H125442   4.394   3.190   7.763  0.3414 -0.3032  0.1722
 1269TIP3    H225443   4.254   3.248   7.764  0.6768  0.5244 -0.7306
 1270TIP3   OH225444   6.711   1.314   7.057  0.1232  0.2870 -0.3178
 1270TIP3    H125445   6.739   1.403   7.079 -0.1178  0.3404 -0.2142
 1270TIP3    H225446   6.790   1.261   7.062  0.4088  0.6311 -1.1190
 1271TIP3   OH225447   1.212   3.770   7.567  0.6151  0.3786 -0.4860
 1271TIP3    H125448   1.191   3.683   7.531 -3.9481  0.7370  0.9715
 1271TIP3    H225449   1.255   3.752   7.650 -0.1744 -0.5034 -0.2642
 1272TIP3   OH225450   4.646   6.536   6.923  0.4008  0.5417 -0.3680
 1272TIP3    H125451   4.608   6.547   7.011  1.1480 -2.3257  0.3396
 1272TIP3    H225452   4.570   6.522   6.867 -0.0033  1.3261 -0.0417
 1273TIP3   OH225453   3.423   0.759   7.082  0.4915  0.0960 -0.1797
 1273TIP3    H125454   3.483   0.766   7.155  2.0292  0.7903 -1.4811
 1273TIP3    H225455   3.471   0.796   7.008 -0.7802 -1.1900 -1.6826
 1274TIP3   OH225456   2.019   3.380   7.332  0.5190 -0.3192  0.0023
 1274TIP3    H125457   1.930   3.404   7.305  0.9546  1.2878 -0.0744
 1274TIP3    H225458   2.066   3.366   7.250  1.1111  1.8038 -0.0396
 1275TIP3   OH225459   0.833   3.665   6.137  0.1115 -0.4415  0.1708
 1275TIP3    H125460   0.854   3.678   6.045  3.0451 -0.5938  0.7656
 1275TIP3    H225461   0.902   3.609   6.170  0.5608  1.6554  3.0250
 1276TIP3   OH225462   2.540   2.994   6.154 -0.5200 -0.1139 -0.4197
 1276TIP3    H125463   2.525   2.900   6.142 -0.1099 -0.3547  0.8372
 1276TIP3    H225464   2.473   3.022   6.216  1.0075 -0.1584  1.3096
 1277TIP3   OH225465   2.878   1.829   5.960 -0.0451  0.5424  0.7147
 1277TIP3    H125466   2.803   1.770   5.972  0.0033  0.7445  2.1627
 1277TIP3    H225467   2.857   1.905   6.014  0.2881  1.4941 -0.4760
 1278TIP3   OH225468   1.588   2.159   7.028  0.3472 -0.0389  0.0398
 1278TIP3    H125469   1.616   2.167   7.119  1.8375 -0.7843 -0.3293
 1278TIP3    H225470   1.665   2.125   6.982 -0.5767 -0.2728 -1.3857
 1279TIP3   OH225471   1.790   1.064   6.635 -0.1156 -0.3268  0.4495
 1279TIP3    H125472   1.847   0.987   6.634 -0.3122 -0.4650 -1.3593
 1279TIP3    H225473   1.783   1.091   6.544 -0.9522  1.1822  0.9339
 1280TIP3   OH225474   2.745   2.416   0.003 -0.0563 -0.1206 -0.1848
 1280TIP3    H125475   2.797   2.395  -0.075  0.8547 -1.4170  0.7577
 1280TIP3    H225476   2.707   2.332   0.030 -1.8810  0.6444 -0.2912
 1281TIP3   OH225477   0.860   4.745   6.296  0.4109  0.4694 -0.1874
 1281TIP3    H125478   0.777   4.736   6.341 -0.0319  0.3093 -1.0243
 1281TIP3    H225479   0.877   4.659   6.259 -0.6306  1.2899 -2.7071
 1282TIP3   OH225480   5.568   3.732   7.433 -0.1905  0.5127 -0.3005
 1282TIP3    H125481   5.554   3.754   7.341  1.9701  0.3223 -0.6855
 1282TIP3    H225482   5.543   3.640   7.439  2.7098 -0.3959 -1.4260
 1283TIP3   OH225483   5.741   3.095   1.304  0.3337  0.1970  0.3036
 1283TIP3    H125484   5.741   3.182   1.265  0.3979  0.2192  0.3524
 1283TIP3    H225485   5.796   3.042   1.245 -0.3607 -0.0081 -0.1631
 1284TIP3   OH225486   3.283   0.859   1.244  0.1112 -0.2632  0.3471
 1284TIP3    H125487   3.234   0.781   1.270 -1.1106  0.3620 -0.0038
 1284TIP3    H225488   3.261   0.871   1.151  1.9576 -0.6968 -0.1608
 1285TIP3   OH225489   1.072   2.246   0.556 -0.6075  0.1846  0.1146
 1285TIP3    H125490   1.045   2.233   0.647 -2.2046 -0.5969 -0.4661
 1285TIP3    H225491   1.056   2.162   0.513 -1.7611  1.1349 -1.3522
 1286TIP3   OH225492   2.858   0.313   5.817  0.5753  0.4998  0.1829
 1286TIP3    H125493   2.852   0.402   5.781  1.4173  0.9804  1.1977
 1286TIP3    H225494   2.814   0.258   5.753  0.1472  1.6407 -0.5153
 1287TIP3   OH225495   4.869   5.060   6.463 -0.2298 -0.5544 -0.8142
 1287TIP3    H125496   4.811   4.985   6.446 -0.1062 -0.3982 -2.0083
 1287TIP3    H225497   4.950   5.039   6.416 -0.1970  0.3221 -1.1660
 1288TIP3   OH225498   3.865   1.524   7.998 -0.0339 -0.3239 -0.3568
 1288TIP3    H125499   3.862   1.434   8.031  1.6048 -0.5374 -0.7181
 1288TIP3    H225500   3.869   1.577   8.077  1.2157 -0.7023 -0.1421
 1289TIP3   OH225501   4.496   2.352   7.781  0.0176  0.2502 -0.0645
 1289TIP3    H125502   4.494   2.288   7.852  1.1036  0.4630  0.1636
 1289TIP3    H225503   4.523   2.302   7.704 -3.1371 -0.4279 -0.8337
 1290TIP3   OH225504   1.381   3.761   6.140 -0.3860 -0.6142 -0.4282
 1290TIP3    H125505   1.327   3.838   6.159 -0.9553 -0.6560 -1.8007
 1290TIP3    H225506   1.412   3.775   6.051 -0.9513 -2.2329 -0.9035
 1291TIP3   OH225507   2.464   2.443   6.313  0.7020 -0.3017 -0.1327
 1291TIP3    H125508   2.416   2.526   6.311 -0.0298 -0.7290 -0.5317
 1291TIP3    H225509   2.486   2.427   6.221  1.5805 -0.1329  0.0408
 1292TIP3   OH225510   3.726   3.069   6.039  0.3344 -0.0618 -0.6507
 1292TIP3    H125511   3.770   2.988   6.064  0.5791  0.5537  1.0142
 1292TIP3    H225512   3.793   3.119   5.992  1.3425  0.7112  1.5431
 1293TIP3   OH225513   1.023   5.244   0.011 -0.1084 -0.4366  0.2702
 1293TIP3    H125514   1.025   5.339   0.025  0.8990  0.0436 -2.7405
 1293TIP3    H225515   1.111   5.214   0.035  0.4789 -0.1525 -1.4641
 1294TIP3   OH225516   1.754   1.446   0.203  0.5369 -0.0841  0.2177
 1294TIP3    H125517   1.766   1.541   0.208 -0.3618  0.0062  0.6539
 1294TIP3    H225518   1.842   1.413   0.182  0.9543  0.8043  0.5015
 1295TIP3   OH225519   6.504   6.631   6.805  0.6389  0.2454  0.3253
 1295TIP3    H125520   6.530   6.559   6.862  0.4881  1.4977  1.9870
 1295TIP3    H225521   6.583   6.652   6.756  0.2031 -2.3138 -1.6397
 1296TIP3   OH225522   2.301   3.058   0.684 -0.2911 -0.1368 -1.0443
 1296TIP3    H125523   2.385   3.102   0.665  0.8648 -1.3849  0.9192
 1296TIP3    H225524   2.298   2.985   0.623  1.3556 -1.6351  0.5921
 1297TIP3   OH225525   1.076   1.221   8.098  0.0236 -0.3423  0.2257
 1297TIP3    H125526   0.990   1.238   8.135 -0.4042 -1.9522 -0.0156
 1297TIP3    H225527   1.087   1.287   8.030 -0.7567  0.2390  0.6627
 1298TIP3   OH225528   4.514   1.506   6.794 -0.5264 -0.4589 -0.3016
 1298TIP3    H125529   4.493   1.584   6.742 -0.7938  0.8060  1.6387
 1298TIP3    H225530   4.605   1.487   6.773 -0.8602 -0.4590 -1.8298
 1299TIP3   OH225531   2.634   1.055   6.200  0.4568  0.4895  0.7027
 1299TIP3    H125532   2.649   1.102   6.118 -0.6558  0.6915  0.6135
 1299TIP3    H225533   2.539   1.043   6.204  0.4125  1.2755  2.3838
 1300TIP3   OH225534   2.690   6.276   7.300  0.1281  0.3348  0.4424
 1300TIP3    H125535   2.728   6.220   7.232 -0.2211  0.1253  0.4149
 1300TIP3    H225536   2.623   6.326   7.255  2.1840  2.7133 -0.1079
 1301TIP3   OH225537   2.797   2.533   7.422  0.3393 -0.5056  0.0584
 1301TIP3    H125538   2.794   2.598   7.492 -1.2627  0.7676 -1.1776
 1301TIP3    H225539   2.706   2.518   7.398  0.8164 -1.5731 -1.1862
 1302TIP3   OH225540   5.652   1.823   0.280  0.5249 -0.1203 -0.0881
 1302TIP3    H125541   5.570   1.844   0.236  0.8039 -1.8968 -1.4844
 1302TIP3    H225542   5.631   1.748   0.336  1.3793 -1.0646 -1.0321
 1303TIP3   OH225543   2.102   3.080   6.688 -0.2037 -0.2771 -0.2296
 1303TIP3    H125544   2.174   3.018   6.698  0.4334  0.8138  2.5042
 1303TIP3    H225545   2.023   3.026   6.693  0.3157 -0.8087  3.1739
 1304TIP3   OH225546   3.663   4.018   6.724 -0.2499 -0.3928 -0.2717
 1304TIP3    H125547   3.626   4.045   6.640  0.2366  0.7323 -0.1341
 1304TIP3    H225548   3.605   3.948   6.754 -1.3162  0.2332 -0.8390
 1305TIP3   OH225549   0.995   3.448   6.413  0.3367 -0.7307  0.1928
 1305TIP3    H125550   1.053   3.438   6.489  1.2111 -1.5112 -0.5757
 1305TIP3    H225551   0.998   3.542   6.393 -0.5509 -0.3648  1.6192
 1306TIP3   OH225552   5.874   1.127   0.591 -0.1737 -0.0347 -0.1771
 1306TIP3    H125553   5.807   1.113   0.524  2.0469  1.9933 -2.9074
 1306TIP3    H225554   5.930   1.050   0.585  0.9501  0.8862 -1.8216
 1307TIP3   OH225555   1.773   2.769   5.647 -0.0882 -0.3597 -0.2172
 1307TIP3    H125556   1.740   2.855   5.673  0.6055  0.0985 -0.8342
 1307TIP3    H225557   1.828   2.742   5.720  1.6407  0.8101 -1.0269
 1308TIP3   OH225558   2.844   3.223   0.542  0.7008 -0.1607 -0.0589
 1308TIP3    H125559   2.782   3.150   0.552  0.3040  0.2528  0.5226
 1308TIP3    H225560   2.820   3.262   0.458  0.1315  0.0264  0.1831
 1309TIP3   OH225561   7.097   2.010   0.954 -0.0807  0.1273  0.5001
 1309TIP3    H125562   7.020   2.066   0.949 -0.4024 -0.2083  1.6133
 1309TIP3    H225563   7.083   1.956   1.031  0.6502 -0.8630 -0.0420
 1310TIP3   OH225564   3.141   2.788   1.232 -0.3800 -0.1300 -0.1028
 1310TIP3    H125565   3.195   2.866   1.242 -0.1523 -0.2705 -0.2289
 1310TIP3    H225566   3.194   2.717   1.269 -0.8251 -0.1300  0.5485
 1311TIP3   OH225567   3.770   7.043   6.111 -0.6909 -0.4365  0.6824
 1311TIP3    H125568   3.759   7.125   6.159 -1.1634 -0.2264  0.2181
 1311TIP3    H225569   3.697   7.041   6.049 -1.1612 -1.5954  1.2516
 1312TIP3   OH225570   5.822   3.886   7.791  0.3476 -0.4727 -0.4428
 1312TIP3    H125571   5.834   3.842   7.707  0.4026 -1.5187  0.1048
 1312TIP3    H225572   5.891   3.952   7.794  0.0241 -0.0776 -1.4397
 1313TIP3   OH225573   4.875   3.763   6.631 -0.0083 -0.7088 -0.1854
 1313TIP3    H125574   4.895   3.824   6.560 -1.3823  1.9870  1.6443
 1313TIP3    H225575   4.957   3.755   6.680 -0.9069  3.5508  2.3092
 1314TIP3   OH225576   1.773   2.232   5.868 -0.4141  0.3728  0.1691
 1314TIP3    H125577   1.837   2.286   5.820  1.4229 -1.1064  0.9008
 1314TIP3    H225578   1.716   2.296   5.911 -0.7617  1.7190 -2.2197
 1315TIP3   OH225579   3.745   2.141   0.195  0.4139  0.4383  0.0835
 1315TIP3    H125580   3.718   2.098   0.276  0.2992  0.4106  0.0308
 1315TIP3    H225581   3.675   2.121   0.133  0.2565  0.8793  0.1171
 1316TIP3   OH225582   2.851   3.324   8.037  0.0212  0.2253  0.6230
 1316TIP3    H125583   2.806   3.276   8.106  0.1223  0.1867  0.6625
 1316TIP3    H225584   2.783   3.377   7.996  0.0248  0.4864  0.9568
 1317TIP3   OH225585   6.715   4.087   1.100 -0.4728  0.7029  0.6487
 1317TIP3    H125586   6.779   4.016   1.103  0.3749  1.3028 -2.2536
 1317TIP3    H225587   6.748   4.152   1.163  0.3618 -0.1284  1.0752
 1318TIP3   OH225588   0.551   4.466   1.090 -0.0188  0.1907  0.1326
 1318TIP3    H125589   0.548   4.403   1.162  1.4462  0.6171  0.5823
 1318TIP3    H225590   0.462   4.466   1.055 -0.6836 -0.2367  1.7624
 1319TIP3   OH225591   0.347   4.346   0.198  0.0192  0.6638  0.1451
 1319TIP3    H125592   0.268   4.396   0.216  0.6007  0.7503  2.5745
 1319TIP3    H225593   0.323   4.255   0.214  0.5833  0.7541  1.5261
 1320TIP3   OH225594   2.980   2.135   6.475  0.0208  0.6291  0.1375
 1320TIP3    H125595   3.018   2.081   6.406 -0.3543  2.1803 -1.3342
 1320TIP3    H225596   2.888   2.107   6.479 -0.4832  1.9260 -1.4740
 1321TIP3   OH225597   5.982   1.875   6.122  0.4284  0.4908  0.1300
 1321TIP3    H125598   5.995   1.954   6.069  3.1950 -0.8128 -1.2422
 1321TIP3    H225599   6.061   1.869   6.175  0.5454 -1.6687 -0.2456
 1322TIP3   OH225600   5.995   5.100   0.396  0.2955 -0.2239 -0.2860
 1322TIP3    H125601   6.042   5.163   0.450  1.1205  1.0247 -2.3820
 1322TIP3    H225602   6.051   5.022   0.396 -0.6125 -0.8980  2.1185
 1323TIP3   OH225603   1.728   1.927   7.949  0.4728  0.3011  0.3580
 1323TIP3    H125604   1.646   1.957   7.911 -0.5427  0.2303  2.4230
 1323TIP3    H225605   1.704   1.852   8.003  1.7377  0.8575  1.7387
 1324TIP3   OH225606   4.710   5.375   0.559  0.2234  0.2846 -0.2343
 1324TIP3    H125607   4.709   5.430   0.481  1.3944  1.5911  0.6550
 1324TIP3    H225608   4.801   5.348   0.568  0.5980  2.1442  2.0424
 1325TIP3   OH225609   4.131   3.386   5.783 -0.4156 -0.2949 -0.1645
 1325TIP3    H125610   4.135   3.382   5.687  0.9198 -0.7666 -0.1000
 1325TIP3    H225611   4.215   3.351   5.812 -1.5387 -1.9760  1.2257
 1326TIP3   OH225612   2.742   3.672   6.856 -0.5264  0.3371  0.3263
 1326TIP3    H125613   2.729   3.730   6.930 -1.1755 -0.1861  0.6231
 1326TIP3    H225614   2.752   3.585   6.894  1.3337  0.3584 -0.0540
 1327TIP3   OH225615   6.913   4.320   0.048  0.6596 -0.2498 -0.2815
 1327TIP3    H125616   6.928   4.253   0.114  0.0045  0.9012  1.0492
 1327TIP3    H225617   6.999   4.339   0.012  0.9887 -1.0283  0.0878
 1328TIP3   OH225618   2.280   3.431   5.738 -0.0496  0.0436 -0.4989
 1328TIP3    H125619   2.291   3.523   5.761 -1.1089 -0.1139  0.7057
 1328TIP3    H225620   2.212   3.430   5.671  0.1899  0.1742 -0.7402
 1329TIP3   OH225621   3.715   3.369   0.870 -0.0269  0.3197  0.2866
 1329TIP3    H125622   3.635   3.399   0.913  0.1540  0.1273  0.7615
 1329TIP3    H225623   3.692   3.283   0.834 -1.2048  1.9174 -2.9631
 1330TIP3   OH225624   3.022   4.200   0.432 -0.3326  0.2294 -0.5062
 1330TIP3    H125625   2.966   4.140   0.383  0.2773  0.2795 -1.2864
 1330TIP3    H225626   3.042   4.271   0.370 -0.6563  0.9895  0.2564
 1331TIP3   OH225627   1.248   3.166   7.373  0.1348 -0.2815  0.4370
 1331TIP3    H125628   1.183   3.211   7.428  0.3569  0.4481  0.1082
 1331TIP3    H225629   1.219   3.075   7.372  0.4319 -0.4242  2.2323
 1332TIP3   OH225630   2.463   2.574   1.250 -0.4871  0.0712  0.4334
 1332TIP3    H125631   2.556   2.557   1.234 -0.2397  2.7438 -1.3440
 1332TIP3    H225632   2.417   2.519   1.188 -0.2072 -2.6020  2.5138
 1333TIP3   OH225633   3.581   5.965   7.551 -0.1442 -0.7035  0.4336
 1333TIP3    H125634   3.493   5.946   7.583 -0.6123 -0.2580 -0.5721
 1333TIP3    H225635   3.618   6.023   7.618 -0.8886 -0.2813  0.4932
 1334TIP3   OH225636   5.974   1.384   1.663  0.7281 -0.4493 -0.1943
 1334TIP3    H125637   6.023   1.330   1.725  0.5771  0.4883  0.7673
 1334TIP3    H225638   5.901   1.329   1.636 -1.0059  0.2010  2.9027
 1335TIP3   OH225639   3.430   6.070   8.054  0.3364  0.5058 -0.4144
 1335TIP3    H125640   3.493   6.051   8.123  0.3979 -0.6832 -0.7944
 1335TIP3    H225641   3.455   6.156   8.022  1.7364  0.0657 -0.5380
 1336TIP3   OH225642   1.046   4.868   6.480 -0.1453 -0.4718 -0.3966
 1336TIP3    H125643   1.003   4.818   6.551 -0.6032 -0.0475 -0.3721
 1336TIP3    H225644   1.002   4.838   6.400 -0.1062 -0.4450 -0.4284
 1337TIP3   OH225645   2.193   4.069   0.807 -0.5454 -0.3775  0.2809
 1337TIP3    H125646   2.141   4.079   0.728  0.1764  2.3556  0.0971
 1337TIP3    H225647   2.130   4.080   0.879 -0.7803 -0.4586  0.0873
 1338TIP3   OH225648   2.813   4.064   7.817 -0.5329 -0.0075 -0.3640
 1338TIP3    H125649   2.849   3.975   7.810  0.7540  0.4506  0.2390
 1338TIP3    H225650   2.811   4.081   7.911  1.3567  1.4338 -0.5526
 1339TIP3   OH225651   1.763   4.342   7.229 -0.7589 -0.3468 -0.9262
 1339TIP3    H125652   1.778   4.419   7.174  0.0349 -0.1856 -0.4926
 1339TIP3    H225653   1.785   4.371   7.317 -2.4125 -0.4836 -0.4454
 1340TIP3   OH225654   6.655   5.756   7.466  0.6917  0.0539  0.0059
 1340TIP3    H125655   6.747   5.731   7.462  0.7883  0.5567 -0.8619
 1340TIP3    H225656   6.615   5.714   7.390  0.9778  2.9981 -1.8392
 1341TIP3   OH225657   0.746   2.005   7.031 -0.0061 -0.1197  0.3963
 1341TIP3    H125658   0.753   2.101   7.026 -1.4530 -0.0298 -0.1212
 1341TIP3    H225659   0.835   1.974   7.016  0.7458  1.1954  2.0252
 1342TIP3   OH225660   5.162   5.495   6.309 -0.0817  0.3222 -0.8940
 1342TIP3    H125661   5.234   5.534   6.259  0.3679 -1.2011 -1.4774
 1342TIP3    H225662   5.160   5.404   6.280  1.0143 -0.9620  2.7459
 1343TIP3   OH225663   5.516   0.326   1.075  0.1829 -0.1593 -0.3190
 1343TIP3    H125664   5.451   0.294   1.138 -0.5171 -0.8192 -1.3609
 1343TIP3    H225665   5.564   0.395   1.122  0.7349 -1.7247  1.4710
 1344TIP3   OH225666   1.174   2.735   0.377 -0.2587  0.5147  0.2128
 1344TIP3    H125667   1.129   2.745   0.293  0.0941 -0.3970 -0.0976
 1344TIP3    H225668   1.176   2.640   0.392 -1.2420  0.7295  1.7729
 1345TIP3   OH225669   1.097   3.198   6.109  0.5422  0.1221  0.7250
 1345TIP3    H125670   1.040   3.244   6.170  2.4178  2.6962  0.6014
 1345TIP3    H225671   1.168   3.165   6.164  0.8774  0.1569  0.3089
 1346TIP3   OH225672   6.529   2.142   0.585 -0.0554 -0.6410 -0.5702
 1346TIP3    H125673   6.559   2.224   0.545 -0.8039  0.1310  0.4349
 1346TIP3    H225674   6.501   2.089   0.510 -1.7090  0.9012 -1.0866
 1347TIP3   OH225675   3.362   4.126   7.244 -0.1440  0.1837  0.1447
 1347TIP3    H125676   3.334   4.217   7.242  1.8338  0.8316  0.1771
 1347TIP3    H225677   3.296   4.081   7.297 -1.9436  1.2851 -1.1047
 1348TIP3   OH225678   4.185   6.772   6.586 -0.3538 -0.1453 -0.0870
 1348TIP3    H125679   4.181   6.865   6.610 -1.7435 -0.0340 -0.7170
 1348TIP3    H225680   4.182   6.772   6.490 -1.3024 -0.8766 -0.0618
 1349TIP3   OH225681   5.334   1.458   6.160 -0.2010 -0.5672  0.2219
 1349TIP3    H125682   5.415   1.407   6.169  1.9328  2.6960  0.5270
 1349TIP3    H225683   5.305   1.440   6.070  2.4768  0.3565 -0.8953
 1350TIP3   OH225684   1.384   1.429   0.539 -0.3494 -0.3553  0.1001
 1350TIP3    H125685   1.448   1.442   0.609 -0.3152 -2.5172  0.4984
 1350TIP3    H225686   1.330   1.356   0.569 -1.3233 -0.2792 -1.4286
 1351TIP3   OH225687   2.286   5.216   7.367 -0.1876  0.5082  0.0125
 1351TIP3    H125688   2.225   5.282   7.334  0.3503  0.0246 -2.0261
 1351TIP3    H225689   2.369   5.263   7.378  0.2279  0.1526 -1.5599
 1352TIP3   OH225690   6.655   2.031   7.513 -0.2388  0.0114 -0.9023
 1352TIP3    H125691   6.690   2.114   7.543 -0.6770 -0.3488  0.6684
 1352TIP3    H225692   6.576   2.054   7.464 -0.4892  0.5133 -0.2743
 1353TIP3   OH225693   5.738   2.567   0.164 -0.0491  0.7960  0.0438
 1353TIP3    H125694   5.648   2.539   0.149 -0.1140  1.8758 -1.6831
 1353TIP3    H225695   5.731   2.656   0.199  0.3062  0.2905  1.4374
 1354TIP3   OH225696   3.767   3.728   6.778 -0.3287 -0.0239 -0.1039
 1354TIP3    H125697   3.836   3.747   6.842  0.4798 -1.3668 -0.5340
 1354TIP3    H225698   3.685   3.741   6.825  0.2609 -1.7871  1.4753
 1355TIP3   OH225699   4.632   1.780   0.062  0.0783 -0.2331 -0.2121
 1355TIP3    H125700   4.574   1.710   0.090  0.3519 -0.7506 -0.9408
 1355TIP3    H225701   4.576   1.840   0.012  0.1993 -0.7898 -1.0122
 1356TIP3   OH225702   3.380   2.477   7.055 -0.1068  0.0707  0.1552
 1356TIP3    H125703   3.416   2.560   7.025  0.6015 -0.9472 -1.9374
 1356TIP3    H225704   3.457   2.423   7.075 -0.5399 -0.3881  0.6085
 1357TIP3   OH225705   3.477   3.417   1.084  0.6744  0.2275 -0.1167
 1357TIP3    H125706   3.460   3.324   1.069 -3.5873  1.1131 -1.4576
 1357TIP3    H225707   3.460   3.430   1.177 -2.1539  0.2418 -0.5870
 1358TIP3   OH225708   2.656   3.776   1.514 -0.1204 -0.4926  0.5265
 1358TIP3    H125709   2.668   3.735   1.600  1.2777  0.0570  0.6110
 1358TIP3    H225710   2.724   3.738   1.459  0.6209  1.0265  0.3608
 1359TIP3   OH225711   2.891   3.986   6.390  0.1073  0.5638  0.2678
 1359TIP3    H125712   2.838   3.934   6.451  1.2309  0.3737  1.0968
 1359TIP3    H225713   2.932   3.921   6.333  0.4728  0.6270  0.4588
 1360TIP3   OH225714   0.520   1.959   6.873  0.1793  0.4046 -0.4706
 1360TIP3    H125715   0.458   2.026   6.901 -0.5962  0.2345 -1.7698
 1360TIP3    H225716   0.603   1.985   6.913 -0.3853  1.4733  0.0183
 1361TIP3   OH225717   5.702   5.306   0.521 -0.1445 -0.2985  0.2861
 1361TIP3    H125718   5.669   5.394   0.540  2.4249  0.3657  1.9301
 1361TIP3    H225719   5.714   5.305   0.426  0.8276  1.5281  0.3583
 1362TIP3   OH225720   4.706   5.447   7.074 -0.0102 -0.0186  0.1472
 1362TIP3    H125721   4.695   5.529   7.122 -0.2060 -0.9110  1.6700
 1362TIP3    H225722   4.651   5.458   6.996  0.2115  1.4111  0.1713
 1363TIP3   OH225723   3.945   5.553   0.334  0.1873 -0.0366  0.0875
 1363TIP3    H125724   3.900   5.491   0.392 -0.2111 -0.3845 -0.5848
 1363TIP3    H225725   3.885   5.565   0.261  0.1301  1.4022  0.3646
 1364TIP3   OH225726   3.885   4.093   0.916 -0.0304  0.6952 -0.0076
 1364TIP3    H125727   3.864   4.165   0.857  1.4581  0.3564 -0.9752
 1364TIP3    H225728   3.858   4.014   0.868 -0.9297  0.5592  0.7192
 1365TIP3   OH225729   4.151   3.062   5.664 -0.2527  0.1075  0.2793
 1365TIP3    H125730   4.105   3.000   5.721 -0.3406  0.6889  0.8389
 1365TIP3    H225731   4.236   3.075   5.706  0.1218 -0.3473 -0.3309
 1366TIP3   OH225732   4.702   0.162   6.957  0.2546 -0.3230 -0.2112
 1366TIP3    H125733   4.773   0.206   7.004  0.6687 -0.4257 -0.7388
 1366TIP3    H225734   4.707   0.197   6.868  1.8171 -2.8847 -1.1718
 1367TIP3   OH225735   0.142   1.881   7.638  0.1908 -0.6034  0.5557
 1367TIP3    H125736   0.105   1.803   7.597  0.0054 -0.6698  0.8518
 1367TIP3    H225737   0.110   1.879   7.728  1.1569 -0.8272  0.9084
 1368TIP3   OH225738   2.320   4.545   6.850 -0.2750  0.1228 -0.1548
 1368TIP3    H125739   2.408   4.580   6.842  0.3551 -1.7736 -1.7315
 1368TIP3    H225740   2.302   4.503   6.766 -2.6911  0.4974  0.1199
 1369TIP3   OH225741   2.003   3.452   7.595  0.0678  0.2814 -0.3378
 1369TIP3    H125742   1.919   3.499   7.598 -0.7657 -1.1219 -0.7832
 1369TIP3    H225743   2.014   3.429   7.503 -0.3912 -1.8268  0.1069
 1370TIP3   OH225744   1.760   3.765   6.049 -0.5748  0.2435  0.3224
 1370TIP3    H125745   1.807   3.705   5.993  2.6791  2.9225  0.0313
 1370TIP3    H225746   1.727   3.833   5.990  0.4702  1.5796  1.2188
 1371TIP3   OH225747   3.992   2.768   7.452  0.1718  0.0126 -0.5146
 1371TIP3    H125748   4.027   2.856   7.446 -0.3328  0.2318 -0.2777
 1371TIP3    H225749   3.962   2.760   7.542  0.1368 -0.3696 -0.5582
 1372TIP3   OH225750   5.234   3.880   6.508  0.1547 -0.7103  0.3367
 1372TIP3    H125751   5.142   3.903   6.498  0.3500 -0.0045  0.1523
 1372TIP3    H225752   5.238   3.832   6.590 -0.3171 -0.4382  0.5195
 1373TIP3   OH225753   1.190   2.499   0.577  0.0851  0.4822  0.3347
 1373TIP3    H125754   1.157   2.410   0.571  0.6301  0.3387 -0.5147
 1373TIP3    H225755   1.254   2.496   0.648  0.0267  0.2338  0.3765
 1374TIP3   OH225756   3.070   3.132   1.116 -0.4116  0.5813 -0.0743
 1374TIP3    H125757   3.107   3.062   1.061  0.7532  0.3775  0.9584
 1374TIP3    H225758   2.984   3.099   1.142 -0.2485 -0.0747 -0.3443
 1375TIP3   OH225759   5.096   5.382   7.505  0.1006  0.2727  0.4671
 1375TIP3    H125760   5.182   5.340   7.494  0.7739  1.3640  1.5434
 1375TIP3    H225761   5.053   5.330   7.573 -0.1318 -0.3176 -0.1210
 1376TIP3   OH225762   2.377   0.316   6.214 -0.1768  0.1178  0.2430
 1376TIP3    H125763   2.357   0.383   6.149  0.6856  0.9453  0.8126
 1376TIP3    H225764   2.297   0.264   6.220 -0.0426 -0.3605 -1.9327
 1377TIP3   OH225765   0.526   3.682   6.110 -0.1061 -0.1102 -0.0359
 1377TIP3    H125766   0.575   3.756   6.073 -1.2134  0.8489  0.3756
 1377TIP3    H225767   0.578   3.653   6.184  0.2000  0.4386 -0.0348
 1378TIP3   OH225768   3.632   2.665   0.916  0.1662  0.4176 -0.8013
 1378TIP3    H125769   3.576   2.588   0.912  1.6069 -0.6744  0.0138
 1378TIP3    H225770   3.585   2.726   0.974  0.6938 -1.2077  1.3807
 1379TIP3   OH225771   3.371   3.713   7.878  0.2643  0.0955  0.4532
 1379TIP3    H125772   3.290   3.693   7.832  0.0972 -1.1337  1.2700
 1379TIP3    H225773   3.349   3.786   7.936 -0.1246  0.1183  0.2714
 1380TIP3   OH225774   2.675   6.333   8.045  0.5059 -0.0978  0.2990
 1380TIP3    H125775   2.595   6.325   7.993  0.9229  1.6734 -0.6343
 1380TIP3    H225776   2.660   6.408   8.102  0.1008 -1.9410  2.7165
 1381TIP3   OH225777   3.488   5.122   6.576 -0.1176  0.0369 -0.1593
 1381TIP3    H125778   3.570   5.098   6.619 -0.2572 -0.2064 -0.0316
 1381TIP3    H225779   3.451   5.039   6.546 -0.3682  0.1368 -0.1285
 1382TIP3   OH225780   5.445   3.667   6.828 -0.5397 -0.8621 -0.2247
 1382TIP3    H125781   5.351   3.681   6.821 -0.3625  0.9098  0.5924
 1382TIP3    H225782   5.479   3.686   6.741 -0.8292 -0.6453 -0.2892
 1383TIP3   OH225783   7.109   4.668   6.801 -0.2551 -0.3046 -0.3933
 1383TIP3    H125784   7.182   4.614   6.768 -0.3274 -0.1235 -0.8596
 1383TIP3    H225785   7.032   4.636   6.754 -0.2742  0.2987 -0.7793
 1384TIP3   OH225786   5.440   4.424   6.517 -0.3955  0.0272  0.7106
 1384TIP3    H125787   5.345   4.426   6.503 -0.5024  1.7693  1.5351
 1384TIP3    H225788   5.471   4.505   6.475  0.4936  0.3551  1.9835
 1385TIP3   OH225789   4.098   4.187   7.336  0.2570 -0.3076  0.1837
 1385TIP3    H125790   4.175   4.139   7.305 -0.1327 -0.3805 -0.6734
 1385TIP3    H225791   4.069   4.138   7.414  0.7213 -0.6228  0.1602
 1386TIP3   OH225792   1.346   4.969   5.587 -0.9530 -0.0394 -0.7488
 1386TIP3    H125793   1.372   4.995   5.676 -0.6126  2.2165 -1.4749
 1386TIP3    H225794   1.349   4.873   5.588 -1.7495 -0.0783  1.9061
 1387TIP3   OH225795   3.425   6.990   7.771 -0.1213 -0.0909  0.5310
 1387TIP3    H125796   3.516   6.987   7.740  0.3814  0.2344  1.9591
 1387TIP3    H225797   3.431   6.987   7.866 -1.7245 -2.4994  0.6152
 1388TIP3   OH225798   6.319   2.580   0.998 -0.6189 -0.2614  0.2539
 1388TIP3    H125799   6.339   2.672   1.017  0.2520 -0.1921 -0.9295
 1388TIP3    H225800   6.225   2.578   0.984 -0.6898  0.3888  0.6036
 1389TIP3   OH225801   6.656   1.875   7.784  0.8296 -0.6337 -0.8257
 1389TIP3    H125802   6.640   1.924   7.704 -0.8556  1.1870  0.5770
 1389TIP3    H225803   6.575   1.826   7.799  1.3360 -1.3861 -0.5263
 1390TIP3   OH225804   4.051   4.434   7.136 -0.1346  0.1454  0.1237
 1390TIP3    H125805   4.073   4.373   7.206  0.6960 -1.2641 -1.3216
 1390TIP3    H225806   4.062   4.521   7.175 -0.1819 -0.6119  1.8645
 1391TIP3   OH225807   1.845   5.700   6.418  0.2988 -0.0041 -0.0765
 1391TIP3    H125808   1.757   5.700   6.457  0.1065 -1.1703 -0.4747
 1391TIP3    H225809   1.865   5.607   6.406  1.7219  0.2467  0.2979
 1392TIP3   OH225810   1.663   5.045   7.848 -0.0177  0.0372  0.3258
 1392TIP3    H125811   1.676   5.075   7.759  0.5138 -2.3880 -0.4626
 1392TIP3    H225812   1.713   5.106   7.902  1.7371  0.0271 -1.2659
 1393TIP3   OH225813   3.231   5.733   7.983  0.8173 -0.7599  0.1276
 1393TIP3    H125814   3.268   5.761   7.900  1.4538  0.1648  0.7143
 1393TIP3    H225815   3.183   5.653   7.962  0.9845 -0.5432 -1.1196
 1394TIP3   OH225816   4.591   4.660   8.075 -0.1803 -0.3196 -0.2670
 1394TIP3    H125817   4.663   4.598   8.078 -0.0898 -0.2649 -1.2297
 1394TIP3    H225818   4.630   4.744   8.100  0.2448 -0.1480 -1.4949
 1395TIP3   OH225819   4.584   2.229   7.541  0.3026 -0.1541  0.3150
 1395TIP3    H125820   4.522   2.156   7.534  0.6853 -0.6380  1.7648
 1395TIP3    H225821   4.589   2.265   7.452 -1.3079 -0.7193 -0.0175
 1396TIP3   OH225822   1.328   0.932   6.513  0.1724 -0.2334 -0.0003
 1396TIP3    H125823   1.360   1.021   6.501  0.5277 -0.4516 -0.7138
 1396TIP3    H225824   1.407   0.879   6.527 -0.1942 -0.0638  2.9805
 1397TIP3   OH225825   0.238   4.393   7.751 -0.6396  0.4299 -0.2557
 1397TIP3    H125826   0.246   4.369   7.843 -3.7337  1.7577  0.4058
 1397TIP3    H225827   0.144   4.391   7.733 -0.0602 -0.6622 -3.6371
 1398TIP3   OH225828   0.881   1.305   7.429  0.2711 -0.5353  0.4230
 1398TIP3    H125829   0.955   1.366   7.425 -1.9945  2.4504  1.8612
 1398TIP3    H225830   0.887   1.265   7.516  0.6825 -0.9497  0.2051
 1399TIP3   OH225831   3.444   1.109   6.311  0.6129 -0.2564  0.9098
 1399TIP3    H125832   3.511   1.076   6.252  1.5093 -0.9951  2.3034
 1399TIP3    H225833   3.361   1.084   6.270  1.0862  2.7177 -2.0051
 1400TIP3   OH225834   4.386   1.741   6.693 -0.2144 -0.0480 -0.1921
 1400TIP3    H125835   4.349   1.760   6.606 -0.1539 -0.2087 -0.2514
 1400TIP3    H225836   4.442   1.816   6.712  1.2623 -0.9134 -1.1052
 1401TIP3   OH225837   2.994   3.177   7.045 -0.0034 -0.0500 -0.2448
 1401TIP3    H125838   2.987   3.098   7.098 -0.4182 -0.7573 -1.3334
 1401TIP3    H225839   3.023   3.245   7.106 -2.2174 -0.4303  1.2864
 1402TIP3   OH225840   3.370   2.378   5.808  0.1079 -0.2834  0.2900
 1402TIP3    H125841   3.391   2.294   5.849 -1.5651 -1.0043 -0.2645
 1402TIP3    H225842   3.292   2.408   5.855 -1.1714 -0.5863 -1.5762
 1403TIP3   OH225843   3.163   3.097   5.984 -0.6126  0.6795  0.0410
 1403TIP3    H125844   3.258   3.097   5.997 -0.7396  0.3485  1.0145
 1403TIP3    H225845   3.130   3.166   6.042 -1.4933 -2.8714  4.0634
 1404TIP3   OH225846   2.831   2.365   6.188 -0.4818 -0.4078  0.3249
 1404TIP3    H125847   2.822   2.349   6.094 -0.2922  1.0413  0.0451
 1404TIP3    H225848   2.924   2.385   6.201 -0.6940  0.3649  0.6636
 1405TIP3   OH225849   3.523   5.160   6.288 -0.0105 -0.5131  0.2506
 1405TIP3    H125850   3.497   5.188   6.375  0.0455  1.1497 -0.2589
 1405TIP3    H225851   3.442   5.160   6.237  0.3040  0.7446 -0.2785
 1406TIP3   OH225852   0.790   5.668   6.250  0.2374  0.0509 -0.4806
 1406TIP3    H125853   0.828   5.752   6.276  1.4098 -0.3561 -0.8132
 1406TIP3    H225854   0.703   5.690   6.217  0.2836  1.0527  0.0452
 1407TIP3   OH225855   6.746   5.518   6.949 -0.6998  0.4749 -0.0825
 1407TIP3    H125856   6.705   5.458   7.010 -2.7324  1.1596 -0.7485
 1407TIP3    H225857   6.765   5.465   6.871  0.8086 -0.1111  0.6492
 1408TIP3   OH225858   4.545   6.837   0.808 -0.6113  0.1342  0.2557
 1408TIP3    H125859   4.634   6.807   0.795 -0.3610  1.2646 -0.6936
 1408TIP3    H225860   4.491   6.760   0.792  0.0647 -0.0084 -1.4337
 1409TIP3   OH225861   4.336   4.804   0.588  0.4459  0.1376 -0.3423
 1409TIP3    H125862   4.371   4.782   0.502  0.2807  0.1833 -0.4219
 1409TIP3    H225863   4.315   4.719   0.628  2.2024  0.0124  0.3741
 1410TIP3   OH225864   6.626   2.980   7.604 -0.3141  0.2319 -0.4813
 1410TIP3    H125865   6.714   3.016   7.597 -0.0936 -0.5610 -1.9515
 1410TIP3    H225866   6.611   2.971   7.698  0.9451  0.9172 -0.2093
 1411TIP3   OH225867   3.498   2.764   6.595  0.4382  0.6518 -0.2877
 1411TIP3    H125868   3.477   2.855   6.618 -1.0647  0.2045  0.1266
 1411TIP3    H225869   3.591   2.755   6.619  0.2494  1.6804  0.8982
 1412TIP3   OH225870   4.073   0.490   2.236  0.3459  0.2343  0.8452
 1412TIP3    H125871   4.084   0.397   2.218  0.7888  0.5880 -0.7277
 1412TIP3    H225872   4.155   0.517   2.277  0.8716  0.2916 -0.2272
 1413TIP3   OH225873   4.298   6.066   7.394  0.0171 -0.3624  0.4998
 1413TIP3    H125874   4.274   6.139   7.450  0.1880  1.0251 -1.1704
 1413TIP3    H225875   4.251   6.082   7.312  0.6191 -1.7327 -0.1436
 1414TIP3   OH225876   5.157   2.059   1.659 -0.4783 -0.5887 -0.3470
 1414TIP3    H125877   5.152   2.139   1.711  0.6218 -0.6551 -0.1306
 1414TIP3    H225878   5.102   1.997   1.706 -0.3918 -0.3121  0.1230
 1415TIP3   OH225879   2.787   4.168   1.471  0.5653  0.0556  0.1033
 1415TIP3    H125880   2.877   4.192   1.450  0.5840 -0.4097 -0.3480
 1415TIP3    H225881   2.784   4.073   1.464  0.2655 -0.0150  1.0297
 1416TIP3   OH225882   5.538   1.464   7.152  0.1868  0.0030  0.3880
 1416TIP3    H125883   5.569   1.407   7.222  1.0679  0.6116  0.4966
 1416TIP3    H225884   5.525   1.405   7.077 -2.7112 -1.0027  1.6037
 1417TIP3   OH225885   5.304   1.993   6.869  0.8170  0.1493  0.1493
 1417TIP3    H125886   5.282   1.900   6.872  1.1987  0.0773  0.7341
 1417TIP3    H225887   5.377   1.998   6.807  0.5870  0.1063 -0.1284
 1418TIP3   OH225888   6.293   2.680   6.111 -0.1049 -0.7450 -0.0215
 1418TIP3    H125889   6.385   2.677   6.085  0.5885  1.8971  1.8186
 1418TIP3    H225890   6.284   2.611   6.177  1.0815  0.2632  1.2201
 1419TIP3   OH225891   4.856   4.374   0.153 -1.0558 -0.1477 -0.5073
 1419TIP3    H125892   4.832   4.283   0.138 -1.6715 -0.1822  0.5998
 1419TIP3    H225893   4.833   4.419   0.072  0.3000 -1.1681 -1.4704
 1420TIP3   OH225894   4.754   2.635   6.297  0.6244 -0.2230 -0.3137
 1420TIP3    H125895   4.737   2.721   6.258 -0.9641 -0.7929 -0.9165
 1420TIP3    H225896   4.742   2.574   6.225  0.3434 -1.0690  0.4457
 1421TIP3   OH225897   4.758   2.222   7.264  0.0736  0.4656  0.1090
 1421TIP3    H125898   4.677   2.177   7.288 -0.3636  0.3437 -1.6031
 1421TIP3    H225899   4.731   2.290   7.202  1.3279  0.1895 -0.7489
 1422TIP3   OH225900   0.085   3.108   1.314 -0.2357  0.6775  0.2852
 1422TIP3    H125901   0.165   3.159   1.324  0.1541 -0.0271  0.8437
 1422TIP3    H225902   0.032   3.157   1.251  0.8022  0.9353 -0.3970
 1423TIP3   OH225903   2.623   2.145   0.055 -0.1212  0.3945  0.6284
 1423TIP3    H125904   2.585   2.057   0.065 -0.3096  0.4008 -0.0331
 1423TIP3    H225905   2.637   2.175   0.145  1.1540 -0.8313  0.8473
 1424TIP3   OH225906   5.069   1.572   7.993  0.2455  0.3978  0.3364
 1424TIP3    H125907   5.012   1.514   8.043  1.9625 -1.9062 -0.3337
 1424TIP3    H225908   5.095   1.521   7.917  2.3006  1.8279  0.0326
 1425TIP3   OH225909   6.122   5.108   0.090  0.1457 -0.1125  0.8460
 1425TIP3    H125910   6.100   5.155   0.171 -1.3129  0.3269  0.1965
 1425TIP3    H225911   6.078   5.024   0.099  0.0985 -0.1154  0.5661
 1426TIP3   OH225912   3.545   4.952   7.943  0.2236 -0.0159  0.4042
 1426TIP3    H125913   3.471   4.922   7.891  0.7975 -0.5922 -0.0904
 1426TIP3    H225914   3.550   4.891   8.017  2.4939 -2.3178 -1.5460
 1427TIP3   OH225915   1.878   5.050   0.648 -0.2816  0.2543  0.2296
 1427TIP3    H125916   1.909   4.960   0.659 -0.8229  0.1152  0.6649
 1427TIP3    H225917   1.897   5.092   0.732  0.9129  0.8456 -0.3144
 1428TIP3   OH225918   6.088   0.057   7.729 -0.0136  0.7187 -0.1185
 1428TIP3    H125919   6.181   0.065   7.708 -0.4548  1.1652 -1.9241
 1428TIP3    H225920   6.070   0.130   7.788  0.6448  0.9784 -0.2358
 1429TIP3   OH225921   3.780   3.911   7.735  0.2576  0.0031  0.1665
 1429TIP3    H125922   3.726   3.964   7.677 -0.0601  0.4050  0.8193
 1429TIP3    H225923   3.749   3.821   7.722  0.2717  0.0774 -0.3709
 1430TIP3   OH225924   0.216   2.941   7.762 -0.5266 -0.1978 -0.3683
 1430TIP3    H125925   0.237   3.025   7.802 -0.4974  0.3255 -1.4799
 1430TIP3    H225926   0.269   2.878   7.810 -0.5124  0.4193  0.4401
 1431TIP3   OH225927   3.410   3.042   6.367 -0.6444  0.0308  0.6959
 1431TIP3    H125928   3.361   2.960   6.375 -1.3881  0.5135  1.1914
 1431TIP3    H225929   3.501   3.015   6.354 -0.9241 -0.8726  0.5944
 1432TIP3   OH225930   4.255   3.560   0.896 -0.0440 -0.4309  0.2372
 1432TIP3    H125931   4.347   3.548   0.871 -0.2614  1.3857 -1.5650
 1432TIP3    H225932   4.258   3.624   0.967 -0.0200  0.8299 -0.8918
 1433TIP3   OH225933   5.574   5.061   7.320 -0.2806  0.4050  0.6094
 1433TIP3    H125934   5.533   5.021   7.244  2.3301 -1.1149 -0.0698
 1433TIP3    H225935   5.589   5.152   7.294  1.2110 -0.2702 -1.0018
 1434TIP3   OH225936   2.843   4.924   7.664  0.2383  0.1407  0.6669
 1434TIP3    H125937   2.896   4.991   7.707 -0.2542  0.6402  0.4994
 1434TIP3    H225938   2.894   4.898   7.588  0.8831 -0.3818  1.2680
 1435TIP3   OH225939   2.002   1.889   8.039  0.5080  0.2897 -0.3257
 1435TIP3    H125940   1.969   1.815   8.090  1.0780  0.9580  1.0397
 1435TIP3    H225941   1.924   1.938   8.012  0.2851  1.0419  1.6240
 1436TIP3   OH225942   5.818   1.231   0.012 -0.0367 -0.2402 -0.3024
 1436TIP3    H125943   5.908   1.203   0.030  0.1188  1.1454  1.1899
 1436TIP3    H225944   5.775   1.153  -0.023  1.2408 -1.4316  0.7325
 1437TIP3   OH225945   5.910   5.187   7.370 -0.0328  0.1751  0.3371
 1437TIP3    H125946   5.925   5.098   7.402  0.0321  0.3316  0.7511
 1437TIP3    H225947   5.985   5.237   7.403 -1.1385  0.8504  1.9381
 1438TIP3   OH225948   0.264   1.038   7.353  0.1422  0.2591  0.2463
 1438TIP3    H125949   0.237   1.122   7.316 -1.4974  0.4582  1.7921
 1438TIP3    H225950   0.295   1.060   7.441 -0.7064 -0.7785  0.8161
 1439TIP3   OH225951   5.493   1.350   6.466 -0.1007 -0.6510 -0.1498
 1439TIP3    H125952   5.465   1.307   6.546 -1.2847 -1.5056 -0.9960
 1439TIP3    H225953   5.452   1.436   6.469  0.0558 -0.5910  0.2735
 1440TIP3   OH225954   3.016   3.790   7.219 -0.0882 -0.2253  0.1917
 1440TIP3    H125955   3.065   3.757   7.294 -0.5851  0.1635  0.6889
 1440TIP3    H225956   2.947   3.843   7.257 -0.0242  0.4056 -0.5627
 1441TIP3   OH225957   1.864   4.090   0.220 -0.3478  0.0836 -0.2607
 1441TIP3    H125958   1.827   4.177   0.209  1.3202  1.2451  2.6593
 1441TIP3    H225959   1.944   4.090   0.168 -0.5174  0.1828 -0.5196
 1442TIP3   OH225960   2.307   5.992   6.305  0.6660 -0.6219 -0.4461
 1442TIP3    H125961   2.342   6.055   6.243 -2.2888  1.6100  0.0630
 1442TIP3    H225962   2.362   6.002   6.383  0.0992  1.5409 -0.2936
 1443TIP3   OH225963   6.144   2.183   0.121  0.4980 -0.0523 -0.2260
 1443TIP3    H125964   6.081   2.247   0.154  1.1710  1.1847 -1.2771
 1443TIP3    H225965   6.104   2.147   0.043  0.1214 -0.9375  0.3624
 1444TIP3   OH225966   4.944   3.944   6.406  0.0270 -0.1234  0.2631
 1444TIP3    H125967   4.917   4.030   6.438 -1.3843 -1.3173  2.4139
 1444TIP3    H225968   4.922   3.945   6.313  0.6691  2.0673  0.1117
 1445TIP3   OH225969   4.959   2.763   0.555  0.6706 -0.0184 -0.1615
 1445TIP3    H125970   5.054   2.758   0.549  0.7336  1.2195 -0.3946
 1445TIP3    H225971   4.938   2.730   0.643  1.2721 -0.6654 -0.2594
 1446TIP3   OH225972   6.841   2.408   8.125  0.0422 -0.4081  0.3190
 1446TIP3    H125973   6.753   2.438   8.145  0.4864  0.8123  0.5150
 1446TIP3    H225974   6.846   2.409   8.030 -0.5506 -1.6747  0.2679
 1447TIP3   OH225975   2.501   0.814   8.037  0.4016  1.0654 -0.3073
 1447TIP3    H125976   2.456   0.730   8.040 -0.5989  1.6029  0.2040
 1447TIP3    H225977   2.432   0.878   8.053  1.4894  1.8631  1.3071
 1448TIP3   OH225978   4.216   1.181   6.973  0.3716  0.0217  0.3091
 1448TIP3    H125979   4.121   1.192   6.984  0.3757  0.3397  0.0572
 1448TIP3    H225980   4.238   1.102   7.022  0.0887  0.3513  0.9750
 1449TIP3   OH225981   5.590   4.121   7.173  0.0881  0.0897  0.4657
 1449TIP3    H125982   5.666   4.148   7.122  0.1597  0.8476  0.9665
 1449TIP3    H225983   5.606   4.029   7.194  0.8274  0.2213  0.4984
 1450TIP3   OH225984   5.852   1.562   6.973 -0.6470  0.3128 -0.0699
 1450TIP3    H125985   5.794   1.492   7.004 -0.7493  2.2838  4.6130
 1450TIP3    H225986   5.793   1.636   6.957 -0.2550  0.1099 -2.6266
 1451TIP3   OH225987   4.799   2.789   5.863  0.9280  0.4542 -0.0320
 1451TIP3    H125988   4.859   2.752   5.797 -0.2090  0.0120 -0.8249
 1451TIP3    H225989   4.716   2.798   5.817  0.2259  0.4990  1.2490
 1452TIP3   OH225990   3.165   6.991   2.010 -0.5790  0.0469 -0.3218
 1452TIP3    H125991   3.115   7.069   1.987  1.8795  1.7372 -0.1022
 1452TIP3    H225992   3.196   7.007   2.099  1.5490 -0.3302 -0.9742
 1453TIP3   OH225993   6.202   3.980   1.289  0.1951 -0.1435  0.5121
 1453TIP3    H125994   6.190   3.915   1.219 -0.6471 -0.0951  0.6034
 1453TIP3    H225995   6.142   4.051   1.266 -0.8846 -0.5936  1.8378
 1454TIP3   OH225996   6.340   0.996   0.794 -0.1490 -0.1979 -0.0115
 1454TIP3    H125997   6.433   0.997   0.770 -0.4879  3.0901 -1.3523
 1454TIP3    H225998   6.338   1.028   0.884 -0.0874  0.9833 -0.4276
 1455TIP3   OH225999   5.139   5.887   7.513  0.0171  0.1370  0.3713
 1455TIP3    H126000   5.167   5.893   7.605 -0.2577  0.7267  0.4236
 1455TIP3    H226001   5.127   5.979   7.486  1.0435  0.0081 -0.5511
 1456TIP3   OH226002   3.190   2.377   6.869  0.2899 -0.1007 -0.5208
 1456TIP3    H126003   3.175   2.461   6.825 -2.0341  0.3656  1.1083
 1456TIP3    H226004   3.234   2.400   6.951  0.0744 -0.5265 -0.2824
 1457TIP3   OH226005   5.085   4.249   1.057  0.0012 -0.4890 -0.9126
 1457TIP3    H126006   5.141   4.199   1.115  1.7858  0.7741 -1.5189
 1457TIP3    H226007   5.043   4.314   1.114 -1.8906 -2.2376 -0.2294
 1458TIP3   OH226008   0.048   2.113   7.897  0.5234  0.0419  0.1037
 1458TIP3    H126009   0.033   2.019   7.897  1.6658 -0.1561  1.5880
 1458TIP3    H226010  -0.014   2.148   7.960 -1.6993  0.6337 -2.3067
 1459TIP3   OH226011   0.736   6.401   7.244  0.0136 -0.0537 -0.0433
 1459TIP3    H126012   0.685   6.471   7.287 -0.6303  0.7330 -2.0196
 1459TIP3    H226013   0.772   6.443   7.166  0.7596 -1.5848 -0.5316
 1460TIP3   OH226014   2.990   4.207   0.038 -0.4089  0.1534  0.1504
 1460TIP3    H126015   3.005   4.224   0.131 -0.0236 -0.6870  0.2507
 1460TIP3    H226016   2.897   4.184   0.033  0.2572 -2.8831  0.8297
 1461TIP3   OH226017   4.673   2.320   6.796  0.0878  0.1040  0.0682
 1461TIP3    H126018   4.667   2.264   6.873  0.1988 -0.4702 -0.3349
 1461TIP3    H226019   4.652   2.263   6.722  0.4403  0.5319 -0.3749
 1462TIP3   OH226020   3.947   2.964   6.302  0.1033 -0.7746 -0.6169
 1462TIP3    H126021   3.921   2.948   6.211 -2.1023 -1.4500  0.0919
 1462TIP3    H226022   3.880   3.024   6.336  1.1390 -0.2029  0.4511
 1463TIP3   OH226023   2.365   4.061   0.468 -0.1072 -0.0070  0.7215
 1463TIP3    H126024   2.381   3.967   0.461 -0.4351  0.0567 -1.1752
 1463TIP3    H226025   2.273   4.072   0.445 -0.3934  0.6565  2.1458
 1464TIP3   OH226026   0.065   4.017   1.169  0.3355  0.1537  0.2062
 1464TIP3    H126027   0.131   4.075   1.208 -1.4113  4.1310 -2.4704
 1464TIP3    H226028  -0.014   4.033   1.222  0.1537 -0.6927  0.1888
 1465TIP3   OH226029   4.263   2.699   7.403 -0.4563  0.2208 -0.3848
 1465TIP3    H126030   4.181   2.697   7.354 -1.1591 -3.0637  0.8001
 1465TIP3    H226031   4.247   2.761   7.474 -1.0463  1.4061 -1.5279
 1466TIP3   OH226032   5.388   0.338   7.025 -0.0459 -0.7674  0.4493
 1466TIP3    H126033   5.373   0.314   7.116 -0.7765 -1.7446  0.0676
 1466TIP3    H226034   5.324   0.407   7.007 -0.7553 -1.4717  0.2906
 1467TIP3   OH226035   2.931   1.518   7.599  0.3791  0.1241  0.2297
 1467TIP3    H126036   2.876   1.542   7.674  0.1544  0.3950 -0.0219
 1467TIP3    H226037   2.885   1.445   7.558  0.4861 -0.0042  0.3413
 1468TIP3   OH226038   5.627   2.835   1.866 -0.0593  0.7432  0.6894
 1468TIP3    H126039   5.553   2.787   1.830  1.7298 -0.8719 -0.9812
 1468TIP3    H226040   5.660   2.781   1.938  1.2261  0.0094 -0.4234
 1469TIP3   OH226041   2.291   6.722   7.919  0.0888  0.2293  0.1152
 1469TIP3    H126042   2.359   6.789   7.910 -0.4133  0.8739  0.9976
 1469TIP3    H226043   2.325   6.647   7.870  1.6445  0.3936  0.8976
 1470TIP3   OH226044   3.196   4.517   6.007 -0.2113  0.5051 -0.1235
 1470TIP3    H126045   3.134   4.481   5.943  1.9476 -0.3305 -1.7748
 1470TIP3    H226046   3.207   4.608   5.980 -1.5167  0.9454  0.8055
 1471TIP3   OH226047   5.016   1.181   0.930  0.0164  0.0801  0.1715
 1471TIP3    H126048   5.027   1.183   1.025 -0.8057 -0.0389  0.2693
 1471TIP3    H226049   4.930   1.221   0.915  0.5978  1.0751 -0.5942
 1472TIP3   OH226050   5.261   3.887   7.589  0.4720  1.0839  0.3029
 1472TIP3    H126051   5.285   3.889   7.496  0.9158  1.1162  0.4167
 1472TIP3    H226052   5.185   3.945   7.596 -0.3859  0.0380 -0.2734
 1473TIP3   OH226053   2.142   7.114   7.594 -0.5521 -0.3637  0.3684
 1473TIP3    H126054   2.195   7.112   7.515 -2.7317  2.1212 -1.2406
 1473TIP3    H226055   2.076   7.046   7.581 -0.2565 -0.6820  0.5333
 1474TIP3   OH226056   5.040   2.746   6.233  0.6003 -0.1526  0.0888
 1474TIP3    H126057   4.999   2.681   6.290  0.2650  0.4737  0.5642
 1474TIP3    H226058   4.999   2.829   6.257  1.8908  0.4326  0.3133
 1475TIP3   OH226059   1.716   2.516   0.224 -0.1563 -0.5228  0.5610
 1475TIP3    H126060   1.665   2.532   0.304 -0.9273 -1.0001  0.1775
 1475TIP3    H226061   1.649   2.496   0.157  0.4274  0.5348 -0.3639
 1476TIP3   OH226062   0.948   6.896   6.404 -0.1748  0.0931  0.6185
 1476TIP3    H126063   0.999   6.900   6.323 -1.3337 -0.1274 -0.1498
 1476TIP3    H226064   0.956   6.806   6.434 -1.4856 -0.3949 -0.4371
 1477TIP3   OH226065   2.701   0.364   6.941 -0.2881  0.1281  0.4771
 1477TIP3    H126066   2.641   0.391   7.010  0.8929 -0.9683  1.9593
 1477TIP3    H226067   2.776   0.422   6.950 -1.2562  1.8088 -1.6690
 1478TIP3   OH226068   3.145   7.113   7.810  0.4047 -0.6673 -0.1093
 1478TIP3    H126069   3.171   7.085   7.722  1.1449  0.8395 -0.3942
 1478TIP3    H226070   3.178   7.045   7.868  1.3886 -0.8389 -0.8562
 1479TIP3   OH226071   1.146   5.101   7.682 -0.3499  0.5229  0.0312
 1479TIP3    H126072   1.115   5.111   7.592 -0.2843  0.9889  0.0608
 1479TIP3    H226073   1.241   5.091   7.674 -0.4917 -0.9328 -0.0629
 1480TIP3   OH226074   2.696   1.834   7.715 -0.0845  0.6085 -0.1255
 1480TIP3    H126075   2.658   1.748   7.698 -0.9531  1.5294 -3.1098
 1480TIP3    H226076   2.632   1.878   7.770  0.5876 -0.7848  1.8360
 1481TIP3   OH226077   3.289   4.023   7.668 -0.0650  0.0350 -0.1193
 1481TIP3    H126078   3.371   4.063   7.696 -0.6168  1.1903 -0.1318
 1481TIP3    H226079   3.221   4.085   7.694 -1.1477 -1.9366  1.9401
 1482TIP3   OH226080   3.571   5.056   6.988 -0.4851  0.2393  0.0848
 1482TIP3    H126081   3.536   4.970   7.011  0.0847  0.1781  0.7245
 1482TIP3    H226082   3.637   5.038   6.921 -0.3994  0.1814  0.1842
 1483TIP3   OH226083   3.815   2.361   1.880  0.4313 -0.1749 -0.2443
 1483TIP3    H126084   3.732   2.359   1.928 -0.4901  1.1863 -1.7557
 1483TIP3    H226085   3.858   2.442   1.908  0.7552 -0.3247 -0.2995
 1484TIP3   OH226086   3.395   3.008   0.307 -0.5910  0.5458 -0.1817
 1484TIP3    H126087   3.391   3.043   0.397 -0.1452  0.2796 -0.0566
 1484TIP3    H226088   3.325   3.054   0.261 -1.2236  0.2317  0.4598
 1485TIP3   OH226089   4.232   5.359   1.415  0.0355  1.0897  0.2460
 1485TIP3    H126090   4.324   5.339   1.400 -0.5910 -1.8704 -0.0135
 1485TIP3    H226091   4.192   5.356   1.327 -0.4068  1.7793  0.4197
 1486TIP3   OH226092   3.259   5.271   6.224 -0.2627  0.6616  0.0124
 1486TIP3    H126093   3.311   5.352   6.231  1.0968 -0.1253 -0.7363
 1486TIP3    H226094   3.213   5.279   6.141  0.7072  0.1971 -0.5767
 1487TIP3   OH226095   4.237   1.802   1.664 -0.8298 -0.2061 -0.0056
 1487TIP3    H126096   4.301   1.789   1.594 -0.5284 -0.0138  0.2311
 1487TIP3    H226097   4.229   1.716   1.706 -0.2609 -0.0872  0.3557
 1488TIP3   OH226098   5.341   4.211   7.154  0.1878 -0.6417 -0.2335
 1488TIP3    H126099   5.363   4.304   7.152 -0.5012 -0.4867 -2.3457
 1488TIP3    H226100   5.419   4.167   7.120  0.6954 -0.9027  1.2204
 1489TIP3   OH226101   3.538   4.192   6.525 -0.3059  0.1322 -0.5631
 1489TIP3    H126102   3.538   4.268   6.467 -0.0757 -1.1013 -2.2043
 1489TIP3    H226103   3.457   4.201   6.576 -1.0408  0.6880 -1.8067
 1490TIP3   OH226104   3.375   1.004   1.560 -0.3117  0.3116  0.4252
 1490TIP3    H126105   3.327   1.045   1.633  0.1164  0.9115  0.3718
 1490TIP3    H226106   3.447   1.065   1.541 -1.0429  0.6894 -1.2082
 1491TIP3   OH226107   5.110   0.166   1.405  0.4868  0.5969 -0.4414
 1491TIP3    H126108   5.078   0.116   1.330 -0.7291 -1.7713  1.5654
 1491TIP3    H226109   5.032   0.207   1.442  0.9790  1.2716 -0.1362
 1492TIP3   OH226110   3.989   1.613   6.492  0.0754  0.6481 -0.4215
 1492TIP3    H126111   3.928   1.598   6.421  0.8037  1.7554 -1.3008
 1492TIP3    H226112   4.075   1.597   6.453  0.4513  0.8497  0.3193
 1493TIP3   OH226113   4.828   2.922   7.833 -0.6861 -0.0395  0.0885
 1493TIP3    H126114   4.902   2.897   7.889 -0.6881 -0.6721 -0.1870
 1493TIP3    H226115   4.757   2.864   7.861 -1.2917  1.0401  0.8350
 1494TIP3   OH226116   3.222   1.105   6.121  0.2996 -0.3845  0.4184
 1494TIP3    H126117   3.133   1.127   6.092 -0.1712 -2.3204  0.3055
 1494TIP3    H226118   3.248   1.034   6.063  2.3444  0.8468 -0.2235
 1495TIP3   OH226119   3.339   5.875   6.756 -0.5983 -0.2278  0.4655
 1495TIP3    H126120   3.298   5.874   6.843  0.1250  0.6092  0.8256
 1495TIP3    H226121   3.405   5.807   6.760 -0.3178  0.0568  0.6963
 1496TIP3   OH226122   4.001   4.813   1.375  0.2938 -0.2839  0.0374
 1496TIP3    H126123   3.949   4.884   1.337  0.3308 -0.1017  0.3309
 1496TIP3    H226124   4.087   4.822   1.335 -0.1253 -1.0875 -1.0809
 1497TIP3   OH226125   5.809   6.445   7.791  0.5562 -0.0701 -0.5041
 1497TIP3    H126126   5.824   6.367   7.736 -0.9134  1.8869 -3.8540
 1497TIP3    H226127   5.881   6.504   7.769  0.2245  0.5540  0.0649
 1498TIP3   OH226128   0.943   4.527   6.188  0.2131  0.3353  0.5488
 1498TIP3    H126129   1.023   4.502   6.235 -0.5102 -0.9130  1.1209
 1498TIP3    H226130   0.961   4.502   6.097  0.1975 -0.5695  0.7986
 1499TIP3   OH226131   5.536   6.120   6.086 -0.1305 -0.0632  0.3705
 1499TIP3    H126132   5.523   6.042   6.141 -1.7963 -0.9142 -1.1920
 1499TIP3    H226133   5.556   6.085   6.000 -1.5552  1.2366 -0.5063
 1500TIP3   OH226134   6.387   3.518   6.303  0.3018  0.1601 -0.4083
 1500TIP3    H126135   6.453   3.567   6.254 -0.9613  0.6251 -1.6931
 1500TIP3    H226136   6.353   3.454   6.240 -1.9691  1.3594 -0.4589
 1501TIP3   OH226137   3.516   0.145   1.505  0.3356 -0.0368 -0.1174
 1501TIP3    H126138   3.534   0.196   1.426 -1.2209 -0.7261 -0.9487
 1501TIP3    H226139   3.570   0.185   1.573  0.8771  1.2468 -1.2868
 1502TIP3   OH226140   4.703   0.923   1.122 -0.2722  0.0241 -0.5481
 1502TIP3    H126141   4.739   0.928   1.033 -0.7309 -0.1460 -0.7448
 1502TIP3    H226142   4.738   0.841   1.157  1.4315  0.9929  0.1083
 1503TIP3   OH226143   6.889   1.795   6.480 -0.1055 -0.3332 -0.1029
 1503TIP3    H126144   6.842   1.838   6.408 -0.0270 -1.8517 -1.0866
 1503TIP3    H226145   6.822   1.779   6.546 -0.0225  1.8354  0.5605
 1504TIP3   OH226146   5.579   0.044   6.473 -0.3522 -0.8811  0.3050
 1504TIP3    H126147   5.641   0.059   6.402  1.3075 -2.2917  1.4065
 1504TIP3    H226148   5.533   0.127   6.483 -0.0233 -0.4136 -1.8509
 1505TIP3   OH226149   6.435   2.867   7.247 -0.0921 -0.3184 -0.5162
 1505TIP3    H126150   6.477   2.940   7.292 -0.7390  0.4081 -1.0840
 1505TIP3    H226151   6.455   2.791   7.302  0.4939  0.2980  0.1382
 1506TIP3   OH226152   5.176   2.588   5.668  0.1552 -0.2301  0.5151
 1506TIP3    H126153   5.254   2.638   5.691 -0.5779  1.5187 -0.7528
 1506TIP3    H226154   5.207   2.497   5.661  1.8188  0.2790  1.1874
 1507TIP3   OH226155   3.289   6.933   7.016  0.2414 -0.3173  0.0764
 1507TIP3    H126156   3.313   7.024   7.032 -0.8940  0.1472 -0.8459
 1507TIP3    H226157   3.268   6.898   7.102 -0.6662  0.6749  0.2579
 1508TIP3   OH226158   2.557   4.370   0.925 -0.1789  0.1132  0.2516
 1508TIP3    H126159   2.543   4.281   0.891  2.9333 -1.9994  4.0422
 1508TIP3    H226160   2.509   4.371   1.008  2.2603  0.8988  1.6840
 1509TIP3   OH226161   0.064   6.654   1.056  0.1825 -0.4524 -0.5627
 1509TIP3    H126162   0.084   6.644   1.149 -1.1106  0.0267 -0.2140
 1509TIP3    H226163   0.140   6.619   1.011  1.1909  0.0805  0.6860
 1510TIP3   OH226164   1.992   2.340   7.495  0.0982  0.4020  0.1591
 1510TIP3    H126165   1.988   2.435   7.507  0.1567  0.4009  0.1889
 1510TIP3    H226166   2.083   2.317   7.517  0.7102  0.6331 -2.0693
 1511TIP3   OH226167   5.560   2.508   7.183 -0.0537 -0.0371 -0.1695
 1511TIP3    H126168   5.467   2.522   7.197 -0.0030  0.2761 -0.1371
 1511TIP3    H226169   5.573   2.521   7.090 -0.0677 -0.2375 -0.2008
 1512TIP3   OH226170   1.318   4.402   8.090  0.7717  0.0020  0.1850
 1512TIP3    H126171   1.289   4.344   8.161 -1.2174  1.2178  0.3883
 1512TIP3    H226172   1.349   4.481   8.135  1.1235  0.1035 -0.2299
 1513TIP3   OH226173   2.442   6.009   0.542  0.4911  0.3908  0.0188
 1513TIP3    H126174   2.419   6.028   0.633 -0.3231  1.9626 -0.5088
 1513TIP3    H226175   2.367   6.040   0.491  1.9984  1.8092 -1.3863
 1514TIP3   OH226176   5.151   4.725   0.016 -0.3064 -0.4285  0.1349
 1514TIP3    H126177   5.079   4.689   0.067  0.7630 -0.9933  1.2662
 1514TIP3    H226178   5.198   4.649  -0.016 -0.3304 -0.0612 -0.7915
 1515TIP3   OH226179   2.723   2.723   7.595 -0.2532  0.3244 -0.1228
 1515TIP3    H126180   2.666   2.665   7.647 -0.3650  0.7583  0.2437
 1515TIP3    H226181   2.745   2.794   7.655 -0.0252  0.6050 -0.5381
 1516TIP3   OH226182   2.436   3.130   7.175 -0.3261  0.0105 -0.1836
 1516TIP3    H126183   2.423   3.172   7.260 -0.8288 -3.2908  1.4479
 1516TIP3    H226184   2.366   3.066   7.168  1.0811 -1.4097 -2.0443
 1517TIP3   OH226185   5.903   0.190   2.095 -0.2901 -0.1156 -0.6653
 1517TIP3    H126186   5.856   0.107   2.105 -3.5364  1.8077  0.9292
 1517TIP3    H226187   5.872   0.225   2.011  0.6930 -0.2404 -1.0924
 1518TIP3   OH226188   5.891   3.264   7.064  0.0048  0.0846  0.1880
 1518TIP3    H126189   5.826   3.199   7.039  0.8668 -0.8336  0.3167
 1518TIP3    H226190   5.907   3.314   6.983 -1.5381  0.9294  0.3862
 1519TIP3   OH226191   1.398   6.046   7.387 -0.1750 -0.3576  0.4270
 1519TIP3    H126192   1.316   6.005   7.412 -0.0087 -0.0412  1.5187
 1519TIP3    H226193   1.458   6.025   7.459  0.4310  0.2082  0.0937
 1520TIP3   OH226194   4.721   2.999   7.599  0.4568  0.3081 -0.4472
 1520TIP3    H126195   4.780   2.992   7.674  0.7069  0.6174 -0.6119
 1520TIP3    H226196   4.742   3.085   7.561  2.0198 -0.8484 -2.3008
 1521TIP3   OH226197   2.344   0.427   6.521  0.6846  0.1278 -0.2345
 1521TIP3    H126198   2.308   0.340   6.537  0.3210  0.0158 -1.6252
 1521TIP3    H226199   2.348   0.434   6.426 -0.2894  2.0256 -0.1660
 1522TIP3   OH226200   4.223   5.316   7.142 -0.9399 -0.0217 -0.9632
 1522TIP3    H126201   4.296   5.255   7.142 -1.5658 -0.7771 -0.9268
 1522TIP3    H226202   4.212   5.341   7.050  0.4458  1.4275 -0.7753
 1523TIP3   OH226203   5.014   0.909   2.143 -0.0295 -0.2242 -0.2378
 1523TIP3    H126204   4.977   0.997   2.135  1.0442  0.1076 -1.7742
 1523TIP3    H226205   5.003   0.886   2.235 -0.9465  1.2415  0.0270
 1524TIP3   OH226206   6.308   1.694   0.034  0.3540 -0.5823  0.4219
 1524TIP3    H126207   6.237   1.698   0.098  0.4360  1.0135  0.4449
 1524TIP3    H226208   6.314   1.602   0.010 -2.3773 -0.6197 -0.3049
 1525TIP3   OH226209   0.812   2.448   6.829  0.0520 -0.3280  0.4347
 1525TIP3    H126210   0.762   2.434   6.749  0.1894 -0.3319  0.3497
 1525TIP3    H226211   0.837   2.540   6.826  1.7069 -0.7831 -0.4775
 1526TIP3   OH226212   1.238   6.890   0.100  0.6620  0.2274 -0.5781
 1526TIP3    H126213   1.300   6.909   0.170 -1.1318 -0.3845  1.2253
 1526TIP3    H226214   1.172   6.959   0.109 -1.4647 -1.8882  0.6649
 1527TIP3   OH226215   4.386   1.480   0.079  0.0216  0.2629 -0.1120
 1527TIP3    H126216   4.412   1.416   0.146 -0.0492 -0.3110 -0.6320
 1527TIP3    H226217   4.422   1.445  -0.003  2.2531  2.2232 -0.0050
 1528TIP3   OH226218   5.633   3.737   6.617  0.0107 -0.3323  0.4790
 1528TIP3    H126219   5.587   3.792   6.553  0.1943  1.2686  1.7018
 1528TIP3    H226220   5.724   3.736   6.586  0.0726  0.3247  0.6323
 1529TIP3   OH226221   4.856   3.830   7.577  0.3361  0.5645 -0.0808
 1529TIP3    H126222   4.919   3.761   7.598  0.6041  1.4207  2.0964
 1529TIP3    H226223   4.805   3.841   7.657 -1.3309  1.1954 -1.2066
 1530TIP3   OH226224   4.758   3.354   0.510 -0.6945 -0.7652 -0.3813
 1530TIP3    H126225   4.705   3.434   0.504  0.0880 -0.3911 -2.8220
 1530TIP3    H226226   4.731   3.314   0.592 -0.9191  2.1581  1.0582
 1531TIP3   OH226227   2.242   4.718   6.005 -0.2657  0.8437 -0.0216
 1531TIP3    H126228   2.333   4.693   5.990 -0.1146  1.8521 -0.8133
 1531TIP3    H226229   2.242   4.757   6.093  0.3960  2.4267 -0.7163
 1532TIP3   OH226230   4.008   7.115   1.700 -0.1764 -0.1115  0.3083
 1532TIP3    H126231   3.952   7.191   1.715 -0.9252 -1.2830  3.8939
 1532TIP3    H226232   3.947   7.042   1.688  0.5593 -0.5333 -0.9704
 1533TIP3   OH226233   3.008   4.651   6.554 -0.1977 -0.2130 -0.9081
 1533TIP3    H126234   2.952   4.679   6.481  0.2626  0.5783 -0.9610
 1533TIP3    H226235   3.093   4.690   6.535 -0.1341  0.1811  0.1656
 1534TIP3   OH226236   6.284   1.227   8.007  0.2290 -0.3184  0.1817
 1534TIP3    H126237   6.221   1.156   8.003  0.1819 -0.2945  0.4882
 1534TIP3    H226238   6.354   1.200   7.947 -1.0727  0.6529 -1.8519
 1535TIP3   OH226239   4.452   3.053   7.659  0.8505 -0.4948 -0.6440
 1535TIP3    H126240   4.547   3.055   7.646  0.7989 -2.1630 -1.3759
 1535TIP3    H226241   4.430   2.960   7.666 -0.4806 -0.0561  1.5400
 1536TIP3   OH226242   2.704   1.159   1.060 -0.0444 -0.6816  0.2804
 1536TIP3    H126243   2.727   1.114   0.978 -0.6128 -0.7826  0.1762
 1536TIP3    H226244   2.755   1.113   1.127 -1.9660 -2.6803  0.4355
 1537TIP3   OH226245   6.832   5.501   7.918 -0.3045 -0.3729 -0.6800
 1537TIP3    H126246   6.744   5.498   7.956  0.6348  1.7520  1.8400
 1537TIP3    H226247   6.818   5.491   7.824 -3.5552  2.6777 -0.6261
 1538TIP3   OH226248   3.695   6.338   5.923  0.1551  0.5920 -0.3302
 1538TIP3    H126249   3.649   6.316   5.842 -0.7678  0.6094  0.1809
 1538TIP3    H226250   3.786   6.355   5.895  0.1467 -0.6946 -1.1605
 1539TIP3   OH226251   5.042   1.967   0.661  0.3605 -0.3562  0.8338
 1539TIP3    H126252   5.116   1.962   0.600  1.2530 -1.2974  1.9579
 1539TIP3    H226253   5.002   1.880   0.655 -0.8592  0.2526  0.0011
 1540TIP3   OH226254   3.696   3.765   7.061  0.0767 -0.1213 -0.3011
 1540TIP3    H126255   3.679   3.798   7.149 -1.6466 -0.3322 -0.5408
 1540TIP3    H226256   3.644   3.685   7.054  0.0835 -0.0280 -1.5682
 1541TIP3   OH226257   4.999   2.487   7.065 -0.3352 -0.0931 -0.6495
 1541TIP3    H126258   4.974   2.406   7.021 -0.0515 -0.3511 -0.3401
 1541TIP3    H226259   4.920   2.541   7.062  0.2039  0.6129 -3.0530
 1542TIP3   OH226260   4.360   3.105   1.905 -0.3615 -0.5248  0.0785
 1542TIP3    H126261   4.420   3.074   1.837  1.8341  2.1149  0.7185
 1542TIP3    H226262   4.301   3.164   1.860 -0.6998 -0.9540 -0.0419
 1543TIP3   OH226263   2.600   1.325   0.030 -0.1102 -0.2795  0.1544
 1543TIP3    H126264   2.541   1.396   0.008 -0.0310 -0.1590  0.3311
 1543TIP3    H226265   2.593   1.264  -0.044 -0.3045 -0.1708  0.0828
 1544TIP3   OH226266   1.085   2.992   1.300  0.1959  0.4527  0.4584
 1544TIP3    H126267   1.037   3.075   1.306 -0.9967 -0.2083  0.2347
 1544TIP3    H226268   1.057   2.954   1.217  2.6784  0.9989 -0.6786
 1545TIP3   OH226269   1.259   3.477   6.161 -0.2030  0.2548  0.6533
 1545TIP3    H126270   1.178   3.460   6.113  2.0070 -0.0233 -3.2309
 1545TIP3    H226271   1.285   3.564   6.133  0.5389  0.5979  2.3659
 1546TIP3   OH226272   3.590   2.300   8.096  0.1538 -0.0444 -0.1804
 1546TIP3    H126273   3.634   2.334   8.174 -1.1725 -0.3460  0.7190
 1546TIP3    H226274   3.644   2.330   8.023  0.7097  1.3381  0.7766
 1547TIP3   OH226275   6.989   3.536   7.370 -0.4081  0.3268 -0.0878
 1547TIP3    H126276   7.034   3.530   7.286 -0.1150  0.4154  0.0655
 1547TIP3    H226277   6.905   3.491   7.355 -0.1436 -0.1025 -0.2819
 1548TIP3   OH226278   1.527   2.596   6.827 -0.2762  0.3095  0.6089
 1548TIP3    H126279   1.498   2.539   6.899 -0.5103  1.2657  1.2924
 1548TIP3    H226280   1.605   2.640   6.862 -0.9142  1.4530  0.6243
 1549TIP3   OH226281   5.470   7.131   7.213  0.3962 -0.4023 -0.5160
 1549TIP3    H126282   5.531   7.187   7.261  0.9989 -0.5226 -1.1288
 1549TIP3    H226283   5.505   7.129   7.124 -1.4700  0.9387 -1.3095
 1550TIP3   OH226284   3.297   3.753   6.562 -0.3587 -0.2579  0.4768
 1550TIP3    H126285   3.249   3.759   6.645 -0.6559  2.4637  0.1460
 1550TIP3    H226286   3.229   3.751   6.495 -0.0755  1.1511  0.1334
 1551TIP3   OH226287   5.039   4.613   7.496 -0.3219  0.3128 -0.1738
 1551TIP3    H126288   5.094   4.649   7.427  1.2466 -0.4167  0.6789
 1551TIP3    H226289   4.994   4.689   7.534 -0.0495  0.8831 -0.9878
 1552TIP3   OH226290   6.479   3.065   6.043  0.2266  0.0350 -0.2951
 1552TIP3    H126291   6.403   3.051   5.987 -0.9588  1.2634  0.9770
 1552TIP3    H226292   6.527   2.982   6.040 -1.5335 -0.9821 -0.5623
 1553TIP3   OH226293   5.986   3.696   1.293 -0.2262 -0.8446  1.0476
 1553TIP3    H126294   6.031   3.737   1.219 -0.6606 -2.8268 -0.3915
 1553TIP3    H226295   6.007   3.751   1.368  2.3649 -0.1911 -0.0750
 1554TIP3   OH226296   5.577   7.096   6.958  0.8328  0.2918 -0.3944
 1554TIP3    H126297   5.556   7.165   6.895  0.4965  0.7964  0.2616
 1554TIP3    H226298   5.600   7.021   6.904 -0.4790  0.4016 -1.1293
 1555TIP3   OH226299   5.510   1.091   6.852  0.3624 -0.1847 -1.1227
 1555TIP3    H126300   5.552   1.107   6.937  0.0392  0.6774 -1.1217
 1555TIP3    H226301   5.480   1.000   6.858 -2.2981  0.7478  0.8571
 1556TIP3   OH226302   5.161   4.549   6.459  0.6378  0.3023 -0.1079
 1556TIP3    H126303   5.121   4.513   6.538 -1.2303  1.5126 -0.4617
 1556TIP3    H226304   5.194   4.635   6.486 -0.1996  0.8099 -0.6845
 1557TIP3   OH226305   4.640   2.317   0.070  0.9047 -0.1406 -0.0258
 1557TIP3    H126306   4.670   2.227   0.059 -2.4998 -1.9988  4.3290
 1557TIP3    H226307   4.676   2.344   0.155 -0.9516  1.3537  0.3140
 1558TIP3   OH226308   4.116   2.436   0.392  0.2025 -0.1661  0.5759
 1558TIP3    H126309   4.089   2.396   0.309 -0.5629 -1.7434  1.5482
 1558TIP3    H226310   4.173   2.370   0.432 -0.1933  0.1786  1.7101
 1559TIP3   OH226311   5.967   0.143   7.482 -0.0987  0.2162  0.4007
 1559TIP3    H126312   6.011   0.122   7.564  1.2439  0.6705 -0.1865
 1559TIP3    H226313   6.011   0.223   7.452 -1.2148  0.5779 -0.2914
 1560TIP3   OH226314   6.512   6.000   6.470 -0.4257  0.1344  0.4392
 1560TIP3    H126315   6.509   5.937   6.543 -0.8224 -0.8760 -0.4370
 1560TIP3    H226316   6.441   5.973   6.412 -1.0822  1.8566  0.4087
 1561TIP3   OH226317   2.624   3.778   7.152  0.5196  0.0360  0.0383
 1561TIP3    H126318   2.547   3.729   7.122  0.2771  1.1153 -1.1127
 1561TIP3    H226319   2.637   3.748   7.242 -1.0664 -0.3717  0.1516
 1562TIP3   OH226320   2.806   3.998   7.197  0.0957 -0.0546 -0.3799
 1562TIP3    H126321   2.772   4.059   7.131  0.5526 -0.5062 -1.0365
 1562TIP3    H226322   2.764   3.915   7.176  0.0254 -0.1309  0.0751
 1563TIP3   OH226323   4.625   3.629   0.188 -0.1518 -0.1043 -0.3848
 1563TIP3    H126324   4.705   3.576   0.181  0.4374  0.6873  0.2588
 1563TIP3    H226325   4.588   3.629   0.099  1.1452  0.4221 -0.9361
 1564TIP3   OH226326   4.016   3.651   6.908  0.2353  0.1421 -0.3373
 1564TIP3    H126327   4.105   3.615   6.909  0.6743  1.1386 -1.6478
 1564TIP3    H226328   3.974   3.615   6.986  1.4578 -1.1764 -0.2816
 1565TIP3   OH226329   7.070   6.410   0.707  0.3853 -0.0986  0.5492
 1565TIP3    H126330   7.156   6.400   0.747  0.8314 -0.1401 -0.4033
 1565TIP3    H226331   7.037   6.493   0.742  0.5577 -0.3693  1.3682
 1566TIP3   OH226332   6.819   2.815   1.768  0.3995  0.3808 -0.4118
 1566TIP3    H126333   6.734   2.771   1.769 -0.3365  1.7852  0.5866
 1566TIP3    H226334   6.837   2.835   1.860  0.9011  1.8099 -0.8077
 1567TIP3   OH226335   0.945   3.775   7.582  0.4280  0.1753  0.0360
 1567TIP3    H126336   1.034   3.805   7.566  0.4257 -0.4861 -1.3032
 1567TIP3    H226337   0.922   3.724   7.504 -2.4978  3.5891 -1.4944
 1568TIP3   OH226338   6.286   3.882   7.152  0.0060  0.0758 -0.6430
 1568TIP3    H126339   6.235   3.802   7.140 -1.2120  0.3581  2.2135
 1568TIP3    H226340   6.359   3.855   7.208  1.3924  0.3105 -2.3074
 1569TIP3   OH226341   2.388   5.248   1.448  0.4853 -0.3223 -0.1033
 1569TIP3    H126342   2.402   5.157   1.421 -1.2226 -0.8703  0.7713
 1569TIP3    H226343   2.421   5.252   1.538 -2.3056 -0.9402  1.0097
 1570TIP3   OH226344   2.785   4.309   5.901 -0.0282 -0.1838 -0.1506
 1570TIP3    H126345   2.868   4.352   5.882 -0.3530 -0.5095 -2.5001
 1570TIP3    H226346   2.723   4.382   5.915 -0.2090  0.1359 -2.4419
 1571TIP3   OH226347   5.491   4.397   6.774 -1.2197 -0.1475 -0.5578
 1571TIP3    H126348   5.414   4.448   6.799 -2.6139 -2.4484 -0.0169
 1571TIP3    H226349   5.484   4.387   6.680 -1.2421  0.1427 -0.5896
 1572TIP3   OH226350   4.191   3.961   6.190  0.4564  0.1811  0.5838
 1572TIP3    H126351   4.118   3.934   6.245  0.6045  0.1016  0.7444
 1572TIP3    H226352   4.269   3.944   6.244  0.6111 -0.0494  0.2941
 1573TIP3   OH226353   4.057   3.888   7.077  0.0479 -0.0233 -0.0743
 1573TIP3    H126354   4.106   3.841   7.009  0.7324 -0.7238  0.8978
 1573TIP3    H226355   3.987   3.933   7.029  1.1102  0.2812 -1.3680
 1574TIP3   OH226356   4.667   3.880   7.367  0.3560 -0.1138  0.6370
 1574TIP3    H126357   4.747   3.842   7.403  2.0730  2.3033 -0.4733
 1574TIP3    H226358   4.650   3.830   7.288  1.6945  0.3777  0.0235
 1575TIP3   OH226359   6.174   0.554   7.183  0.1926 -0.1821  0.1601
 1575TIP3    H126360   6.197   0.508   7.102  3.0165  1.0947  0.1645
 1575TIP3    H226361   6.246   0.616   7.196  0.2132 -0.9051  4.0761
 1576TIP3   OH226362   3.516   3.992   0.139 -0.3596  0.1825  0.5175
 1576TIP3    H126363   3.598   3.970   0.095 -1.1840 -1.6328 -0.1500
 1576TIP3    H226364   3.505   4.086   0.124  0.2302 -0.0817 -1.7558
 1577TIP3   OH226365   7.034   0.512   0.294  0.0123 -0.4000  0.3134
 1577TIP3    H126366   7.123   0.548   0.289 -0.7058  1.3478 -0.0759
 1577TIP3    H226367   7.045   0.420   0.269  1.2365  0.5877 -3.0722
 1578TIP3   OH226368   5.800   0.972   7.440 -0.2944  0.0208 -0.2068
 1578TIP3    H126369   5.819   0.887   7.480 -1.0248  0.1350  0.3950
 1578TIP3    H226370   5.718   1.000   7.481  0.5144  1.5268  0.4006
 1579TIP3   OH226371   1.139   6.035   6.258  0.1301 -0.4050  1.0459
 1579TIP3    H126372   1.144   5.972   6.185 -0.4797 -1.2755  1.7450
 1579TIP3    H226373   1.202   6.103   6.234 -1.1485  0.0924 -1.0286
 1580TIP3   OH226374   4.159   1.939   7.818  0.1544  0.1695 -0.0512
 1580TIP3    H126375   4.185   1.850   7.793  2.2236  0.8911 -0.6058
 1580TIP3    H226376   4.091   1.963   7.755 -1.1855 -1.4215  0.7870
 1581TIP3   OH226377   5.249   2.520   6.084 -0.0776  0.3283 -0.9931
 1581TIP3    H126378   5.326   2.523   6.141 -2.0840  1.2752  1.7831
 1581TIP3    H226379   5.284   2.503   5.997  3.2076  0.0917  0.3106
 1582TIP3   OH226380   6.127   0.931   5.950 -0.0076 -0.2119  0.1231
 1582TIP3    H126381   6.172   0.931   5.866 -1.1661 -1.5855 -0.5168
 1582TIP3    H226382   6.037   0.908   5.929 -0.4985  0.2839  1.6424
 1583TIP3   OH226383   4.724   6.215   6.914 -0.3227 -0.0232  0.2046
 1583TIP3    H126384   4.726   6.310   6.925  0.5706  0.2440 -1.9976
 1583TIP3    H226385   4.682   6.202   6.829 -0.8402 -1.6332  0.6946
 1584TIP3   OH226386   5.494   1.199   5.764 -0.0032  0.1802  0.2782
 1584TIP3    H126387   5.445   1.277   5.737  0.6240  0.0483 -1.3270
 1584TIP3    H226388   5.429   1.143   5.806 -1.0271  0.4560 -0.9087
 1585TIP3   OH226389   3.276   2.795   6.340  0.0386 -0.0196 -0.4096
 1585TIP3    H126390   3.181   2.791   6.352 -0.2023 -1.0921 -2.4014
 1585TIP3    H226391   3.309   2.713   6.378  0.0636 -0.0990 -0.6027
 1586TIP3   OH226392   5.371   3.062   6.118 -0.7190 -0.6747  0.0177
 1586TIP3    H126393   5.320   3.142   6.110 -1.3436 -1.0651 -0.0050
 1586TIP3    H226394   5.450   3.078   6.067 -1.0890 -0.2778 -0.4360
 1587TIP3   OH226395   4.433   0.049   6.165  0.0810  0.6428  0.0964
 1587TIP3    H126396   4.448  -0.034   6.119 -0.9540 -0.2749  1.3697
 1587TIP3    H226397   4.488   0.043   6.242  0.1744  1.2493  0.0758
 1588TIP3   OH226398   1.424   3.571   7.206  0.8326 -0.6943  0.0357
 1588TIP3    H126399   1.377   3.654   7.199  0.8646 -0.7447 -0.8632
 1588TIP3    H226400   1.362   3.505   7.172  1.2095 -0.8845 -0.2860
 1589TIP3   OH226401   0.398   1.180   7.635 -0.5537 -0.1694 -0.2932
 1589TIP3    H126402   0.436   1.262   7.666 -1.0952 -0.0220 -0.0187
 1589TIP3    H226403   0.471   1.118   7.635 -0.3788  0.0358  0.5074
 1590TIP3   OH226404   3.744   4.751   1.947 -0.7113  0.7366  0.0607
 1590TIP3    H126405   3.823   4.730   1.998 -0.7389  0.9820  0.2059
 1590TIP3    H226406   3.729   4.844   1.964 -2.1976  0.2315  1.6679
 1591TIP3   OH226407   5.302   4.588   6.838  0.0472 -0.0660 -0.6272
 1591TIP3    H126408   5.231   4.578   6.774 -1.4399  1.3674  0.7775
 1591TIP3    H226409   5.262   4.630   6.913  1.6377 -2.2211  1.5293
 1592TIP3   OH226410   5.421   4.314   5.717  0.3609 -0.0795  0.1540
 1592TIP3    H126411   5.387   4.377   5.781 -1.7168 -1.3544  0.3412
 1592TIP3    H226412   5.444   4.367   5.641  0.4444  1.1304  1.0043
 1593TIP3   OH226413   6.378   1.724   0.657 -0.3656  0.2667 -0.2872
 1593TIP3    H126414   6.433   1.652   0.625  0.9459  1.2025 -0.1975
 1593TIP3    H226415   6.398   1.730   0.751 -0.8391  0.4221 -0.1951
 1594TIP3   OH226416   1.393   4.640   6.404  0.6049  0.2666 -0.3162
 1594TIP3    H126417   1.449   4.713   6.430  0.6899  0.4402 -0.9767
 1594TIP3    H226418   1.392   4.582   6.481  2.1138  0.0063 -0.4776
 1595TIP3   OH226419   4.625   3.627   6.608 -0.2423  0.1370  0.4722
 1595TIP3    H126420   4.714   3.663   6.610 -0.6470  1.1934 -0.1040
 1595TIP3    H226421   4.598   3.625   6.700 -0.3431  1.6429  0.4813
 1596TIP3   OH226422   6.628   3.464   6.938  0.0367 -0.1337  0.1705
 1596TIP3    H126423   6.661   3.471   6.848  3.4226  1.8147  1.4723
 1596TIP3    H226424   6.605   3.372   6.947  1.2947 -0.7451 -2.1688
 1597TIP3   OH226425   0.173   6.356   2.159  0.6226  0.0905  0.7938
 1597TIP3    H126426   0.109   6.290   2.133  1.4956 -0.7116  0.6547
 1597TIP3    H226427   0.134   6.399   2.235 -1.9408  2.4446 -1.7158
 1598TIP3   OH226428   0.995   1.449   7.923 -0.3999  0.9570 -0.0549
 1598TIP3    H126429   0.960   1.521   7.870 -0.9808  0.2545 -0.6334
 1598TIP3    H226430   1.043   1.492   7.993  0.7715  1.9123 -1.4091
 1599TIP3   OH226431   4.905   1.545   7.043  0.3288  0.2108 -0.2607
 1599TIP3    H126432   4.970   1.599   7.089 -0.3119  0.9613 -0.2424
 1599TIP3    H226433   4.919   1.564   6.951  0.9098 -0.5088 -0.3296
 1600TIP3   OH226434   2.219   4.314   0.011 -0.3545 -0.2472 -0.2451
 1600TIP3    H126435   2.152   4.276  -0.046 -0.0312  1.1745 -1.5999
 1600TIP3    H226436   2.262   4.380  -0.043  1.3733 -0.3303  0.9761
 1601TIP3   OH226437   7.110   2.805   1.146  0.0293 -0.2023  0.2368
 1601TIP3    H126438   7.178   2.826   1.211  0.0776 -0.7096  0.3542
 1601TIP3    H226439   7.087   2.714   1.165 -1.7155  0.4011  1.1468
 1602TIP3   OH226440   1.203   5.375   7.848  0.1390 -0.0789 -0.2152
 1602TIP3    H126441   1.113   5.402   7.865  0.3672  1.2891 -1.1145
 1602TIP3    H226442   1.198   5.323   7.768  0.0679 -0.4567  0.0368
 1603TIP3   OH226443   6.669   3.459   6.669  0.2659 -0.0252 -0.4380
 1603TIP3    H126444   6.679   3.366   6.686  0.8571  0.0497 -0.3638
 1603TIP3    H226445   6.697   3.471   6.579 -1.3784 -0.1741 -0.9794
 1604TIP3   OH226446   5.008   1.902   7.002  0.3749  0.4587  0.3730
 1604TIP3    H126447   4.981   1.953   7.079 -0.7162  0.0739  0.2608
 1604TIP3    H226448   5.086   1.855   7.030  1.6988  2.6014  0.3084
 1605TIP3   OH226449   3.009   0.729   7.143  0.4974  0.7685 -0.2857
 1605TIP3    H126450   3.035   0.678   7.220  0.4855 -0.9669 -1.3997
 1605TIP3    H226451   2.925   0.767   7.167  0.0570 -0.5049  0.2423
 1606TIP3   OH226452   6.033   1.945   6.909 -0.2441 -0.3475 -0.0536
 1606TIP3    H126453   6.104   2.009   6.913 -0.1618 -0.4821  1.0366
 1606TIP3    H226454   5.967   1.984   6.852 -0.2994  0.8211  0.8092
 1607TIP3   OH226455   5.366   3.109   0.228 -0.2352 -0.2766  0.1064
 1607TIP3    H126456   5.370   3.091   0.134 -0.3647 -0.6856  0.1791
 1607TIP3    H226457   5.279   3.146   0.242 -0.4145 -0.7152  0.1525
 1608TIP3   OH226458   5.002   2.812   7.148  0.6836  0.2135 -0.1776
 1608TIP3    H126459   5.058   2.734   7.145  2.1810  1.2228  0.7851
 1608TIP3    H226460   4.913   2.778   7.146  1.3106 -1.6212  1.8368
 1609TIP3   OH226461   6.045   1.039   0.066  0.4307  0.7173  0.4740
 1609TIP3    H126462   6.008   0.961   0.107  0.2852  1.3852  1.6556
 1609TIP3    H226463   6.043   1.021  -0.028 -2.3305  0.4857  0.5433
 1610TIP3   OH226464   4.563   3.791   1.372 -0.3635  0.3165 -0.0590
 1610TIP3    H126465   4.568   3.718   1.309  0.9549  1.2622 -1.0874
 1610TIP3    H226466   4.588   3.752   1.456 -0.2694 -0.5499 -0.4818
 1611TIP3   OH226467   0.217   1.894   0.366 -0.0662  0.1252 -0.3267
 1611TIP3    H126468   0.141   1.951   0.380 -0.8847 -0.6316 -1.5615
 1611TIP3    H226469   0.179   1.811   0.337  1.2058 -0.4945 -0.2510
 1612TIP3   OH226470   2.734   2.912   7.802 -0.6150 -0.2989  0.2126
 1612TIP3    H126471   2.779   2.968   7.865 -2.0469  2.1383 -0.8664
 1612TIP3    H226472   2.686   2.849   7.855 -0.0997  0.3774  1.5008
 1613TIP3   OH226473   4.618   0.304   6.089 -0.1007  0.0028 -0.1689
 1613TIP3    H126474   4.620   0.245   6.014 -1.9969  1.2306 -1.2422
 1613TIP3    H226475   4.656   0.386   6.056  1.6769 -0.3013  1.0455
 1614TIP3   OH226476   4.827   5.550   6.636 -0.5544 -0.1341  0.4143
 1614TIP3    H126477   4.831   5.606   6.713 -0.7245  1.1262 -0.4758
 1614TIP3    H226478   4.896   5.485   6.649  0.1954  0.7923  1.0788
 1615TIP3   OH226479   6.123   0.106   8.014 -1.1325  0.1837 -0.7020
 1615TIP3    H126480   6.166   0.021   8.003  0.2563  0.8577 -0.5669
 1615TIP3    H226481   6.166   0.145   8.090 -1.3438  1.2598 -1.1262
 1616TIP3   OH226482   4.724   1.458   7.338 -0.1019  0.2923 -0.2878
 1616TIP3    H126483   4.763   1.540   7.308  0.1585  0.3192  0.1194
 1616TIP3    H226484   4.752   1.393   7.274 -1.5044  0.7871 -1.4315
 1617TIP3   OH226485   4.602   0.305   1.532  0.8636  0.0841 -0.3552
 1617TIP3    H126486   4.557   0.227   1.499  1.3297 -0.6297  0.6828
 1617TIP3    H226487   4.688   0.272   1.562  0.2057  0.5764  2.1820
 1618TIP3   OH226488   6.602   4.505   7.281  0.4990  0.2074 -0.4685
 1618TIP3    H126489   6.572   4.447   7.212  1.7950 -0.2705 -0.6445
 1618TIP3    H226490   6.684   4.541   7.248 -0.1864  2.0119 -0.2873
 1619TIP3   OH226491   5.810   5.653   7.938  0.4900 -0.0071 -0.1460
 1619TIP3    H126492   5.780   5.714   8.005  0.6443 -1.0690  0.9013
 1619TIP3    H226493   5.788   5.567   7.972 -0.6395 -0.4990 -2.0815
 1620TIP3   OH226494   4.467   1.381   7.096  0.1195  0.0468  0.2650
 1620TIP3    H126495   4.558   1.354   7.106 -0.1493 -1.0258 -0.1079
 1620TIP3    H226496   4.418   1.320   7.150 -0.3335  1.0083  0.9564
 1621TIP3   OH226497   6.996   2.499   0.253 -0.2211  0.0401 -0.0469
 1621TIP3    H126498   6.948   2.474   0.175  0.0623  0.1782 -0.2708
 1621TIP3    H226499   6.947   2.573   0.289 -0.1947  0.1619 -0.2578
 1622TIP3   OH226500   5.552   4.457   0.904  0.3206 -0.4305 -0.4763
 1622TIP3    H126501   5.592   4.450   0.991  3.3202  1.6778 -1.5792
 1622TIP3    H226502   5.520   4.547   0.899 -2.6358 -1.4248 -0.4851
 1623TIP3   OH226503   4.401   1.736   6.160  0.0270  0.5850 -0.0851
 1623TIP3    H126504   4.491   1.706   6.152  0.3210  1.1882  0.9067
 1623TIP3    H226505   4.401   1.824   6.123 -0.1517  0.5995 -0.0528
 1624TIP3   OH226506   4.899   5.435   0.912 -0.1246  0.2276  0.1842
 1624TIP3    H126507   4.887   5.340   0.903  1.1364  0.0879 -0.0628
 1624TIP3    H226508   4.896   5.468   0.823  0.7030  0.2528  0.1564
 1625TIP3   OH226509   6.023   0.494   1.709  0.1156 -0.2223  0.2061
 1625TIP3    H126510   6.058   0.445   1.634  0.9350  0.7801 -0.0663
 1625TIP3    H226511   6.090   0.485   1.777  0.0445  0.1172  0.3213
 1626TIP3   OH226512   7.141   2.308   5.925  0.0774 -0.3299  0.6141
 1626TIP3    H126513   7.088   2.233   5.897  1.4559 -0.3614 -2.0394
 1626TIP3    H226514   7.230   2.287   5.898  0.3685  2.5993 -0.9505
 1627TIP3   OH226515   2.590   5.717   0.053 -0.5047  0.2719  0.1157
 1627TIP3    H126516   2.591   5.622   0.042 -0.5531  0.2497  0.2943
 1627TIP3    H226517   2.528   5.732   0.125 -0.0892  0.3966  0.4494
 1628TIP3   OH226518   3.343   4.797   6.158 -0.2118  0.2412 -0.6922
 1628TIP3    H126519   3.290   4.774   6.081 -0.7230  0.0907 -0.2982
 1628TIP3    H226520   3.288   4.856   6.208  0.2677  0.6283 -0.6239
 1629TIP3   OH226521   1.072   6.390   1.786 -0.1218  0.1782  0.5713
 1629TIP3    H126522   0.982   6.396   1.817  0.3465  0.0892  1.9602
 1629TIP3    H226523   1.115   6.468   1.820  0.7235 -0.5656  1.2372
 1630TIP3   OH226524   0.679   6.643   6.682 -0.5273  0.4117 -0.5572
 1630TIP3    H126525   0.676   6.602   6.595 -2.1124 -0.8415  0.0603
 1630TIP3    H226526   0.770   6.631   6.710 -0.0666  0.5716 -1.9193
 1631TIP3   OH226527   0.024   4.508   0.792 -0.0872 -0.0771  0.6082
 1631TIP3    H126528   0.064   4.591   0.764  0.6388 -1.1496 -1.5777
 1631TIP3    H226529  -0.061   4.506   0.749 -0.3747 -0.1909  1.1710
 1632TIP3   OH226530   5.063   4.957   0.361  0.3294  0.5504  0.0033
 1632TIP3    H126531   5.005   4.957   0.438  1.5124 -0.4810  0.9301
 1632TIP3    H226532   5.118   4.880   0.374  2.6737  2.1431 -0.2674
 1633TIP3   OH226533   3.521   3.147   7.045 -0.1872  0.7398 -0.0155
 1633TIP3    H126534   3.588   3.139   7.113 -1.5602 -0.3521  1.2290
 1633TIP3    H226535   3.472   3.225   7.068 -1.5223 -0.3879  1.0612
 1634TIP3   OH226536   0.691   2.612   7.641  0.4876  0.1171 -0.7245
 1634TIP3    H126537   0.731   2.532   7.606  1.5598 -0.0122  0.7435
 1634TIP3    H226538   0.660   2.587   7.728  0.2455  1.1262 -0.5134
 1635TIP3   OH226539   6.553   6.481   0.368  0.3893 -0.2751 -0.7969
 1635TIP3    H126540   6.490   6.455   0.301  2.7637  0.0767 -3.2799
 1635TIP3    H226541   6.613   6.406   0.375  1.8133  0.7886 -1.1820
 1636TIP3   OH226542   5.239   2.723   7.633 -0.5662  0.1289  0.0266
 1636TIP3    H126543   5.330   2.730   7.662 -1.0760  2.9686  1.1337
 1636TIP3    H226544   5.244   2.693   7.543  1.4647 -0.0316  0.1759
 1637TIP3   OH226545   6.481   4.439   6.381  0.6093  0.4753 -0.2404
 1637TIP3    H126546   6.530   4.406   6.456  0.8322  0.9948 -0.1578
 1637TIP3    H226547   6.539   4.422   6.306  0.0425 -0.7970 -0.4120
 1638TIP3   OH226548   5.630   4.181   7.753  0.2022  0.4264 -0.1419
 1638TIP3    H126549   5.680   4.262   7.764 -0.9954  1.2624 -0.7370
 1638TIP3    H226550   5.661   4.144   7.670  3.1182 -1.4692  1.7091
 1639TIP3   OH226551   2.458   2.359   0.645 -0.3116  0.3219 -0.3152
 1639TIP3    H126552   2.386   2.348   0.583 -0.4354  1.2973 -0.3574
 1639TIP3    H226553   2.514   2.426   0.605  1.1776 -1.1582 -0.7837
 1640TIP3   OH226554   3.824   5.438   1.987  0.0080 -0.4154 -0.0467
 1640TIP3    H126555   3.825   5.439   2.082 -1.1408 -2.5909  0.0265
 1640TIP3    H226556   3.773   5.515   1.962  0.9555  0.5813  1.0665
 1641TIP3   OH226557   4.750   6.902   7.525 -0.0303  0.1193 -0.3126
 1641TIP3    H126558   4.720   6.813   7.507 -0.8674  0.1527  0.8476
 1641TIP3    H226559   4.743   6.947   7.441  0.4409 -0.9171 -0.9126
 1642TIP3   OH226560   6.568   3.130   1.011  0.0106 -0.1272  0.1256
 1642TIP3    H126561   6.653   3.132   1.055  0.4883  1.0841 -0.8133
 1642TIP3    H226562   6.509   3.089   1.074  1.3304 -1.1603  0.7202
 1643TIP3   OH226563   5.385   1.636   7.844  0.0962  0.5045  0.2505
 1643TIP3    H126564   5.349   1.689   7.773 -2.6808 -1.4352  0.0843
 1643TIP3    H226565   5.460   1.591   7.805 -0.2873  0.8702 -0.9286
 1644TIP3   OH226566   3.422   0.453   6.549 -0.3553  0.1474  0.1482
 1644TIP3    H126567   3.392   0.475   6.461 -0.0388  1.3211  0.3323
 1644TIP3    H226568   3.354   0.487   6.607 -0.2672 -0.0882  0.3899
 1645TIP3   OH226569   5.717   2.336   0.777  0.2878 -0.0393 -0.0427
 1645TIP3    H126570   5.756   2.375   0.699 -0.5516 -1.6985 -1.3110
 1645TIP3    H226571   5.624   2.357   0.770  0.5883  2.3426  2.0541
 1646TIP3   OH226572   6.211   1.773   7.326  0.0066  0.3756 -0.0146
 1646TIP3    H126573   6.222   1.772   7.421 -0.5668 -0.3734  0.0531
 1646TIP3    H226574   6.117   1.756   7.313  0.5046 -1.9541 -0.7644
 1647TIP3   OH226575   0.777   1.177   2.387 -0.3957  0.2987 -0.4624
 1647TIP3    H126576   0.831   1.159   2.310 -2.3382 -0.5344 -1.6800
 1647TIP3    H226577   0.741   1.091   2.411 -1.9372  0.9857 -0.2852
 1648TIP3   OH226578   0.731   0.652   5.879  0.6270 -0.0324 -0.2984
 1648TIP3    H126579   0.732   0.645   5.784  0.8277 -1.7005 -0.1891
 1648TIP3    H226580   0.664   0.589   5.907  1.3468 -0.3645  0.7158
 1649TIP3   OH226581   6.030   2.287   0.426  0.0315  0.0550 -0.7486
 1649TIP3    H126582   5.949   2.338   0.434 -0.4341 -0.9454  1.1190
 1649TIP3    H226583   6.002   2.201   0.397  0.1310 -1.0230  2.1752
 1650TIP3   OH226584   6.729   5.909   7.849  0.4139  0.5725 -0.2691
 1650TIP3    H126585   6.793   5.906   7.779  1.4021  1.2193  0.5850
 1650TIP3    H226586   6.781   5.921   7.929 -0.5743 -1.6844  0.7643
 1651TIP3   OH226587   7.041   0.755   0.641  0.2848 -0.1105  0.5175
 1651TIP3    H126588   6.994   0.814   0.700  0.2215  1.7877 -1.3532
 1651TIP3    H226589   6.972   0.700   0.603 -0.3605  1.8034 -1.2419
 1652TIP3   OH226590   5.933   1.123   6.795 -0.6144 -0.1109 -0.0449
 1652TIP3    H126591   5.847   1.109   6.755 -0.1243  2.4964 -2.2021
 1652TIP3    H226592   5.934   1.216   6.816  0.0149 -1.0071  4.1726
 1653TIP3   OH226593   0.383   4.697   6.491 -0.9170 -0.0823 -0.2037
 1653TIP3    H126594   0.419   4.786   6.488 -0.0763 -0.4243 -0.3672
 1653TIP3    H226595   0.391   4.671   6.582 -1.2287  0.0320 -0.1418
 1654TIP3   OH226596   0.657   1.893   6.483 -0.3480  0.4663  0.3451
 1654TIP3    H126597   0.697   1.808   6.461 -0.9626  0.3372 -0.2891
 1654TIP3    H226598   0.721   1.957   6.451  1.5143  0.2576  3.4370
 1655TIP3   OH226599   5.136   0.058   6.026  0.0448 -0.4811 -0.2615
 1655TIP3    H126600   5.059   0.084   6.076  1.5376 -0.2644  2.0017
 1655TIP3    H226601   5.104  -0.007   5.964 -2.1544  0.4650 -0.1661
 1656TIP3   OH226602   2.158   0.644   7.856  0.2285  0.0292 -0.5235
 1656TIP3    H126603   2.126   0.572   7.801 -1.9926 -0.8190  1.8004
 1656TIP3    H226604   2.244   0.616   7.885  0.3329 -0.6557 -1.4797
 1657TIP3   OH226605   3.506   3.103   7.737  0.2179 -0.0992 -0.6510
 1657TIP3    H126606   3.558   3.179   7.712  2.2185 -1.4156 -0.6287
 1657TIP3    H226607   3.416   3.130   7.723  0.7884  2.8506  1.0067
 1658TIP3   OH226608   1.346   4.666   0.876 -0.0142 -0.3914  0.2588
 1658TIP3    H126609   1.409   4.629   0.937 -0.1413  0.2346  0.7804
 1658TIP3    H226610   1.330   4.597   0.812  2.1780 -0.0852 -0.6270
 1659TIP3   OH226611   2.577   4.027   1.085  0.2289 -0.4149  0.2678
 1659TIP3    H126612   2.660   4.067   1.108 -0.3179 -0.1487  1.8298
 1659TIP3    H226613   2.544   4.079   1.012  1.5422 -0.6694 -0.5106
 1660TIP3   OH226614   5.726   6.746   0.221 -0.4510 -0.6570  0.1142
 1660TIP3    H126615   5.761   6.712   0.303 -0.0373  1.2756  0.7687
 1660TIP3    H226616   5.729   6.842   0.231  2.4922 -0.2806 -3.3481
 1661TIP3   OH226617   6.392   5.141   6.920 -0.2718  0.1798  0.3074
 1661TIP3    H126618   6.419   5.116   6.832  1.1226  3.5603 -0.3197
 1661TIP3    H226619   6.303   5.174   6.910 -1.0883 -1.8903  0.6496
 1662TIP3   OH226620   1.376   5.822   7.054  0.7478 -0.0078 -0.2122
 1662TIP3    H126621   1.407   5.732   7.045  0.9264  0.1994 -1.8242
 1662TIP3    H226622   1.372   5.855   6.965 -0.2869  1.2679  0.2918
 1663TIP3   OH226623   2.945   4.760   2.033  0.0583 -0.2608  0.3752
 1663TIP3    H126624   2.982   4.681   1.992 -0.0447  1.1590 -2.5604
 1663TIP3    H226625   2.973   4.754   2.125  1.7372 -2.7022 -0.2386
 1664TIP3   OH226626   6.034   2.592   6.483  0.2022  0.5675 -0.8290
 1664TIP3    H126627   5.943   2.568   6.468 -0.0175  0.7532  0.1792
 1664TIP3    H226628   6.030   2.666   6.544  1.0630 -0.3113  0.3179
 1665TIP3   OH226629   5.913   0.127   0.072 -0.8858  0.2300 -0.3775
 1665TIP3    H126630   5.956   0.084   0.146 -2.5392 -0.3674  0.2684
 1665TIP3    H226631   5.963   0.099  -0.005  0.0556 -0.1842  0.3756
 1666TIP3   OH226632   0.138   2.227   6.843  0.1016 -0.6616  0.2098
 1666TIP3    H126633   0.154   2.134   6.825 -0.4961 -0.4596 -1.3561
 1666TIP3    H226634   0.050   2.228   6.881  0.2668 -0.7731  0.6024
 1667TIP3   OH226635   5.308   3.808   6.237  0.3810  0.0033 -0.8489
 1667TIP3    H126636   5.287   3.728   6.188  0.2243  0.1797 -1.0747
 1667TIP3    H226637   5.254   3.802   6.316  3.0539 -1.8485  0.8915
 1668TIP3   OH226638   1.847   1.011   6.971  0.2103 -0.4060 -0.5742
 1668TIP3    H126639   1.762   0.985   7.007  0.1736 -0.6726 -0.8472
 1668TIP3    H226640   1.825   1.058   6.891  0.2841  0.3408 -0.1559
 1669TIP3   OH226641   4.102   4.326   1.325 -0.5022  0.0551 -0.6572
 1669TIP3    H126642   4.095   4.303   1.418  0.6198  0.4175 -0.4729
 1669TIP3    H226643   4.043   4.265   1.280 -0.9619 -0.1935  0.2818
 1670TIP3   OH226644   5.649   5.430   6.996  0.3597  0.1885  0.4940
 1670TIP3    H126645   5.669   5.342   6.964  0.6976  0.3066  0.3764
 1670TIP3    H226646   5.711   5.486   6.950 -0.6093  0.6310 -0.2974
 1671TIP3   OH226647   0.494   1.565   6.959 -0.4754 -0.5289 -0.1137
 1671TIP3    H126648   0.416   1.612   6.988 -0.0760  0.0836 -0.0173
 1671TIP3    H226649   0.538   1.539   7.040  0.8247  1.4901 -0.1321
 1672TIP3   OH226650   2.893   3.584   7.129  0.4286 -0.5697  0.1835
 1672TIP3    H126651   2.929   3.672   7.139 -1.0164 -0.0707  1.1163
 1672TIP3    H226652   2.886   3.551   7.218  0.4265 -1.4147 -0.1264
 1673TIP3   OH226653   1.098   2.403   7.280 -0.3909 -0.0063  0.3975
 1673TIP3    H126654   1.071   2.487   7.243 -0.2300 -0.0726  0.1251
 1673TIP3    H226655   1.065   2.338   7.218 -1.0677 -0.1787  0.9429
 1674TIP3   OH226656   6.536   5.295   1.365  0.0879 -0.0457  0.3002
 1674TIP3    H126657   6.525   5.230   1.433 -0.2595  1.0777  1.3400
 1674TIP3    H226658   6.537   5.379   1.412 -1.7059  0.8627 -1.2112
 1675TIP3   OH226659   0.194   1.231   6.990 -0.1886 -0.3368 -0.5859
 1675TIP3    H126660   0.271   1.187   6.955 -0.0669  0.9912 -2.0410
 1675TIP3    H226661   0.158   1.280   6.916 -2.1881 -0.5928  0.1892
 1676TIP3   OH226662   5.303   1.676   0.253  0.1383 -0.5346 -0.5518
 1676TIP3    H126663   5.276   1.587   0.278 -0.3117 -0.1848  0.2316
 1676TIP3    H226664   5.327   1.668   0.160 -0.5198 -1.3422 -0.6688
 1677TIP3   OH226665   1.090   4.172   7.844 -0.0041  0.1993 -0.7105
 1677TIP3    H126666   1.013   4.150   7.791 -0.4931 -1.4379  0.6180
 1677TIP3    H226667   1.150   4.099   7.831  0.2131  0.1905  0.3064
 1678TIP3   OH226668   3.165   3.095   2.048 -0.0456 -0.0302 -0.3015
 1678TIP3    H126669   3.243   3.137   2.010 -0.3445  1.1263  0.3592
 1678TIP3    H226670   3.176   3.002   2.027  1.0327  0.2552 -1.0599
 1679TIP3   OH226671   5.572   1.074   1.116 -0.1814  0.2417 -0.2688
 1679TIP3    H126672   5.662   1.042   1.126  0.1712  1.5100  0.7647
 1679TIP3    H226673   5.523   0.998   1.085  1.2959 -0.3982 -1.0659
 1680TIP3   OH226674   6.435   4.226   6.580 -0.0931  0.3982 -0.0156
 1680TIP3    H126675   6.500   4.177   6.530 -0.5896  0.3328 -0.6093
 1680TIP3    H226676   6.485   4.270   6.649  0.7210  1.1231 -1.0526
 1681TIP3   OH226677   4.927   2.289   6.628 -0.2702  0.3296  0.1035
 1681TIP3    H126678   4.971   2.240   6.698 -0.9006  0.2184  0.4257
 1681TIP3    H226679   4.869   2.349   6.675 -0.6327  0.3121 -0.3292
 1682TIP3   OH226680   6.915   3.886   1.197  0.6480  0.2558  0.3269
 1682TIP3    H126681   6.953   3.813   1.147 -0.1675 -0.2071  0.3750
 1682TIP3    H226682   6.920   3.857   1.288 -1.2305 -0.4724  0.2130
 1683TIP3   OH226683   6.051   2.747   6.854 -0.2974 -0.2802 -0.2033
 1683TIP3    H126684   5.965   2.707   6.866 -0.6387  0.2665 -0.7651
 1683TIP3    H226685   6.032   2.838   6.832  0.5080  0.6151  2.6445
 1684TIP3   OH226686   5.541   1.923   6.767 -0.2504  0.1078  0.1536
 1684TIP3    H126687   5.544   1.894   6.858 -0.8852 -0.1290  0.1014
 1684TIP3    H226688   5.533   1.843   6.716  2.6661  0.0522 -0.2756
 1685TIP3   OH226689   1.309   0.511   6.782 -0.1777 -0.1944 -0.3042
 1685TIP3    H126690   1.317   0.570   6.707 -1.1238  1.0783  0.5581
 1685TIP3    H226691   1.214   0.501   6.794 -0.0480  0.0536  1.0387
 1686TIP3   OH226692   1.595   5.121   6.300  0.6065 -0.8375 -0.6868
 1686TIP3    H126693   1.529   5.185   6.329 -0.1050 -1.5550 -0.6967
 1686TIP3    H226694   1.675   5.172   6.291 -0.0704  0.1735 -1.1895
 1687TIP3   OH226695   6.618   2.130   5.883 -0.0817 -0.1369 -0.3385
 1687TIP3    H126696   6.592   2.146   5.792  1.5866 -0.5821 -0.8981
 1687TIP3    H226697   6.606   2.036   5.895  2.4331 -0.5652 -0.9914
 1688TIP3   OH226698   5.418   7.055   7.708  0.3319 -0.5763 -0.1971
 1688TIP3    H126699   5.434   6.982   7.649 -1.7561 -1.1007 -0.1804
 1688TIP3    H226700   5.399   7.129   7.651  0.3081 -0.5909 -0.2088
 1689TIP3   OH226701   5.314   2.312   6.461 -0.0416 -0.0263 -0.5269
 1689TIP3    H126702   5.296   2.278   6.373  0.8295 -1.4332 -0.1789
 1689TIP3    H226703   5.338   2.234   6.512  2.8485  1.1865  0.0844
 1690TIP3   OH226704   3.770   4.650   6.220  0.4656  0.7657  0.2583
 1690TIP3    H126705   3.823   4.629   6.143  1.1475  0.5793  0.7781
 1690TIP3    H226706   3.778   4.573   6.276 -0.8037  0.5004  0.0987
 1691TIP3   OH226707   5.550   1.184   6.098  0.0238 -1.0256 -0.6052
 1691TIP3    H126708   5.508   1.190   6.012 -0.0586 -0.2729 -0.5115
 1691TIP3    H226709   5.481   1.153   6.156 -0.5688  0.7220 -0.3433
 1692TIP3   OH226710   5.197   3.601   6.113  0.2571 -0.0216 -0.1568
 1692TIP3    H126711   5.265   3.544   6.076 -0.3873 -1.9871  1.6376
 1692TIP3    H226712   5.130   3.606   6.045  0.4002 -1.2682 -0.3934
 1693TIP3   OH226713   6.166   1.322   0.620 -0.2359 -0.0222 -0.3401
 1693TIP3    H126714   6.149   1.406   0.577 -0.0844  0.9708  1.4683
 1693TIP3    H226715   6.100   1.262   0.585 -1.9378  1.5019  0.1755
 1694TIP3   OH226716   6.981   5.388   6.728  0.0687 -0.4394 -0.0768
 1694TIP3    H126717   6.926   5.390   6.650  0.4231 -0.0527 -0.3149
 1694TIP3    H226718   7.006   5.479   6.742 -1.6376 -0.1989  1.6591
 1695TIP3   OH226719   6.874   2.725   0.363  0.4875 -0.5603  0.0591
 1695TIP3    H126720   6.806   2.741   0.430 -1.1608 -0.6326 -1.5648
 1695TIP3    H226721   6.948   2.777   0.392 -1.0104  1.2557  0.7312
 1696TIP3   OH226722   7.057   0.277   0.509 -0.3375  0.0831 -0.6331
 1696TIP3    H126723   7.148   0.248   0.502 -0.1835  0.6209 -0.8605
 1696TIP3    H226724   7.051   0.319   0.594 -0.2084  0.6245 -0.8891
 1697TIP3   OH226725   5.625   4.543   5.931  0.3549 -0.0869 -0.4066
 1697TIP3    H126726   5.546   4.518   5.882  0.3179 -1.0505  0.1389
 1697TIP3    H226727   5.685   4.577   5.864 -0.1526 -0.2739 -0.9586
 1698TIP3   OH226728   4.495   3.546   0.791 -0.2671  0.2770  0.0283
 1698TIP3    H126729   4.560   3.599   0.837 -0.2343  1.2936 -1.1616
 1698TIP3    H226730   4.528   3.457   0.797  0.8438  0.6869  0.0914
 1699TIP3   OH226731   6.292   2.883   6.356 -0.3523 -0.3782 -0.0276
 1699TIP3    H126732   6.336   2.819   6.300  1.3526 -0.7056  1.6352
 1699TIP3    H226733   6.306   2.851   6.445  1.7324  2.9594  0.9650
 1700TIP3   OH226734   5.703   3.166   6.595  0.3642 -0.1139 -0.0867
 1700TIP3    H126735   5.643   3.236   6.573  1.8975  1.5468  0.8807
 1700TIP3    H226736   5.670   3.131   6.678 -0.1635 -0.2737 -0.3616
 1701TIP3   OH226737   1.163   3.798   1.940 -0.2987 -0.5672 -0.9192
 1701TIP3    H126738   1.104   3.821   1.868 -0.7559 -0.2496 -0.4459
 1701TIP3    H226739   1.229   3.742   1.900 -1.8728 -2.3306 -1.1208
 1702TIP3   OH226740   5.579   6.107   6.484 -0.1173  0.0521 -0.8678
 1702TIP3    H126741   5.503   6.075   6.534 -0.6495  2.0524 -0.3346
 1702TIP3    H226742   5.541   6.141   6.403 -0.0496  2.6264  0.1222
 1703TIP3   OH226743   6.385   4.796   7.039  0.3748 -0.2149  0.1917
 1703TIP3    H126744   6.473   4.829   7.019  0.3171 -0.7443 -0.9772
 1703TIP3    H226745   6.330   4.830   6.969 -0.2334 -0.4013  0.5767
 1704TIP3   OH226746   3.620   3.340   7.649 -0.6085  0.0418  0.1096
 1704TIP3    H126747   3.714   3.323   7.649 -0.4342  0.9830  0.3013
 1704TIP3    H226748   3.600   3.362   7.558 -0.4796  0.7184  0.2438
 1705TIP3   OH226749   4.107   3.976   1.737 -0.8011  0.6978 -0.1950
 1705TIP3    H126750   4.195   3.990   1.704 -1.3128  1.3490 -1.2943
 1705TIP3    H226751   4.114   3.995   1.831  0.3212  0.3044 -0.1932
 1706TIP3   OH226752   6.607   5.506   0.370  0.6348  0.3236 -0.0853
 1706TIP3    H126753   6.634   5.470   0.285  1.8370 -2.0734  1.2749
 1706TIP3    H226754   6.553   5.437   0.408  0.0851  1.4082  1.0919
 1707TIP3   OH226755   3.011   0.404   0.303  0.3625  0.3706  0.6376
 1707TIP3    H126756   3.099   0.415   0.269 -0.8334  0.0166 -2.7191
 1707TIP3    H226757   2.977   0.493   0.316  0.2579  0.5150 -0.6445
 1708TIP3   OH226758   6.254   3.405   7.139 -0.1305 -0.3716 -0.1470
 1708TIP3    H126759   6.176   3.428   7.090 -0.6655 -1.8679 -0.0301
 1708TIP3    H226760   6.256   3.468   7.211 -1.5028 -0.6293  0.1339
 1709TIP3   OH226761   6.103   0.459   0.518  0.3282  0.0420  0.5021
 1709TIP3    H126762   6.016   0.419   0.514 -0.7182  2.3145 -0.1297
 1709TIP3    H226763   6.086   0.553   0.514  2.7139  0.5819  2.4002
 1710TIP3   OH226764   1.675   7.123   6.172 -0.6142 -0.4145  0.3613
 1710TIP3    H126765   1.685   7.207   6.125 -0.3395 -0.2702  0.6826
 1710TIP3    H226766   1.695   7.057   6.106  0.2434 -0.1961  0.3919
 1711TIP3   OH226767   7.035   1.446   1.908 -0.3950 -0.5829  0.2449
 1711TIP3    H126768   6.966   1.512   1.915  0.3616  0.3911 -1.2032
 1711TIP3    H226769   7.115   1.492   1.935  0.6471  0.0131 -3.5635
 1712TIP3   OH226770   2.493   6.942   7.887  0.1042  0.3316 -0.3731
 1712TIP3    H126771   2.412   6.993   7.889  0.7701  1.3375  1.6694
 1712TIP3    H226772   2.562   7.008   7.895  1.0673 -0.6971 -0.2221
 1713TIP3   OH226773   3.878   2.229   7.408  0.9625 -0.0293  0.5253
 1713TIP3    H126774   3.796   2.212   7.454  0.6202 -1.0474 -0.4451
 1713TIP3    H226775   3.867   2.315   7.368  0.4215 -0.1080  0.5072
 1714TIP3   OH226776   6.704   1.936   0.398 -0.0506 -0.5386 -0.1381
 1714TIP3    H126777   6.661   1.938   0.483 -3.2419 -2.9044 -1.5927
 1714TIP3    H226778   6.745   1.849   0.393  0.4623 -0.2666 -0.8649
 1715TIP3   OH226779   6.334   2.299   7.703 -0.0197 -0.3601 -0.2200
 1715TIP3    H126780   6.345   2.261   7.616  2.9828  1.3441 -0.6602
 1715TIP3    H226781   6.279   2.376   7.689  1.4011  0.5669 -0.8462
 1716TIP3   OH226782   6.924   1.105   7.106  0.3274  0.1773 -0.0170
 1716TIP3    H126783   6.982   1.029   7.104  1.1894  0.8307 -0.3988
 1716TIP3    H226784   6.862   1.087   7.176  0.4305 -0.9493 -0.2123
 1717TIP3   OH226785   6.998   6.608   0.884 -0.6169 -0.1291 -0.0944
 1717TIP3    H126786   6.926   6.668   0.906 -0.9177 -0.7649  0.6462
 1717TIP3    H226787   7.069   6.633   0.943 -0.8402 -0.6903  0.4158
 1718TIP3   OH226788   0.852   3.433   1.316 -0.6116  0.3215  0.2983
 1718TIP3    H126789   0.924   3.466   1.370  0.9056  0.4124 -1.7320
 1718TIP3    H226790   0.884   3.349   1.283 -2.4227 -0.8023  1.2991
 1719TIP3   OH226791   6.613   4.514   0.838 -0.1597 -0.3355 -0.4471
 1719TIP3    H126792   6.706   4.492   0.842  0.1815  0.7858 -1.6031
 1719TIP3    H226793   6.570   4.449   0.893  1.3463 -0.6479  0.3854
 1720TIP3   OH226794   4.890   2.855   6.607 -0.6198  0.2208  0.2702
 1720TIP3    H126795   4.900   2.874   6.700 -0.5208  1.2467  0.0589
 1720TIP3    H226796   4.978   2.863   6.571 -0.5236 -0.9938  0.2309
 1721TIP3   OH226797   2.360   2.860   7.648  0.1462  0.4768  0.0433
 1721TIP3    H126798   2.307   2.939   7.637 -0.5819  0.0742  0.5898
 1721TIP3    H226799   2.411   2.853   7.567  0.3521  1.6052  0.0693
 1722TIP3   OH226800   6.858   5.409   6.455 -0.2646  0.0497 -0.2494
 1722TIP3    H126801   6.901   5.488   6.423 -1.2535  0.2951 -1.0393
 1722TIP3    H226802   6.896   5.338   6.403  0.2149  0.0858  0.0570
 1723TIP3   OH226803   1.335   1.395   7.614 -0.4417 -0.0377 -0.4134
 1723TIP3    H126804   1.333   1.327   7.548  0.1814  0.0607 -0.5357
 1723TIP3    H226805   1.368   1.352   7.693  0.2808  0.2035 -0.5849
 1724TIP3   OH226806   0.089   5.254   6.735 -0.7112 -0.3016 -0.0959
 1724TIP3    H126807   0.113   5.315   6.665 -0.3535  0.4026  0.6376
 1724TIP3    H226808   0.002   5.224   6.711  0.1757 -1.5757 -1.8909
 1725TIP3   OH226809   6.819   1.575   7.158  0.1061 -0.1406  0.7742
 1725TIP3    H126810   6.868   1.649   7.121  1.1319 -0.6758  1.0587
 1725TIP3    H226811   6.875   1.541   7.227 -0.2793 -1.3027  0.5323
 1726TIP3   OH226812   5.836   1.666   0.092 -0.4879 -0.3551 -0.4189
 1726TIP3    H126813   5.795   1.747   0.125  0.1316  0.1064 -0.7763
 1726TIP3    H226814   5.919   1.661   0.139  0.2339  0.1086 -1.6354
 1727TIP3   OH226815   0.033   3.110   6.472 -0.3529  0.1331  0.8187
 1727TIP3    H126816  -0.024   3.034   6.484 -0.6099  0.5189  2.2341
 1727TIP3    H226817   0.035   3.151   6.559  0.9112  0.9422  0.4157
 1728TIP3   OH226818   1.917   5.352   6.761 -0.1033  0.5551 -0.0619
 1728TIP3    H126819   1.959   5.391   6.837 -1.9658  0.4976  1.0359
 1728TIP3    H226820   1.943   5.260   6.763  2.5487  1.2317 -1.4291
 1729TIP3   OH226821   2.176   1.881   0.460 -0.1096  0.3798  0.7113
 1729TIP3    H126822   2.145   1.859   0.373  0.5099 -1.1722  0.8717
 1729TIP3    H226823   2.102   1.861   0.518  0.4331 -1.2749  0.8503
 1730TIP3   OH226824   4.992   6.884   7.303  0.5671  0.4533  0.0456
 1730TIP3    H126825   5.035   6.822   7.361 -0.3338  0.4167  0.6790
 1730TIP3    H226826   5.047   6.963   7.306 -0.5491  1.1916  2.5532
 1731TIP3   OH226827   7.060   1.684   1.297  0.3947  0.3474 -0.1000
 1731TIP3    H126828   7.042   1.676   1.391 -0.5736 -0.6878 -0.3579
 1731TIP3    H226829   7.156   1.687   1.291  0.4758 -0.1285  0.8786
 1732TIP3   OH226830   6.476   1.483   6.223 -0.5138  0.1548  0.1078
 1732TIP3    H126831   6.483   1.492   6.318  0.4219  0.6728  0.0002
 1732TIP3    H226832   6.383   1.472   6.206 -0.6344 -0.4405  1.1334
 1733TIP3   OH226833   5.713   5.144   0.213 -0.1640 -0.0734  0.2177
 1733TIP3    H126834   5.802   5.145   0.248  0.3195 -0.3781 -0.9684
 1733TIP3    H226835   5.674   5.226   0.243  1.1906  1.0107 -0.9334
 1734TIP3   OH226836   0.448   2.071   6.591  0.3619 -0.0720  0.2518
 1734TIP3    H126837   0.518   2.023   6.546 -0.6284 -0.3324 -1.0475
 1734TIP3    H226838   0.432   2.021   6.670  1.2548 -0.3259  0.2874
 1735TIP3   OH226839   0.588   3.462   7.909 -0.0111 -0.7003  0.3622
 1735TIP3    H126840   0.661   3.453   7.971 -0.1197 -1.2907  0.4036
 1735TIP3    H226841   0.521   3.508   7.959  1.2770  2.1897 -0.4698
 1736TIP3   OH226842   4.591   3.237   1.707 -0.8888 -0.1823  0.5699
 1736TIP3    H126843   4.624   3.211   1.793  1.5444  0.2696 -0.2050
 1736TIP3    H226844   4.589   3.155   1.656 -0.2087 -0.0719  0.3692
 1737TIP3   OH226845   3.380   4.819   7.761  0.8511  0.5263  0.2104
 1737TIP3    H126846   3.287   4.842   7.760  0.8387  0.4935  0.5681
 1737TIP3    H226847   3.381   4.724   7.752  0.8043  0.4087  1.3887
 1738TIP3   OH226848   4.293   5.186   6.719  0.2947  0.7872  0.3160
 1738TIP3    H126849   4.256   5.133   6.649 -3.1627  1.3590  1.5804
 1738TIP3    H226850   4.325   5.123   6.783  0.6803  0.2675 -0.3842
 1739TIP3   OH226851   2.894   4.273   6.437  0.3713 -0.3562 -0.1655
 1739TIP3    H126852   2.940   4.288   6.354  0.2727  0.1690 -0.1248
 1739TIP3    H226853   2.878   4.178   6.439  0.8463 -0.4456 -0.4979
 1740TIP3   OH226854   0.025   3.654   0.824  0.2724  0.0127  0.0979
 1740TIP3    H126855  -0.033   3.661   0.748  0.1728  0.7439  0.2315
 1740TIP3    H226856   0.051   3.745   0.842  1.1275 -0.2637  0.2897
 1741TIP3   OH226857   5.011   2.316   7.379  0.2697  0.6962  0.1562
 1741TIP3    H126858   5.005   2.411   7.372 -0.5697  0.6227 -0.1726
 1741TIP3    H226859   4.920   2.286   7.380  0.5270 -0.2733 -2.2455
 1742TIP3   OH226860   5.072   3.110   0.333 -0.4773  0.0884 -0.1873
 1742TIP3    H126861   5.069   3.193   0.380 -0.0097 -0.5192  0.9327
 1742TIP3    H226862   5.076   3.135   0.241 -1.2828  1.2919  0.0937
 1743TIP3   OH226863   4.820   4.635   7.750  0.5123  0.4319  0.1231
 1743TIP3    H126864   4.819   4.728   7.772  0.7067  0.5699 -0.4599
 1743TIP3    H226865   4.905   4.604   7.782 -0.2122  0.0907  1.8042
 1744TIP3   OH226866   5.045   4.045   6.776  0.1113  0.1101  0.3493
 1744TIP3    H126867   5.068   4.101   6.850 -0.7706  0.3494  0.4557
 1744TIP3    H226868   5.069   3.957   6.803 -1.2151  0.0402  1.3799
 1745TIP3   OH226869   3.346   2.033   7.776 -0.8395  0.0360 -0.3689
 1745TIP3    H126870   3.415   1.971   7.754 -1.0170 -0.5958  0.8091
 1745TIP3    H226871   3.287   1.984   7.834 -2.0080  0.7204 -0.9581
 1746TIP3   OH226872   3.317   6.712   7.614  0.6051  0.4620  0.2870
 1746TIP3    H126873   3.309   6.725   7.708 -0.6051  0.6857  0.1542
 1746TIP3    H226874   3.303   6.798   7.576  0.0576  0.1724 -0.1615
 1747TIP3   OH226875   1.157   5.185   6.786 -0.0880 -0.6667  0.3596
 1747TIP3    H126876   1.099   5.258   6.764  0.5922  0.4947  2.2502
 1747TIP3    H226877   1.227   5.190   6.720 -0.5754 -0.2385 -0.1291
 1748TIP3   OH226878   5.283   6.302   6.617  0.2330 -0.2550  0.5035
 1748TIP3    H126879   5.196   6.331   6.642  0.5203  0.9673  0.1270
 1748TIP3    H226880   5.269   6.246   6.540 -0.2818 -0.7543  0.9567
 1749TIP3   OH226881   5.326   1.224   6.694  0.0960  0.4525  0.0370
 1749TIP3    H126882   5.249   1.175   6.722  0.2457 -0.6542 -1.4306
 1749TIP3    H226883   5.401   1.174   6.726  0.2334  0.7681  0.2181
 1750TIP3   OH226884   4.820   3.394   6.827 -0.0516  0.7269  0.3768
 1750TIP3    H126885   4.744   3.440   6.791 -2.0198 -2.3374  0.4772
 1750TIP3    H226886   4.832   3.431   6.914  0.6988  3.5654 -0.8697
 1751TIP3   OH226887   1.559   1.888   6.793 -0.2553  0.0179  0.1750
 1751TIP3    H126888   1.644   1.896   6.750  0.0634 -0.7928  0.6601
 1751TIP3    H226889   1.513   1.969   6.769  0.6716  0.4916 -0.0225
 1752TIP3   OH226890   0.034   3.972   0.199  0.0387  0.2932 -0.4313
 1752TIP3    H126891   0.009   3.930   0.116  0.1393  1.4299 -1.0513
 1752TIP3    H226892  -0.010   3.921   0.266  0.6542 -1.1894 -1.1250
 1753TIP3   OH226893   5.742   2.799   7.531  0.0384  0.1324 -0.6864
 1753TIP3    H126894   5.758   2.796   7.625  1.3552  2.5641 -0.7979
 1753TIP3    H226895   5.648   2.820   7.524  0.2246  1.2945  0.1081
 1754TIP3   OH226896   1.831   3.143   5.984  0.1329  1.0170  0.4652
 1754TIP3    H126897   1.891   3.069   5.991 -1.3284 -0.2947 -0.5365
 1754TIP3    H226898   1.882   3.212   5.943  0.9333 -0.1040 -0.4493
 1755TIP3   OH226899   6.360   4.298   0.125  0.4320  0.0674  0.6680
 1755TIP3    H126900   6.270   4.310   0.096  0.1693  0.2820  1.5560
 1755TIP3    H226901   6.411   4.289   0.044 -0.3389  0.2540  0.1620
 1756TIP3   OH226902   4.925   2.744   1.526 -0.1505  0.0641 -0.0513
 1756TIP3    H126903   4.987   2.755   1.598  1.1856 -1.3511 -0.9484
 1756TIP3    H226904   4.956   2.803   1.458 -1.1432  1.0542  0.3371
 1757TIP3   OH226905   2.011   5.723   1.045 -0.3694 -0.0267 -0.5068
 1757TIP3    H126906   2.050   5.668   1.113 -0.8395  1.3701  0.9228
 1757TIP3    H226907   2.085   5.749   0.990  0.0650 -0.8869 -0.3388
 1758TIP3   OH226908   1.507   3.248   6.344  0.3923 -0.0788  0.4923
 1758TIP3    H126909   1.489   3.161   6.377  1.2219 -0.1816  0.6822
 1758TIP3    H226910   1.597   3.243   6.311  0.0432  0.3766 -0.5707
 1759TIP3   OH226911   6.367   5.029   8.109  0.1473  0.3410 -0.1901
 1759TIP3    H126912   6.407   5.063   8.188 -0.4569  1.3483 -0.3050
 1759TIP3    H226913   6.273   5.030   8.127  0.1837 -3.1243  0.5303
 1760TIP3   OH226914   0.340   2.103   7.241  0.7062  0.6219 -0.0795
 1760TIP3    H126915   0.298   2.149   7.168 -0.9641  2.0347  1.7306
 1760TIP3    H226916   0.431   2.132   7.239  0.1115  2.5717 -0.1269
 1761TIP3   OH226917   6.850   3.950   6.169  1.2594 -0.2167 -0.3513
 1761TIP3    H126918   6.837   3.859   6.141  0.9951  0.3200 -2.0329
 1761TIP3    H226919   6.914   3.985   6.107  1.2022  0.7998  0.1619
 1762TIP3   OH226920   1.096   7.080   6.546  0.5220 -0.6716 -0.4030
 1762TIP3    H126921   1.032   7.045   6.486 -1.5329  2.5988 -0.2605
 1762TIP3    H226922   1.102   7.016   6.617 -2.3399 -1.1931 -0.6098
 1763TIP3   OH226923   1.913   5.656   7.247  0.4131 -0.0335  0.0218
 1763TIP3    H126924   1.888   5.716   7.316 -0.3853 -1.8854  1.3876
 1763TIP3    H226925   1.839   5.597   7.238  1.6514 -1.5701 -0.4291
 1764TIP3   OH226926   5.075   3.600   7.107 -0.5744  0.1717 -0.1618
 1764TIP3    H126927   5.145   3.619   7.169 -1.0453  1.1814  0.0739
 1764TIP3    H226928   5.119   3.599   7.021  0.2951 -2.4870  0.2767
 1765TIP3   OH226929   4.177   4.301   6.583 -0.2104 -0.1233 -0.4573
 1765TIP3    H126930   4.122   4.290   6.660  0.9590 -1.7762  0.1554
 1765TIP3    H226931   4.257   4.343   6.615 -0.5900  1.1696 -1.1464
 1766TIP3   OH226932   6.447   0.019   8.005  0.3632 -0.1028 -0.5100
 1766TIP3    H126933   6.422  -0.065   8.043  0.4273  0.9289  1.9524
 1766TIP3    H226934   6.464   0.075   8.081  0.7234  2.0155 -2.1021
 1767TIP3   OH226935   0.811   0.973   0.727  0.0264 -0.4721  0.2255
 1767TIP3    H126936   0.781   0.883   0.717  0.3026 -0.6048  0.5670
 1767TIP3    H226937   0.814   0.987   0.822 -0.7203  0.1355  0.1583
 1768TIP3   OH226938   7.139   3.016   7.520  0.0900 -0.1157  0.4745
 1768TIP3    H126939   7.176   2.996   7.434 -0.8106 -2.5419  0.6179
 1768TIP3    H226940   7.197   3.084   7.555  1.5080 -0.3566 -1.3104
 1769TIP3   OH226941   4.173   3.669   1.385  0.0554  0.0117 -0.0151
 1769TIP3    H126942   4.149   3.758   1.359 -0.9222 -0.1867  0.1649
 1769TIP3    H226943   4.169   3.618   1.305  0.9107  0.1836 -0.1728
 1770TIP3   OH226944   0.295   1.178   0.857 -0.1967  0.4010 -0.2848
 1770TIP3    H126945   0.291   1.095   0.905 -0.1521  0.4024 -0.2787
 1770TIP3    H226946   0.365   1.166   0.794  0.9469  1.0358  0.8472
 1771TIP3   OH226947   5.093   2.885   0.136 -0.4380  0.0328 -0.1293
 1771TIP3    H126948   5.103   2.934   0.218 -0.3474  1.4489 -0.9699
 1771TIP3    H226949   5.112   2.794   0.160 -0.7119  0.3795  1.4802
 1772TIP3   OH226950   0.709   2.101   1.304  0.2527 -0.6745  0.3062
 1772TIP3    H126951   0.681   2.031   1.245 -0.0664 -1.4049  1.2877
 1772TIP3    H226952   0.777   2.060   1.358  1.8859  0.5354 -0.8143
 1773TIP3   OH226953   1.516   4.725   1.526 -0.7457  0.1617 -0.0910
 1773TIP3    H126954   1.467   4.649   1.557 -1.3395  0.5740 -0.0218
 1773TIP3    H226955   1.568   4.752   1.601 -1.5060  0.6100  0.2775
 1774TIP3   OH226956   0.089   6.144   1.488  0.7536  0.1896  0.0186
 1774TIP3    H126957   0.046   6.136   1.573 -0.4704 -2.7328 -0.8068
 1774TIP3    H226958   0.158   6.078   1.490  1.7948  1.2453 -0.6377
 1775TIP3   OH226959   0.119   0.107   6.910 -0.2229 -0.2684  0.6240
 1775TIP3    H126960   0.171   0.183   6.933 -2.1544  1.4031 -0.3885
 1775TIP3    H226961   0.139   0.090   6.818 -1.5949  0.5412  0.1522
 1776TIP3   OH226962   1.194   3.851   7.289  0.5953 -0.2416 -0.0212
 1776TIP3    H126963   1.207   3.807   7.373  3.7967 -3.4707 -2.0383
 1776TIP3    H226964   1.129   3.798   7.244  0.1668  0.5001 -0.2847
 1777TIP3   OH226965   3.884   5.841   6.840  0.1115  0.2171  0.0745
 1777TIP3    H126966   3.946   5.909   6.813  1.4637  0.0897  2.7615
 1777TIP3    H226967   3.798   5.881   6.830  0.6504  0.8917 -2.2840
 1778TIP3   OH226968   4.211   3.654   2.421 -0.2895  0.3773  0.7420
 1778TIP3    H126969   4.137   3.715   2.428  0.6308  1.4993  0.7266
 1778TIP3    H226970   4.181   3.575   2.466 -1.7931  0.5462  0.0623
 1779TIP3   OH226971   1.865   5.672   7.802 -0.0476  0.5079 -0.1348
 1779TIP3    H126972   1.820   5.756   7.810 -0.5506  0.2660 -0.3479
 1779TIP3    H226973   1.794   5.608   7.788  0.1232 -0.3281  2.5909
 1780TIP3   OH226974   1.855   4.528   7.733 -0.2209 -0.1756  0.0410
 1780TIP3    H126975   1.934   4.577   7.758 -0.1172 -0.0810 -0.4591
 1780TIP3    H226976   1.783   4.588   7.751 -0.0512  0.4426 -1.2145
 1781TIP3   OH226977   4.978   4.573   7.183  0.3797 -0.6449 -0.1952
 1781TIP3    H126978   5.011   4.587   7.272  1.0344  0.7808 -0.6487
 1781TIP3    H226979   4.882   4.569   7.193  0.4115  0.1671  0.4971
 1782TIP3   OH226980   3.571   6.430   1.161 -0.4027  0.4572  0.4879
 1782TIP3    H126981   3.612   6.515   1.172 -0.3311  0.2685  1.7838
 1782TIP3    H226982   3.611   6.394   1.082  0.3203  1.1875  0.5162
 1783TIP3   OH226983   0.703   3.817   7.897 -0.3938  0.2098 -0.2938
 1783TIP3    H126984   0.673   3.804   7.987  1.1385 -0.5183  0.1395
 1783TIP3    H226985   0.756   3.739   7.878 -0.1356  0.6865 -1.5780
 1784TIP3   OH226986   0.953   5.619   7.345 -0.1961 -0.6345 -0.1467
 1784TIP3    H126987   0.923   5.707   7.325 -0.1825 -0.3240  1.1503
 1784TIP3    H226988   1.033   5.608   7.295 -0.2834  0.0303 -0.4300
 1785TIP3   OH226989   1.439   0.537   0.543 -1.1404 -0.2697  0.0429
 1785TIP3    H126990   1.529   0.518   0.515 -0.3986  0.7831  1.5995
 1785TIP3    H226991   1.413   0.614   0.492  0.1380  1.5278  1.9718
 1786TIP3   OH226992   1.392   2.437   6.426  0.2420  0.5173 -0.0685
 1786TIP3    H126993   1.426   2.359   6.469  0.3123  0.2199 -0.6565
 1786TIP3    H226994   1.395   2.506   6.493 -0.3168 -0.1108  0.6084
 1787TIP3   OH226995   2.150   5.710   7.807  0.5986 -0.0147  0.0725
 1787TIP3    H126996   2.057   5.691   7.816  0.5717 -0.1477 -0.4757
 1787TIP3    H226997   2.169   5.771   7.878 -0.3525  1.6409 -1.0650
 1788TIP3   OH226998   1.929   2.203   0.569  0.1796 -0.4569 -0.3126
 1788TIP3    H126999   1.983   2.220   0.492  0.8084 -2.5008 -0.3619
 1788TIP3    H227000   1.902   2.112   0.560  0.3753 -0.7749  1.9480
 1789TIP3   OH227001   3.599   1.317   6.217  0.2346 -0.0110  0.7285
 1789TIP3    H127002   3.647   1.234   6.215  1.1889  0.5479 -0.5196
 1789TIP3    H227003   3.552   1.319   6.134 -1.1513 -0.0811  1.5059
 1790TIP3   OH227004   0.549   4.999   6.198 -0.4898  0.0150  0.0929
 1790TIP3    H127005   0.621   4.938   6.182 -0.1640 -0.0277  1.5873
 1790TIP3    H227006   0.564   5.071   6.138  2.3350  1.2615  2.1945
 1791TIP3   OH227007   0.661   4.859   5.792  0.2634  0.2979 -0.0559
 1791TIP3    H127008   0.690   4.768   5.782 -0.2935 -0.2003  2.6294
 1791TIP3    H227009   0.730   4.901   5.844  0.0898  1.2115 -0.5395
 1792TIP3   OH227010   4.506   2.601   7.636  0.1940 -0.3305 -0.9439
 1792TIP3    H127011   4.419   2.638   7.649  1.0913  1.8022 -0.7799
 1792TIP3    H227012   4.507   2.522   7.689 -1.0635  0.5510  0.4386
 1793TIP3   OH227013   4.927   3.169   7.966 -0.1443 -0.0822 -0.6143
 1793TIP3    H127014   4.875   3.157   7.886 -0.8263  0.9764 -0.3258
 1793TIP3    H227015   4.991   3.098   7.962 -0.4091 -0.2754 -1.9202
 1794TIP3   OH227016   6.444   6.406   8.076  0.1323 -0.7088  0.9610
 1794TIP3    H127017   6.451   6.312   8.063 -2.4232 -1.0841  2.1019
 1794TIP3    H227018   6.453   6.443   7.988 -1.6492 -2.2168  0.1056
 1795TIP3   OH227019   6.898   4.371   7.886  0.0891 -0.1625 -0.5300
 1795TIP3    H127020   6.838   4.301   7.860  0.6210 -0.7813 -0.1347
 1795TIP3    H227021   6.872   4.391   7.976  1.3940 -1.4491  0.1566
 1796TIP3   OH227022   0.319   5.387   7.076 -0.3864  0.1009  0.1791
 1796TIP3    H127023   0.357   5.451   7.016 -0.8065  0.4005  0.2325
 1796TIP3    H227024   0.229   5.375   7.045  0.1445 -1.6062 -0.7637
 1797TIP3   OH227025   1.631   0.946   8.040 -0.2618  0.6181  0.7216
 1797TIP3    H127026   1.721   0.917   8.025  0.0010  1.3024  0.9882
 1797TIP3    H227027   1.585   0.922   7.960 -0.2260 -1.2679  1.2336
 1798TIP3   OH227028   3.950   1.589   1.534 -0.0945  0.8897 -0.3683
 1798TIP3    H127029   3.985   1.560   1.618 -0.0747 -0.4261 -0.8294
 1798TIP3    H227030   3.999   1.539   1.469 -1.2230  0.7372 -1.1034
 1799TIP3   OH227031   3.833   0.479   7.493  0.2791 -0.8047  0.3264
 1799TIP3    H127032   3.901   0.422   7.530  1.3033 -0.5941 -1.2010
 1799TIP3    H227033   3.805   0.533   7.567  3.6828  0.9953  0.3941
 1800TIP3   OH227034   0.486   6.097   6.894  0.1248  0.0902 -0.1194
 1800TIP3    H127035   0.464   6.005   6.879  0.8736 -0.0527 -0.3717
 1800TIP3    H227036   0.571   6.108   6.853  0.3694  0.7176  0.5465
 1801TIP3   OH227037   0.219   6.151   0.733 -0.1194  0.1121 -0.1766
 1801TIP3    H127038   0.203   6.122   0.643  1.2599  0.5888 -0.6026
 1801TIP3    H227039   0.304   6.112   0.756 -0.4811 -0.0401  0.9338
 1802TIP3   OH227040   0.979   5.168   6.110 -0.0084  0.7560  0.0211
 1802TIP3    H127041   0.999   5.160   6.016  0.9786 -1.2796  0.3796
 1802TIP3    H227042   0.934   5.252   6.117 -0.7348  0.6290 -2.3988
 1803TIP3   OH227043   0.163   5.078   7.683  0.3514 -0.2598  0.1936
 1803TIP3    H127044   0.250   5.085   7.722 -0.0482  0.2847  1.0085
 1803TIP3    H227045   0.117   5.014   7.738  0.5634 -1.3340 -0.8590
 1804TIP3   OH227046   1.623   5.225   6.706 -0.2251 -0.0889  0.0934
 1804TIP3    H127047   1.707   5.185   6.731  0.4837 -0.9347 -3.4320
 1804TIP3    H227048   1.644   5.283   6.633 -2.1100  2.8406  1.7792
 1805TIP3   OH227049   1.544   5.878   6.618  1.0118  0.5957  0.0945
 1805TIP3    H127050   1.557   5.900   6.710 -0.3014  0.7523  0.2586
 1805TIP3    H227051   1.588   5.794   6.607  0.6401  0.2672  1.0272
 1806TIP3   OH227052   0.487   5.189   6.485  0.2376 -0.1993 -0.1334
 1806TIP3    H127053   0.550   5.211   6.417  0.6032 -0.5159  0.1031
 1806TIP3    H227054   0.512   5.243   6.559  0.1723 -0.2542 -0.0716
 1807TIP3   OH227055   1.855   0.074   7.255  0.1099 -0.2409  0.0923
 1807TIP3    H127056   1.801   0.003   7.292 -0.4182 -0.9361 -1.9464
 1807TIP3    H227057   1.821   0.085   7.166 -0.1485  2.9359  0.5494
 1808TIP3   OH227058   5.529   3.421   1.247  0.2752 -0.0031  0.3398
 1808TIP3    H127059   5.601   3.484   1.242 -0.8583  1.2580 -0.2879
 1808TIP3    H227060   5.511   3.397   1.156  0.6245 -1.1740  0.5636
 1809TIP3   OH227061   5.838   0.957   1.071  0.1080  0.1271  0.0215
 1809TIP3    H127062   5.902   0.956   1.142 -1.7217 -2.1555  1.6960
 1809TIP3    H227063   5.868   0.888   1.011 -0.1753 -0.1975  0.2530
 1810TIP3   OH227064   0.505   5.781   6.856  0.5011  0.6685 -0.5278
 1810TIP3    H127065   0.573   5.752   6.796  0.4271  0.4808 -0.5237
 1810TIP3    H227066   0.547   5.780   6.942 -0.1112 -1.6030 -0.2075
 1811TIP3   OH227067   1.074   4.108   6.364 -0.4501 -0.1901  0.1449
 1811TIP3    H127068   0.980   4.113   6.376 -0.4350 -1.3522  0.8103
 1811TIP3    H227069   1.110   4.107   6.452 -0.0637 -3.7268  0.0160
 1812TIP3   OH227070   1.417   6.718   6.626 -0.0362 -0.0836  0.1530
 1812TIP3    H127071   1.446   6.736   6.715 -1.9567  0.0663  0.7538
 1812TIP3    H227072   1.328   6.751   6.622 -0.3428 -1.0536 -1.5068
 1813TIP3   OH227073   1.306   3.685   5.587  0.3158  0.1049 -0.4009
 1813TIP3    H127074   1.243   3.643   5.530 -0.8108  0.7378  0.3495
 1813TIP3    H227075   1.386   3.692   5.534  0.0618 -1.5676 -1.0285
 1814TIP3   OH227076   2.344   3.189   7.848 -0.1853 -0.1312 -0.0009
 1814TIP3    H127077   2.351   3.284   7.857 -0.7077 -0.1197  0.2726
 1814TIP3    H227078   2.387   3.154   7.927  4.1289 -0.2297 -2.2518
 1815TIP3   OH227079   1.502   2.239   0.323  0.0335  0.1066 -0.2017
 1815TIP3    H127080   1.530   2.184   0.396  0.6959  1.5845  0.6890
 1815TIP3    H227081   1.551   2.207   0.248  1.8457  0.7128  0.7092
 1816TIP3   OH227082   1.139   2.571   6.436  0.3272  0.1179  0.0040
 1816TIP3    H127083   1.210   2.510   6.416 -1.7936 -2.4261 -0.1301
 1816TIP3    H227084   1.088   2.575   6.354 -0.3409  0.9608  0.4572
 1817TIP3   OH227085   2.203   0.477   1.747 -0.3382 -0.2638  0.0057
 1817TIP3    H127086   2.124   0.441   1.787  0.4610 -1.3844  0.6053
 1817TIP3    H227087   2.252   0.516   1.820  0.3886 -0.9335 -0.1214
 1818TIP3   OH227088   7.016   3.748   0.074  0.1697  0.0392  0.0974
 1818TIP3    H127089   7.096   3.722   0.028 -0.0462 -0.3622 -0.0547
 1818TIP3    H227090   6.945   3.720   0.015 -0.0468  1.6709 -0.4450
 1819TIP3   OH227091   5.000   5.576   7.037  0.2096  0.1016  0.3257
 1819TIP3    H127092   5.077   5.531   7.073  0.3958 -0.8106 -1.1917
 1819TIP3    H227093   4.930   5.511   7.039 -0.0760  0.3999  0.1082
 1820TIP3   OH227094   0.184   6.071   0.056 -0.1500  0.1927 -0.0602
 1820TIP3    H127095   0.178   6.027   0.140 -1.3091 -1.2158 -0.8539
 1820TIP3    H227096   0.276   6.067   0.032  0.4083  1.7651  1.7314
 1821TIP3   OH227097   3.951   6.426   7.998  0.0675  0.0673  0.6809
 1821TIP3    H127098   3.887   6.401   7.932 -0.0472 -0.8386  1.1254
 1821TIP3    H227099   4.036   6.417   7.954 -0.0523  0.2815  0.4036
 1822TIP3   OH227100   4.346   0.898   1.059  0.0726 -0.2061  0.7119
 1822TIP3    H127101   4.369   0.970   1.117 -0.0607  0.0557  0.4394
 1822TIP3    H227102   4.329   0.939   0.974  1.0527 -0.6785  0.2807
 1823TIP3   OH227103   4.319   3.930   7.545  0.1472  0.1027 -0.0674
 1823TIP3    H127104   4.245   3.940   7.604  0.0022  0.6575 -0.3364
 1823TIP3    H227105   4.395   3.958   7.596 -0.0131  0.8353 -0.2261
 1824TIP3   OH227106   1.092   4.371   7.568 -0.2159 -0.7256 -0.6858
 1824TIP3    H127107   1.005   4.349   7.602  0.0342 -1.4929 -0.5243
 1824TIP3    H227108   1.135   4.417   7.639 -0.1358 -1.2348 -0.4005
 1825TIP3   OH227109   6.339   2.707   6.771  0.3573  0.3566  0.4434
 1825TIP3    H127110   6.407   2.758   6.815  0.9012 -0.7133  0.8461
 1825TIP3    H227111   6.266   2.768   6.762  2.2317  2.3697 -2.3517
 1826TIP3   OH227112   1.537   5.909   6.313 -0.3244  0.5688 -0.3392
 1826TIP3    H127113   1.488   5.954   6.382 -0.9521  2.3238 -1.8896
 1826TIP3    H227114   1.622   5.952   6.311 -1.1334  2.1723 -2.2302
 1827TIP3   OH227115   2.424   4.249   6.654 -0.1372  0.1830  0.3210
 1827TIP3    H127116   2.376   4.288   6.581  1.1653 -0.9604 -1.1585
 1827TIP3    H227117   2.447   4.324   6.710 -1.8346  0.9702  0.0110
 1828TIP3   OH227118   6.043   3.449   1.328  0.3314  0.2081  0.5994
 1828TIP3    H127119   5.998   3.533   1.335  0.4390  0.3945 -0.8972
 1828TIP3    H227120   6.103   3.448   1.403  0.5520  1.5983  0.4449
 1829TIP3   OH227121   2.472   5.937   1.138  0.3490 -0.5621 -0.1105
 1829TIP3    H127122   2.431   6.021   1.157  0.9413 -0.2412 -0.2491
 1829TIP3    H227123   2.558   5.942   1.180 -0.1840 -1.6726  1.1409
 1830TIP3   OH227124   7.148   4.217   6.205  0.0899  0.2158 -0.0717
 1830TIP3    H127125   7.142   4.161   6.128 -2.6383  0.0159  0.2469
 1830TIP3    H227126   7.158   4.305   6.170 -1.5786  0.1766 -0.6897
 1831TIP3   OH227127   7.107   0.176   6.637  0.2049 -0.5505 -0.4523
 1831TIP3    H127128   7.072   0.239   6.699 -1.0711 -1.5140 -0.1710
 1831TIP3    H227129   7.050   0.100   6.645  1.4310 -1.5695 -1.1250
 1832TIP3   OH227130   1.575   4.855   6.322  0.0195 -0.3423  0.5668
 1832TIP3    H127131   1.567   4.950   6.319 -0.5637 -0.4023  0.2064
 1832TIP3    H227132   1.567   4.827   6.231  0.9151 -0.6811  0.5855
 1833TIP3   OH227133   5.764   1.242   5.947 -0.7585 -0.0405  0.2681
 1833TIP3    H127134   5.741   1.171   5.887  0.1652 -0.5128  0.4624
 1833TIP3    H227135   5.718   1.222   6.028 -0.5216 -0.4111  0.3133
 1834TIP3   OH227136   6.627   4.504   0.275 -0.5645  0.0943 -0.3934
 1834TIP3    H127137   6.659   4.562   0.206 -2.5568 -0.2475 -1.6577
 1834TIP3    H227138   6.532   4.517   0.275 -0.8824 -1.9985  0.3721
 1835TIP3   OH227139   5.121   4.120   7.027 -0.1946 -0.0099  0.4592
 1835TIP3    H127140   5.205   4.107   7.070  0.2527 -1.1627 -0.7266
 1835TIP3    H227141   5.058   4.073   7.082  0.5051 -2.2364 -0.5783
 1836TIP3   OH227142   4.650   5.116   7.962 -0.5079 -0.0354 -0.0230
 1836TIP3    H127143   4.559   5.144   7.957  0.2603  2.8095  1.0226
 1836TIP3    H227144   4.701   5.195   7.944  1.7755 -1.6754 -1.0508
 1837TIP3   OH227145   2.883   5.367   7.685  0.6196 -0.3394  0.4340
 1837TIP3    H127146   2.859   5.350   7.594  1.7275  1.4506 -0.2140
 1837TIP3    H227147   2.831   5.304   7.736 -1.0090 -0.4541 -1.3245
 1838TIP3   OH227148   6.791   4.073   7.068 -0.3074 -0.3234 -0.5568
 1838TIP3    H127149   6.739   4.063   6.988 -0.8806 -1.1285 -0.0883
 1838TIP3    H227150   6.748   4.017   7.132  1.6081 -1.6515 -0.3881
 1839TIP3   OH227151   3.309   4.782   0.578  0.6196  0.4979  1.0783
 1839TIP3    H127152   3.334   4.709   0.522 -0.1017  0.7044  0.4737
 1839TIP3    H227153   3.234   4.822   0.533  0.2446  0.8678  2.0178
 1840TIP3   OH227154   0.179   3.553   7.388 -0.4129 -0.4767 -0.5573
 1840TIP3    H127155   0.212   3.621   7.447 -0.8025 -1.1643  0.4633
 1840TIP3    H227156   0.109   3.595   7.339 -0.6515 -0.1395  0.0752
 1841TIP3   OH227157   5.254   2.782   1.469  0.1266  0.0616 -0.1908
 1841TIP3    H127158   5.265   2.785   1.374  3.7924 -0.3685  0.1785
 1841TIP3    H227159   5.250   2.874   1.495 -2.3539  0.1836 -0.8585
 1842TIP3   OH227160   6.845   0.814   7.508  0.8269  0.0608 -0.0767
 1842TIP3    H127161   6.911   0.861   7.458  1.3729  0.3372  0.8930
 1842TIP3    H227162   6.864   0.835   7.599  1.8550 -3.0073  0.4883
 1843TIP3   OH227163   6.908   4.970   0.335 -0.1310 -0.2237  0.0705
 1843TIP3    H127164   6.814   4.984   0.344  0.0381  1.0746 -0.1315
 1843TIP3    H227165   6.926   4.979   0.242  0.2262 -0.2963  0.1302
 1844TIP3   OH227166   3.603   4.442   0.207 -0.6807  0.0995 -0.0368
 1844TIP3    H127167   3.647   4.361   0.234 -1.4068 -0.4488 -0.4703
 1844TIP3    H227168   3.617   4.502   0.280  1.4585  0.2095 -0.5003
 1845TIP3   OH227169   3.749   1.589   0.362  0.1924 -0.2855 -0.4954
 1845TIP3    H127170   3.701   1.569   0.282  0.8336 -0.1064 -0.9318
 1845TIP3    H227171   3.836   1.616   0.332  0.6275 -0.7788  0.2849
 1846TIP3   OH227172   3.330   6.657   0.341 -0.1153 -0.2069  0.0415
 1846TIP3    H127173   3.278   6.591   0.386  0.5713 -0.7609  0.0301
 1846TIP3    H227174   3.332   6.731   0.401  0.1140 -0.6442  0.5739
 1847TIP3   OH227175   4.752   3.903   0.868  0.9033  0.3639  0.7323
 1847TIP3    H127176   4.681   3.905   0.804  0.8773 -0.2888  0.7314
 1847TIP3    H227177   4.791   3.990   0.864 -0.8638  1.2207  1.8259
 1848TIP3   OH227178   1.482   3.794   6.406 -0.0930  0.0024 -0.0534
 1848TIP3    H127179   1.500   3.700   6.408 -1.4335 -0.2650  0.1695
 1848TIP3    H227180   1.436   3.809   6.324 -1.3208  0.1804  0.6533
 1849TIP3   OH227181   6.255   2.745   7.555  0.6445 -0.6299 -0.3260
 1849TIP3    H127182   6.267   2.770   7.647 -0.3065  0.6441 -0.5283
 1849TIP3    H227183   6.193   2.810   7.521  2.3035 -0.0580 -2.3322
 1850TIP3   OH227184   1.271   5.158   0.093  0.2652 -0.7298 -0.2873
 1850TIP3    H127185   1.332   5.151   0.019 -1.6785 -1.4193 -1.8778
 1850TIP3    H227186   1.320   5.124   0.168  2.2174 -0.1795 -1.2843
 1851TIP3   OH227187   1.783   5.160   5.690 -0.9184  0.0318 -0.2619
 1851TIP3    H127188   1.799   5.075   5.731 -0.2577  1.0277  1.5884
 1851TIP3    H227189   1.696   5.152   5.650 -1.7240 -0.8477  1.6260
 1852TIP3   OH227190   0.157   0.304   7.892 -0.7436  0.2786 -0.0493
 1852TIP3    H127191   0.198   0.360   7.826 -0.2890  0.5509  0.4680
 1852TIP3    H227192   0.108   0.239   7.841 -0.0544  0.2378 -0.6581
 1853TIP3   OH227193   3.077   5.545   1.615  0.3513  0.2050  0.2652
 1853TIP3    H127194   3.091   5.495   1.535 -3.8631 -0.0064 -0.4338
 1853TIP3    H227195   3.090   5.482   1.685  0.1548 -0.6026 -0.4132
 1854TIP3   OH227196   0.654   4.075   0.751  0.2247 -0.0996 -0.0184
 1854TIP3    H127197   0.663   4.170   0.767  0.3882  0.2125 -1.9429
 1854TIP3    H227198   0.744   4.043   0.745  0.2013  0.2569 -2.9436
 1855TIP3   OH227199   0.897   3.384   6.741  0.1180  0.0246 -0.2487
 1855TIP3    H127200   0.977   3.334   6.728  0.0162 -0.8969  2.3984
 1855TIP3    H227201   0.840   3.357   6.670  0.8184 -2.1186 -0.0250
 1856TIP3   OH227202   6.949   4.445   0.650 -0.0249  0.3250 -0.5151
 1856TIP3    H127203   6.941   4.355   0.617  1.1026 -0.0023  0.0714
 1856TIP3    H227204   6.924   4.500   0.576 -0.5407 -0.4607 -0.9391
 1857TIP3   OH227205   0.789   2.508   0.637 -0.5105 -0.0452  0.0777
 1857TIP3    H127206   0.808   2.447   0.565  1.8489 -0.0399  0.6469
 1857TIP3    H227207   0.730   2.573   0.599  0.6918 -0.0556 -1.8681
 1858TIP3   OH227208   1.556   1.115   6.239 -0.2003  0.0100  0.0432
 1858TIP3    H127209   1.638   1.094   6.194  0.2922  2.4954 -0.2876
 1858TIP3    H227210   1.496   1.045   6.214  0.7856  0.0620 -2.6017
 1859TIP3   OH227211   3.061   0.518   6.470  0.6663 -0.0384 -0.2643
 1859TIP3    H127212   3.078   0.501   6.377 -1.0890 -1.5744 -0.3248
 1859TIP3    H227213   2.970   0.548   6.473  0.7998  0.2912  0.9482
 1860TIP3   OH227214   3.068   6.537   8.048 -0.8080  0.6931 -0.6180
 1860TIP3    H127215   3.142   6.481   8.023 -1.0313  0.5427 -0.9354
 1860TIP3    H227216   3.040   6.578   7.966 -2.1855 -0.5667 -0.7937
 1861TIP3   OH227217   3.093   5.018   0.092 -0.3465 -0.3719  0.5000
 1861TIP3    H127218   3.089   5.114   0.084  0.1339 -0.3662  0.2999
 1861TIP3    H227219   3.010   4.994   0.132 -0.9248  0.0230 -0.4415
 1862TIP3   OH227220   3.528   3.415   7.398  0.3528  0.1576  0.2199
 1862TIP3    H127221   3.448   3.455   7.362  0.0274  0.4456  1.2328
 1862TIP3    H227222   3.585   3.402   7.322 -0.3391  0.7011 -0.4012
 1863TIP3   OH227223   1.465   4.395   1.329 -0.0729 -0.3151 -0.4114
 1863TIP3    H127224   1.414   4.363   1.403  0.1141  0.3402  0.0044
 1863TIP3    H227225   1.460   4.325   1.264  1.8076 -1.9600  1.1619
 1864TIP3   OH227226   3.938   5.250   2.216 -0.1638  0.0166  0.3822
 1864TIP3    H127227   4.007   5.186   2.232  0.5855  0.6326 -0.3466
 1864TIP3    H227228   3.856   5.202   2.231  0.3392 -1.7347 -2.3281
 1865TIP3   OH227229   3.974   5.070   0.115 -0.2506 -0.0198  0.0642
 1865TIP3    H127230   3.967   5.145   0.056  2.1827  0.2517  0.0839
 1865TIP3    H227231   4.032   5.009   0.069  2.1619  0.4511  2.4303
 1866TIP3   OH227232   3.223   4.381   7.586 -0.6689  0.4338  0.4861
 1866TIP3    H127233   3.181   4.415   7.506 -1.3980  1.8121  1.4169
 1866TIP3    H227234   3.168   4.307   7.612  0.8824 -1.4691 -1.5256
 1867TIP3   OH227235   7.124   4.417   7.737  0.1979 -0.6393  0.0628
 1867TIP3    H127236   7.081   4.437   7.820 -0.0307  1.8722 -0.6246
 1867TIP3    H227237   7.059   4.366   7.688  0.0779 -1.5389  1.1370
 1868TIP3   OH227238   4.469   6.939   7.654 -0.3626 -0.0698 -0.3614
 1868TIP3    H127239   4.395   6.887   7.685  0.2568 -0.5931  0.2611
 1868TIP3    H227240   4.514   6.883   7.591  1.8676 -1.4315  2.2854
 1869TIP3   OH227241   4.474   6.077   6.095 -0.2076 -0.1103 -0.2704
 1869TIP3    H127242   4.441   5.995   6.132 -0.2849 -0.1183 -0.3568
 1869TIP3    H227243   4.566   6.080   6.121 -0.6205  0.5821  1.1909
 1870TIP3   OH227244   4.386   4.009   1.725 -0.4166 -0.1286 -0.4248
 1870TIP3    H127245   4.443   4.047   1.658  0.5253 -0.4401  0.1800
 1870TIP3    H227246   4.420   3.920   1.737  2.4588  1.3587  3.7730
 1871TIP3   OH227247   6.001   3.521   7.906  0.4992  0.1407  0.5437
 1871TIP3    H127248   5.987   3.462   7.831  1.5770  1.1529 -0.4796
 1871TIP3    H227249   6.012   3.608   7.866  1.8385  0.5746  1.8033
 1872TIP3   OH227250   1.603   5.357   0.431 -0.2840  0.0843  0.0320
 1872TIP3    H127251   1.679   5.303   0.409 -0.2238  0.3851 -0.4976
 1872TIP3    H227252   1.632   5.447   0.415 -0.2127  0.3152  1.3945
 1873TIP3   OH227253   6.803   3.191   6.285 -0.5633 -0.6889  0.1509
 1873TIP3    H127254   6.854   3.271   6.293 -2.1632  0.3867 -0.0755
 1873TIP3    H227255   6.717   3.220   6.254 -0.2446 -2.7924 -2.9801
 1874TIP3   OH227256   1.153   1.752   7.729  0.5421 -0.3527 -0.3647
 1874TIP3    H127257   1.242   1.737   7.696  0.5715  1.1290 -0.9960
 1874TIP3    H227258   1.159   1.835   7.777  0.2908 -2.0315  2.6851
 1875TIP3   OH227259   7.029   4.048   6.629 -0.5773  0.1119  0.1788
 1875TIP3    H127260   7.038   4.040   6.724  0.5166  0.1362  0.0785
 1875TIP3    H227261   7.114   4.079   6.599 -0.1367 -2.2023 -1.0772
 1876TIP3   OH227262   3.631   4.695   1.459  0.1227  0.0754  0.2325
 1876TIP3    H127263   3.692   4.739   1.519 -2.3342  1.0811  2.0439
 1876TIP3    H227264   3.607   4.615   1.505  0.9768 -0.9027 -1.0101
 1877TIP3   OH227265   1.644   2.869   7.545 -0.1969 -0.3291 -0.3727
 1877TIP3    H127266   1.700   2.838   7.615 -2.1159 -0.4175  1.1665
 1877TIP3    H227267   1.663   2.962   7.537 -0.5406 -0.1573  0.8020
 1878TIP3   OH227268   2.595   2.286   6.939 -0.3099 -0.0810  0.1370
 1878TIP3    H127269   2.629   2.275   6.850  2.1494  1.3056  0.8683
 1878TIP3    H227270   2.614   2.203   6.982 -0.3486 -0.2975 -0.2603
 1879TIP3   OH227271   1.572   4.866   8.120 -0.3391 -0.2631  0.2905
 1879TIP3    H127272   1.546   4.889   8.031  1.7904  0.3049 -0.2254
 1879TIP3    H227273   1.538   4.777   8.133  1.3606 -1.3040 -1.9834
 1880TIP3   OH227274   1.581   6.689   7.721 -0.3683 -0.3083  0.3224
 1880TIP3    H127275   1.517   6.751   7.758 -2.2731 -0.6819 -2.2264
 1880TIP3    H227276   1.548   6.603   7.747 -0.6361 -0.4747 -0.5547
 1881TIP3   OH227277   1.825   5.334   1.115 -0.0038 -0.2455 -0.0629
 1881TIP3    H127278   1.864   5.406   1.066  1.6024 -0.9332  0.1788
 1881TIP3    H227279   1.770   5.378   1.181  0.8848  0.7653  0.0282
 1882TIP3   OH227280   0.480   3.570   0.428  0.2235  0.1654  0.3935
 1882TIP3    H127281   0.395   3.605   0.402  0.1249  0.6956  1.3967
 1882TIP3    H227282   0.478   3.569   0.524 -0.1966 -3.6809  0.4210
 1883TIP3   OH227283   3.443   1.302   6.001  0.0969  0.7187  0.1850
 1883TIP3    H127284   3.421   1.328   5.911  0.8168  1.7030  0.2835
 1883TIP3    H227285   3.377   1.237   6.023  0.7357 -0.5568 -1.5370
 1884TIP3   OH227286   3.132   3.916   7.001  0.1643  0.1653  0.2508
 1884TIP3    H127287   3.103   3.858   7.072  0.0857 -3.1102 -2.3487
 1884TIP3    H227288   3.225   3.896   6.990  0.4548  1.5084  0.1743
 1885TIP3   OH227289   0.732   3.719   0.890  0.0780 -0.2870  0.0512
 1885TIP3    H127290   0.777   3.720   0.805 -0.6938 -3.7120 -0.4888
 1885TIP3    H227291   0.651   3.767   0.876  0.9456  1.0111 -0.5453
 1886TIP3   OH227292   1.433   1.089   6.952 -0.4474 -0.8705  0.1140
 1886TIP3    H127293   1.513   1.052   6.989 -0.5769 -1.2934 -0.0268
 1886TIP3    H227294   1.463   1.154   6.889 -0.2212 -0.4717  0.6292
 1887TIP3   OH227295   6.334   0.435   0.345  0.5592  0.3221  0.2330
 1887TIP3    H127296   6.272   0.443   0.418  1.2751  1.2041  0.7540
 1887TIP3    H227297   6.402   0.376   0.377  0.8172  0.6219  0.2469
 1888TIP3   OH227298   6.816   4.837   6.474  0.0842  0.3900  0.0572
 1888TIP3    H127299   6.840   4.832   6.381 -0.2305  0.6541 -0.0380
 1888TIP3    H227300   6.861   4.916   6.506  2.9244 -1.5065  0.9357
 1889TIP3   OH227301   0.952   4.978   1.228 -0.6909  0.0576  0.0790
 1889TIP3    H127302   0.992   4.996   1.313 -0.8907  1.4519 -0.1135
 1889TIP3    H227303   0.994   4.897   1.199  0.4990  0.3916  0.8183
 1890TIP3   OH227304   6.876   4.649   7.230 -0.3585 -0.1887  0.3962
 1890TIP3    H127305   6.857   4.708   7.303 -0.3146 -1.0918  1.1652
 1890TIP3    H227306   6.917   4.704   7.164 -2.2461  1.0537  0.2227
 1891TIP3   OH227307   3.690   1.912   7.427  0.0370 -0.3467  0.5139
 1891TIP3    H127308   3.724   1.935   7.341  0.4588 -0.0490  0.7603
 1891TIP3    H227309   3.689   1.816   7.428  0.6913 -0.3560  0.4401
 1892TIP3   OH227310   1.772   4.192   7.875 -0.3095 -0.2045 -0.1088
 1892TIP3    H127311   1.865   4.193   7.898 -0.7078  0.9933  1.5429
 1892TIP3    H227312   1.748   4.284   7.870 -1.9601 -0.4842  1.9381
 1893TIP3   OH227313   6.476   2.470   7.938  0.0236  0.5571  0.1984
 1893TIP3    H127314   6.480   2.415   7.859 -1.0217  0.7516  0.0121
 1893TIP3    H227315   6.430   2.416   8.002 -0.2720  0.9082  0.2761
 1894TIP3   OH227316   2.640   6.576   7.475 -0.0216  0.0438 -0.2618
 1894TIP3    H127317   2.718   6.554   7.424 -0.4260  0.8133 -1.2486
 1894TIP3    H227318   2.669   6.578   7.566  1.6561  2.5632 -0.7822
 1895TIP3   OH227319   2.924   4.777   1.719  0.5495  0.0310 -0.1819
 1895TIP3    H127320   2.971   4.856   1.691  1.7783 -0.9360 -0.8932
 1895TIP3    H227321   2.993   4.718   1.750 -0.3271 -0.8718  0.0626
 1896TIP3   OH227322   0.919   6.106   7.689  0.0547 -0.6332 -0.2689
 1896TIP3    H127323   0.826   6.124   7.681  0.1187 -0.4054 -0.5118
 1896TIP3    H227324   0.926   6.011   7.683 -0.3591 -0.7965  1.7383
 1897TIP3   OH227325   1.724   4.234   6.565 -0.3829 -0.0479  0.0265
 1897TIP3    H127326   1.707   4.300   6.497 -0.5273 -0.0560  0.0538
 1897TIP3    H227327   1.670   4.262   6.639 -2.6094 -1.7136 -0.9090
 1898TIP3   OH227328   0.708   1.856   7.759  0.1865  0.6530 -0.2985
 1898TIP3    H127329   0.738   1.947   7.750 -1.2898  1.2763  0.8695
 1898TIP3    H227330   0.622   1.855   7.718 -0.6941  0.2906  1.4964
 1899TIP3   OH227331   1.905   3.981   7.159 -0.2620 -0.0885  0.2047
 1899TIP3    H127332   1.830   3.997   7.103  0.4087  0.4455 -0.5635
 1899TIP3    H227333   1.937   4.069   7.182  0.1368 -0.3064  0.5021
 1900TIP3   OH227334   4.550   3.069   0.082  0.2923  0.3595 -0.2620
 1900TIP3    H127335   4.632   3.096   0.041  0.0746 -0.0019 -0.9574
 1900TIP3    H227336   4.483   3.087   0.016 -0.1502  0.3790  0.1883
 1901TIP3   OH227337   3.487   2.680   6.919 -0.3395 -0.5263  0.4047
 1901TIP3    H127338   3.581   2.683   6.938 -0.4459  1.8990  0.7381
 1901TIP3    H227339   3.481   2.697   6.825 -0.5413  1.2663  0.7375
 1902TIP3   OH227340   4.437   3.288   7.298  0.6562  0.6761  0.3875
 1902TIP3    H127341   4.401   3.296   7.210 -0.0606 -1.0083  0.4889
 1902TIP3    H227342   4.364   3.310   7.356  0.1510 -1.3491  0.5756
 1903TIP3   OH227343   6.886   5.259   0.089  0.0066 -0.2029  0.2051
 1903TIP3    H127344   6.924   5.228   0.006  1.1717  0.0805  0.6186
 1903TIP3    H227345   6.794   5.276   0.068  0.5449  0.9720 -1.3346
 1904TIP3   OH227346   6.698   1.764   6.914 -0.0125  0.1940  0.1190
 1904TIP3    H127347   6.674   1.748   7.005 -1.9365  3.3777  0.2526
 1904TIP3    H227348   6.617   1.793   6.872  0.7472 -1.5836 -2.7310
 1905TIP3   OH227349   0.632   3.058   7.206  0.0200  0.2274 -0.6717
 1905TIP3    H127350   0.645   3.091   7.117 -1.5506 -0.6858 -1.2721
 1905TIP3    H227351   0.633   2.962   7.197  0.3709  0.1271  0.3677
 1906TIP3   OH227352   1.951   3.974   8.059  0.0025  0.4381 -0.0389
 1906TIP3    H127353   1.861   3.969   8.091  0.5424  0.0351  1.4389
 1906TIP3    H227354   1.978   3.883   8.046 -1.2764  0.5974 -4.8218
 1907TIP3   OH227355   6.961   3.534   1.522  0.2164 -0.1697 -0.2326
 1907TIP3    H127356   7.018   3.505   1.593 -0.2203  1.6220  0.9044
 1907TIP3    H227357   6.879   3.487   1.536  0.1364  0.1619  0.4558
 1908TIP3   OH227358   4.445   2.572   6.979  0.1242 -0.0358 -0.1765
 1908TIP3    H127359   4.482   2.538   6.897 -0.7293 -0.3129 -0.4500
 1908TIP3    H227360   4.457   2.667   6.972  1.0292 -0.1393 -0.1378
 1909TIP3   OH227361   1.271   3.982   6.239 -0.0845  0.0877  0.0578
 1909TIP3    H127362   1.339   4.030   6.286  1.0723  0.3448 -1.7952
 1909TIP3    H227363   1.189   4.021   6.269  0.7740  2.4582 -0.4895
 1910TIP3   OH227364   6.466   2.389   6.724 -0.6867  0.2667  0.0852
 1910TIP3    H127365   6.480   2.394   6.818 -1.6796 -0.1257  0.2619
 1910TIP3    H227366   6.390   2.445   6.708 -0.0083  1.0055 -0.6057
 1911TIP3   OH227367   1.326   7.014   6.853  0.4308 -0.7489  0.7074
 1911TIP3    H127368   1.338   7.051   6.941 -0.4972  0.0829  0.4898
 1911TIP3    H227369   1.246   6.963   6.860 -0.1136  0.0130  0.1280
 1912TIP3   OH227370   6.463   2.170   0.281 -0.3121  0.5314  0.3329
 1912TIP3    H127371   6.441   2.243   0.339  1.6649  2.4486 -1.2577
 1912TIP3    H227372   6.422   2.192   0.198  2.9817  1.5460 -1.1177
 1913TIP3   OH227373   0.342   5.124   5.903 -0.1084  0.2573  0.4725
 1913TIP3    H127374   0.273   5.167   5.854 -0.3825 -0.0099  0.6221
 1913TIP3    H227375   0.353   5.177   5.982  2.0445  2.1239 -0.9995
 1914TIP3   OH227376   3.929   6.462   6.433  0.5369 -0.1393 -0.2684
 1914TIP3    H127377   3.991   6.530   6.406 -0.4498  0.8992  0.0502
 1914TIP3    H227378   3.867   6.455   6.360 -1.6660  2.1113  1.2855
 1915TIP3   OH227379   1.434   2.492   7.532  0.5159  0.1986 -0.2206
 1915TIP3    H127380   1.359   2.434   7.542  0.9532 -0.3837 -0.3093
 1915TIP3    H227381   1.396   2.580   7.526 -0.0453  0.0869  1.5504
 1916TIP3   OH227382   4.137   6.109   2.350  0.1066 -0.4799  0.2370
 1916TIP3    H127383   4.148   6.016   2.369  0.3625 -1.0862 -2.6075
 1916TIP3    H227384   4.153   6.116   2.256 -0.4479  2.3636  0.3119
 1917TIP3   OH227385   2.322   0.953   0.456 -0.0777 -0.1363 -0.1562
 1917TIP3    H127386   2.371   0.871   0.459  0.3763  0.1348 -0.0320
 1917TIP3    H227387   2.384   1.017   0.422 -0.2856  0.2554  0.1936
 1918TIP3   OH227388   1.951   5.057   6.464 -0.1488  0.3388  0.2123
 1918TIP3    H127389   2.043   5.083   6.462 -0.1326  0.3280  0.8341
 1918TIP3    H227390   1.947   4.981   6.406 -0.3801  2.2554 -2.3649
 1919TIP3   OH227391   2.682   4.155   6.637 -0.0577 -0.3682 -0.7124
 1919TIP3    H127392   2.629   4.078   6.616 -0.7466  0.4276 -1.9435
 1919TIP3    H227393   2.657   4.220   6.571  0.1493  1.0758  0.6033
 1920TIP3   OH227394   4.211   1.461   6.825 -0.0330  0.4732 -0.0933
 1920TIP3    H127395   4.196   1.555   6.834 -0.1387  0.3144  1.4479
 1920TIP3    H227396   4.131   1.428   6.784 -0.2615  0.9486 -0.0391
 1921TIP3   OH227397   6.996   3.403   6.316 -0.2171  0.3435 -0.2043
 1921TIP3    H127398   7.023   3.390   6.407 -2.5887 -0.2074  0.4403
 1921TIP3    H227399   6.984   3.498   6.307 -1.6257  0.2387  0.5405
 1922TIP3   OH227400   5.205   1.731   6.901 -0.0678  0.2843  0.4696
 1922TIP3    H127401   5.270   1.714   6.969 -0.2600 -1.2196  0.3075
 1922TIP3    H227402   5.214   1.657   6.841 -1.8707  0.0970  0.4111
 1923TIP3   OH227403   3.198   5.879   0.781  0.1710 -0.1075 -0.6754
 1923TIP3    H127404   3.283   5.924   0.783  1.3728 -2.3107 -0.9856
 1923TIP3    H227405   3.175   5.865   0.873 -0.1078  0.9122 -0.5810
 1924TIP3   OH227406   5.438   4.195   6.324  0.4705  0.8818  0.5006
 1924TIP3    H127407   5.531   4.210   6.341  0.0609  3.4974  0.5684
 1924TIP3    H227408   5.398   4.282   6.329 -2.2358 -0.3884  1.9923
 1925TIP3   OH227409   3.529   6.518   7.243 -0.1412  0.0179  0.2295
 1925TIP3    H127410   3.436   6.493   7.237 -0.1191 -0.4798  1.7728
 1925TIP3    H227411   3.576   6.435   7.240  0.1504  0.1414  1.3442
 1926TIP3   OH227412   2.681   6.023   6.673  0.6940 -0.2030 -0.0390
 1926TIP3    H127413   2.678   6.052   6.764  1.1756 -0.4901  0.0701
 1926TIP3    H227414   2.758   6.067   6.637 -0.7816  1.7413 -0.9453
 1927TIP3   OH227415   6.406   3.471   0.530 -0.2990  0.5404 -0.1389
 1927TIP3    H127416   6.349   3.402   0.563  0.5478  0.5105  1.3099
 1927TIP3    H227417   6.356   3.552   0.543  0.6970  0.7389  2.9571
 1928TIP3   OH227418   3.016   2.827   6.441 -0.6561 -0.2966 -0.3084
 1928TIP3    H127419   2.984   2.759   6.500  1.3326 -2.4569 -1.6019
 1928TIP3    H227420   2.959   2.902   6.457 -0.6869 -1.0698  3.7295
 1929TIP3   OH227421   6.448   6.668   0.564  0.5050 -0.1018 -0.4569
 1929TIP3    H127422   6.468   6.619   0.484 -0.1818 -2.3535  0.7192
 1929TIP3    H227423   6.522   6.728   0.574  1.5510 -1.1455 -1.7433
 1930TIP3   OH227424   1.200   2.239   7.930 -0.1036  0.4639 -0.4183
 1930TIP3    H127425   1.183   2.283   7.846  0.4053 -0.8846 -1.2458
 1930TIP3    H227426   1.285   2.273   7.958  1.0247 -1.0794 -1.8200
 1931TIP3   OH227427   0.762   2.513   7.281  0.2769 -0.2046 -0.2705
 1931TIP3    H127428   0.788   2.450   7.213 -0.7389  0.3630 -1.2099
 1931TIP3    H227429   0.774   2.466   7.363  2.9290 -0.4256 -0.7303
 1932TIP3   OH227430   7.116   2.098   7.305 -0.0886  0.2164 -0.1341
 1932TIP3    H127431   7.122   2.111   7.400 -2.1048  2.7568 -0.3066
 1932TIP3    H227432   7.023   2.082   7.289 -0.0101  1.3621 -1.8432
 1933TIP3   OH227433   6.568   5.338   7.747 -0.2960  0.1571 -0.0449
 1933TIP3    H127434   6.662   5.344   7.731 -0.8857 -0.9870 -4.7995
 1933TIP3    H227435   6.559   5.264   7.808  1.8590  0.1301  0.2763
 1934TIP3   OH227436   1.540   3.762   5.490 -0.2267  0.5522 -0.2310
 1934TIP3    H127437   1.623   3.764   5.443  0.2727  0.5754  0.6604
 1934TIP3    H227438   1.543   3.837   5.548 -0.4492 -0.0160  0.5238
 1935TIP3   OH227439   0.954   5.844   7.636  0.0079  0.0232  0.3105
 1935TIP3    H127440   0.859   5.836   7.627  0.0431  0.5548 -0.6868
 1935TIP3    H227441   0.986   5.754   7.635 -0.3550 -0.1030 -1.0694
 1936TIP3   OH227442   7.109   6.525   0.202 -0.2300 -0.1969 -0.5140
 1936TIP3    H127443   7.143   6.574   0.126 -0.5767 -1.4496 -1.4976
 1936TIP3    H227444   7.019   6.505   0.179 -1.2614  1.8979  1.4953
 1937TIP3   OH227445   1.274   2.380   6.707 -0.2899  0.7630 -0.0946
 1937TIP3    H127446   1.290   2.460   6.658  1.2844 -0.1288 -1.1067
 1937TIP3    H227447   1.321   2.392   6.790  0.9352  0.4500 -0.7222
 1938TIP3   OH227448   6.573   3.538   5.945  0.3743  0.0364 -0.7823
 1938TIP3    H127449   6.540   3.568   5.861 -1.2375 -0.3623 -0.3013
 1938TIP3    H227450   6.611   3.452   5.926  1.4409  0.6312 -1.3916
 1939TIP3   OH227451   2.950   4.861   7.421  0.2100  0.4564 -0.3519
 1939TIP3    H127452   2.941   4.899   7.334  1.7246  2.9971  0.5312
 1939TIP3    H227453   2.924   4.770   7.411 -3.2353  1.6166 -2.6506
 1940TIP3   OH227454   2.369   7.131   0.087  0.1359 -0.3088  0.7749
 1940TIP3    H127455   2.449   7.101   0.045 -0.5827  0.3177 -1.1073
 1940TIP3    H227456   2.399   7.182   0.162  1.4879 -0.3530  0.2785
 1941TIP3   OH227457   1.783   2.526   6.638 -0.0381 -0.6609  0.4311
 1941TIP3    H127458   1.716   2.594   6.629 -1.0010 -1.4511  1.5002
 1941TIP3    H227459   1.848   2.565   6.697 -0.3069 -0.4609  0.5994
 1942TIP3   OH227460   6.637   6.392   0.877 -0.1446 -0.3562  0.5529
 1942TIP3    H127461   6.664   6.406   0.968 -0.6031 -1.0123  0.7927
 1942TIP3    H227462   6.541   6.395   0.880 -0.1407  0.5900 -0.0707
 1943TIP3   OH227463   1.975   3.965   6.490  0.3822  0.0077 -0.5359
 1943TIP3    H127464   1.941   4.020   6.560  2.6032  0.7342  0.0066
 1943TIP3    H227465   2.036   3.905   6.533 -0.2576 -1.3525 -1.4643
 1944TIP3   OH227466   1.394   5.150   7.959  0.7636 -0.0499 -0.6557
 1944TIP3    H127467   1.336   5.215   7.918 -0.4370 -0.4702  0.3589
 1944TIP3    H227468   1.451   5.121   7.887 -0.6435 -0.0295 -1.8198
 1945TIP3   OH227469   3.523   7.004   1.047  0.4393  0.5244  0.0047
 1945TIP3    H127470   3.481   7.088   1.065  0.1915  0.7039 -1.3962
 1945TIP3    H227471   3.587   6.994   1.117 -2.2728 -0.0002  2.5284
 1946TIP3   OH227472   1.580   0.219   0.677 -0.6264 -0.2262  0.8881
 1946TIP3    H127473   1.651   0.164   0.709  0.9882  2.4948  2.1639
 1946TIP3    H227474   1.524   0.233   0.753 -0.5016  0.6354  0.8319
 1947TIP3   OH227475   5.614   4.048   1.496 -0.2398 -0.0749 -0.2379
 1947TIP3    H127476   5.705   4.071   1.476 -0.2375 -0.6652 -0.9403
 1947TIP3    H227477   5.620   3.986   1.568 -0.0719 -0.2111 -0.3680
 1948TIP3   OH227478   5.939   4.934   1.098 -0.2525 -0.6028 -0.2491
 1948TIP3    H127479   5.930   5.020   1.057  1.6733  0.8292  2.1650
 1948TIP3    H227480   6.031   4.910   1.083 -0.2994 -1.3756  0.6958
 1949TIP3   OH227481   1.846   3.707   0.592  0.2691  0.1241 -0.2938
 1949TIP3    H127482   1.795   3.663   0.659  0.8194 -1.1208 -0.6689
 1949TIP3    H227483   1.897   3.774   0.639  1.3096 -1.3195  0.6587
 1950TIP3   OH227484   1.015   4.662   1.023 -0.2198 -0.4444 -0.4554
 1950TIP3    H127485   1.006   4.709   0.940  0.8608 -0.8660 -0.8117
 1950TIP3    H227486   0.951   4.590   1.017 -1.6034  0.7253 -0.0651
 1951TIP3   OH227487   3.179   4.869   6.738  0.0336 -0.2643 -0.3219
 1951TIP3    H127488   3.084   4.875   6.745  0.0948 -0.2336  0.5564
 1951TIP3    H227489   3.204   4.803   6.803  0.8722  1.8337  1.5705
 1952TIP3   OH227490   1.295   5.111   1.652 -0.5131 -0.2009  0.4758
 1952TIP3    H127491   1.251   5.167   1.717  1.2287  0.8095  0.8070
 1952TIP3    H227492   1.379   5.090   1.692  0.5892  0.4655 -1.4556
 1953TIP3   OH227493   1.020   3.278   1.576 -0.2880  0.3293 -0.1106
 1953TIP3    H127494   1.078   3.269   1.500 -1.3692  2.8803 -1.3165
 1953TIP3    H227495   0.986   3.368   1.569 -0.5951  0.5415  3.2780
 1954TIP3   OH227496   1.575   4.095   7.205 -0.1059 -1.3922 -0.4298
 1954TIP3    H127497   1.538   4.097   7.293 -0.2444 -1.3972 -0.4893
 1954TIP3    H227498   1.618   4.180   7.195  0.2849 -1.5585 -0.1929
 1955TIP3   OH227499   6.616   4.978   7.935  0.3302  0.6061  0.0629
 1955TIP3    H127500   6.537   4.975   7.881  1.1734  1.9752 -1.2828
 1955TIP3    H227501   6.587   5.017   8.018 -0.9629 -1.4612  0.6133
 1956TIP3   OH227502   5.116   5.553   1.041 -0.3737  0.3719  0.2447
 1956TIP3    H127503   5.042   5.504   1.004 -0.0221 -0.7693  1.0147
 1956TIP3    H227504   5.135   5.621   0.977  0.0785 -1.4333 -1.5764
 1957TIP3   OH227505   0.744   3.304   0.544  0.0159  0.0892  0.3201
 1957TIP3    H127506   0.815   3.256   0.501 -1.3149 -0.7388 -1.0224
 1957TIP3    H227507   0.665   3.269   0.504 -1.0172  3.0569 -0.3425
 1958TIP3   OH227508   3.921   3.490   6.482 -0.4712  0.0269 -0.3963
 1958TIP3    H127509   3.844   3.483   6.539  0.6252 -0.0922  1.0947
 1958TIP3    H227510   3.983   3.544   6.532  1.4053 -2.0042 -0.4670
 1959TIP3   OH227511   3.469   4.292   7.499  0.0339 -0.5661 -0.3198
 1959TIP3    H127512   3.485   4.384   7.479  1.5622 -0.2317  2.2735
 1959TIP3    H227513   3.385   4.291   7.546 -0.4810 -0.6394 -1.2237
 1960TIP3   OH227514   5.274   3.269   1.258  0.4640  0.5636  0.5335
 1960TIP3    H127515   5.365   3.296   1.244  0.4911  1.5765  2.4726
 1960TIP3    H227516   5.221   3.345   1.234  0.0442 -0.3709 -1.5801
 1961TIP3   OH227517   7.067   3.841   7.412  0.0157  1.0060  0.2262
 1961TIP3    H127518   7.050   3.906   7.343 -0.6670  1.3363  0.7038
 1961TIP3    H227519   7.014   3.766   7.387  0.0871  0.9728  0.1732
 1962TIP3   OH227520   5.323   5.847   1.224  0.0775 -0.4854  0.3891
 1962TIP3    H127521   5.398   5.900   1.197 -0.7978 -0.1963 -1.5107
 1962TIP3    H227522   5.343   5.758   1.194 -0.7017 -0.2455 -0.8912
 1963TIP3   OH227523   2.560   6.381   6.357 -1.2825 -0.4995 -0.5698
 1963TIP3    H127524   2.635   6.321   6.359 -0.9353 -0.0554  1.9146
 1963TIP3    H227525   2.566   6.424   6.271  0.5310 -1.4527 -0.9555
 1964TIP3   OH227526   5.453   2.399   7.752  0.0135  0.0580  0.2260
 1964TIP3    H127527   5.405   2.471   7.794 -1.7505 -1.5135  0.9938
 1964TIP3    H227528   5.525   2.381   7.812 -0.6769 -0.0995  1.0226
 1965TIP3   OH227529   5.878   1.467   0.379  0.1600 -0.5991  0.2600
 1965TIP3    H127530   5.936   1.520   0.324  0.0601 -2.0659 -1.3301
 1965TIP3    H227531   5.932   1.440   0.453  0.4313  1.0396  0.6875
 1966TIP3   OH227532   6.616   0.939   0.732 -0.3191  0.1000 -0.4893
 1966TIP3    H127533   6.700   0.975   0.759 -1.7587  1.8347  1.8309
 1966TIP3    H227534   6.610   0.855   0.777  1.7936 -1.8958 -3.6923
 1967TIP3   OH227535   4.171   4.753   6.313  0.0453  0.1392  0.5068
 1967TIP3    H127536   4.145   4.679   6.369 -0.6496 -0.6861 -0.8870
 1967TIP3    H227537   4.109   4.822   6.336 -0.0076 -0.0705  1.0203
 1968TIP3   OH227538   3.627   1.377   1.179 -0.1959 -0.0095 -0.9388
 1968TIP3    H127539   3.640   1.470   1.162  3.3239  0.0376  1.5527
 1968TIP3    H227540   3.684   1.333   1.116 -0.7967 -0.4357 -1.1865
 1969TIP3   OH227541   3.664   5.669   7.193 -0.3424  0.1633  0.0857
 1969TIP3    H127542   3.692   5.756   7.224 -0.4950  0.2730 -0.0816
 1969TIP3    H227543   3.572   5.663   7.217 -0.3738  0.1131 -0.0429
 1970TIP3   OH227544   3.857   5.151   7.014 -0.0026 -0.1096 -0.3931
 1970TIP3    H127545   3.907   5.200   6.949  1.2413 -1.1678 -0.2652
 1970TIP3    H227546   3.907   5.070   7.026 -1.2856 -0.7983  0.4058
 1971TIP3   OH227547   2.366   5.489   6.344 -0.2479  0.2823  0.0709
 1971TIP3    H127548   2.324   5.431   6.281  0.2700  0.1862 -0.1929
 1971TIP3    H227549   2.314   5.480   6.424 -0.5165 -0.1014 -0.1454
 1972TIP3   OH227550   4.448   2.909   6.157  0.2441  0.7242  0.0601
 1972TIP3    H127551   4.536   2.872   6.147  0.2531  0.7927 -0.1058
 1972TIP3    H227552   4.447   2.985   6.099 -0.1672  0.2958 -0.4991
 1973TIP3   OH227553   3.034   4.193   7.652 -0.2978 -0.4594 -0.3983
 1973TIP3    H127554   2.969   4.171   7.719 -0.8111  1.9142 -0.0927
 1973TIP3    H227555   2.996   4.162   7.570 -1.0938 -0.5128 -0.0101
 1974TIP3   OH227556   3.695   3.268   1.863  0.0395  0.0870  0.7519
 1974TIP3    H127557   3.673   3.175   1.866  0.6717 -0.0371  1.8247
 1974TIP3    H227558   3.751   3.282   1.939  0.1420  1.3002  0.4672
 1975TIP3   OH227559   3.811   4.128   6.090 -0.0943  0.3722  0.1014
 1975TIP3    H127560   3.769   4.068   6.152 -1.4992  0.4580 -0.7538
 1975TIP3    H227561   3.894   4.152   6.133  0.1330 -1.5477  0.8065
 1976TIP3   OH227562   4.580   5.562   6.844  0.2832 -0.1088  0.0292
 1976TIP3    H127563   4.507   5.611   6.880 -0.0741 -1.3730  1.0580
 1976TIP3    H227564   4.641   5.629   6.813 -0.5872  0.9588  0.6008
 1977TIP3   OH227565   0.364   2.715   0.738 -0.9153  0.7624 -0.1282
 1977TIP3    H127566   0.418   2.791   0.715  0.1784 -0.8388 -3.0731
 1977TIP3    H227567   0.393   2.691   0.826 -0.8808  3.3976  0.6229
 1978TIP3   OH227568   3.235   6.619   6.975 -0.5791  0.2824 -0.4040
 1978TIP3    H127569   3.142   6.641   6.965 -0.5885  0.6795  0.4848
 1978TIP3    H227570   3.279   6.704   6.979 -0.1599  0.0918 -0.9433
 1979TIP3   OH227571   3.940   3.210   5.867 -0.2949  0.2387 -0.6524
 1979TIP3    H127572   3.992   3.274   5.819  0.8769  0.4742  0.8973
 1979TIP3    H227573   3.964   3.126   5.829 -0.3268  0.5317 -1.3267
 1980TIP3   OH227574   1.413   4.822   7.872  0.1115 -0.2542  0.0109
 1980TIP3    H127575   1.354   4.780   7.809 -0.9863  1.1099  0.0950
 1980TIP3    H227576   1.451   4.894   7.823  1.5061 -0.9538  0.0548
 1981TIP3   OH227577   4.738   4.885   8.099 -0.2640 -0.0181  0.1026
 1981TIP3    H127578   4.815   4.917   8.145  1.0104  0.0773 -2.0418
 1981TIP3    H227579   4.712   4.957   8.042 -2.5953  0.3439  1.5649
 1982TIP3   OH227580   2.311   2.433   1.082  0.6573  0.7018 -0.7939
 1982TIP3    H127581   2.279   2.361   1.029  0.4777  1.5525 -1.8585
 1982TIP3    H227582   2.292   2.512   1.031 -1.4365  1.7176  1.4383
 1983TIP3   OH227583   2.851   4.439   0.945 -0.4522  0.2850  0.0103
 1983TIP3    H127584   2.775   4.469   0.993 -0.5445  1.0503 -0.6149
 1983TIP3    H227585   2.833   4.347   0.926 -1.7106  0.7562 -1.0992
 1984TIP3   OH227586   1.946   3.719   7.206 -0.2514  0.1521  0.2899
 1984TIP3    H127587   1.856   3.688   7.199 -0.5685  0.7581  1.5204
 1984TIP3    H227588   1.938   3.815   7.206  0.3364  0.2028  1.0551
 1985TIP3   OH227589   2.135   3.176   0.877 -0.9045 -0.1460  0.2905
 1985TIP3    H127590   2.047   3.199   0.846 -1.1546 -1.4074  0.0323
 1985TIP3    H227591   2.182   3.150   0.798  0.4596  2.7950  0.0750
 1986TIP3   OH227592   2.435   0.920   6.769  0.2592  0.2746  0.4712
 1986TIP3    H127593   2.411   0.842   6.818 -1.1297 -1.5898 -2.9994
 1986TIP3    H227594   2.528   0.934   6.789  0.4148 -2.0009  1.4732
 1987TIP3   OH227595   6.170   4.111   7.307  0.4514 -0.3328 -0.2844
 1987TIP3    H127596   6.194   4.079   7.394  1.9117  0.2029 -0.4798
 1987TIP3    H227597   6.238   4.077   7.249  0.3870  0.6519 -0.9535
 1988TIP3   OH227598   1.718   6.413   0.525 -0.2130 -0.1130 -0.0688
 1988TIP3    H127599   1.791   6.386   0.581 -0.3868 -1.8143 -0.6212
 1988TIP3    H227600   1.684   6.331   0.489  0.0173  0.9691 -2.8204
 1989TIP3   OH227601   6.242   3.387   1.527 -0.3499  0.0597  0.1793
 1989TIP3    H127602   6.332   3.393   1.496 -0.3735  1.1925  0.3174
 1989TIP3    H227603   6.249   3.373   1.622 -0.3275  0.2953  0.2109
 1990TIP3   OH227604   4.714   5.706   7.167  0.4081  0.0751  0.1313
 1990TIP3    H127605   4.798   5.748   7.188 -0.4159  0.2344  3.4589
 1990TIP3    H227606   4.654   5.778   7.151  0.5596 -0.0108 -0.8542
 1991TIP3   OH227607   6.547   3.206   0.309 -0.2725  0.0233 -0.3600
 1991TIP3    H127608   6.549   3.180   0.217  0.5399 -1.9516  0.1707
 1991TIP3    H227609   6.457   3.190   0.336 -0.0609 -1.1769 -0.3447
 1992TIP3   OH227610   1.143   6.712   0.844  0.4120  0.7598 -0.0716
 1992TIP3    H127611   1.047   6.711   0.833  0.4838  1.5559 -0.8376
 1992TIP3    H227612   1.176   6.745   0.760  1.5332 -2.3400 -0.8978
 1993TIP3   OH227613   1.410   2.628   6.610 -0.0764  0.2904 -0.2093
 1993TIP3    H127614   1.410   2.721   6.588 -0.3401 -0.0934 -1.9351
 1993TIP3    H227615   1.480   2.618   6.674 -0.6280  1.8165  0.6458
 1994TIP3   OH227616   5.233   7.084   6.249 -0.5767 -0.4832 -0.3989
 1994TIP3    H127617   5.325   7.092   6.224 -0.5919 -1.1856 -0.6943
 1994TIP3    H227618   5.184   7.112   6.171 -0.6132 -0.6853 -0.4493
 1995TIP3   OH227619   2.927   6.315   1.525  0.0552 -0.2747 -0.8387
 1995TIP3    H127620   2.981   6.237   1.542  0.2537 -0.0710 -0.5430
 1995TIP3    H227621   2.946   6.336   1.434  0.5607 -0.1392 -0.7048
 1996TIP3   OH227622   3.885   2.134   6.983 -0.6526  0.2813  0.4398
 1996TIP3    H127623   3.831   2.139   6.904  0.3770 -0.8493 -0.3429
 1996TIP3    H227624   3.948   2.206   6.975 -0.7528  0.3648  0.3970
 1997TIP3   OH227625   3.388   0.129   7.872  0.4353 -0.2182 -0.2940
 1997TIP3    H127626   3.316   0.083   7.828  0.4125  0.9587 -1.4807
 1997TIP3    H227627   3.452   0.146   7.803  0.3194  1.7908  0.0836
 1998TIP3   OH227628   3.693   3.348   7.203 -0.5370 -0.1295 -0.3329
 1998TIP3    H127629   3.750   3.365   7.127 -0.3226 -1.2369 -0.4363
 1998TIP3    H227630   3.725   3.265   7.238 -1.6759 -0.4384 -0.0020
 1999TIP3   OH227631   5.036   4.021   7.842  0.0403  0.4535  0.5509
 1999TIP3    H127632   5.075   3.952   7.787  0.3825 -0.5290  2.0124
 1999TIP3    H227633   4.942   4.008   7.833  0.1027 -0.5950  1.2803
 2000TIP3   OH227634   2.917   5.941   6.360  0.2751  0.5056 -0.0278
 2000TIP3    H127635   2.961   5.931   6.444  1.2997  1.4754 -0.4378
 2000TIP3    H227636   2.981   5.985   6.304 -1.5908  2.9564 -0.3181
 2001TIP3   OH227637   5.052   2.065   6.358  0.0081  0.2310 -0.6256
 2001TIP3    H127638   4.975   2.055   6.303  0.7433 -1.0250 -1.4471
 2001TIP3    H227639   5.113   2.117   6.305  0.9448 -1.4798 -1.2626
 2002TIP3   OH227640   1.050   1.239   1.968 -0.0518  0.1200 -0.2742
 2002TIP3    H127641   1.138   1.276   1.974  0.4688 -1.2638  1.0037
 2002TIP3    H227642   1.044   1.205   1.879  0.4718  0.8034 -0.5707
 2003TIP3   OH227643   1.207   5.959   0.856  0.0491  0.0035 -0.7503
 2003TIP3    H127644   1.283   6.003   0.817  0.2952  1.1618  0.9887
 2003TIP3    H227645   1.244   5.909   0.929 -0.8127  0.3013 -0.1112
 2004TIP3   OH227646   2.125   4.512   5.898  0.0865  0.0450  0.4243
 2004TIP3    H127647   2.162   4.587   5.945 -1.2213  0.9378  0.0513
 2004TIP3    H227648   2.110   4.544   5.809 -2.7002  0.1021  0.8683
 2005TIP3   OH227649   5.578   3.526   7.028 -0.3406 -0.4872  0.1551
 2005TIP3    H127650   5.542   3.546   6.941  0.8289  0.4983 -0.1204
 2005TIP3    H227651   5.673   3.531   7.016 -0.1745  0.2620  1.6206
 2006TIP3   OH227652   5.275   0.732   7.205  0.3429  0.4386 -0.1304
 2006TIP3    H127653   5.234   0.697   7.284  1.1845  0.7635  0.4607
 2006TIP3    H227654   5.206   0.782   7.162 -0.6185 -1.2397 -0.5405
 2007TIP3   OH227655   1.821   4.580   7.089 -0.3239  0.0565  0.2288
 2007TIP3    H127656   1.779   4.648   7.037  0.1355  0.7166  0.6982
 2007TIP3    H227657   1.915   4.594   7.076 -0.1889  0.4391  1.4565
 2008TIP3   OH227658   4.194   5.073   7.285 -0.1750  0.2895  0.6257
 2008TIP3    H127659   4.261   5.005   7.283  2.3866  2.7944 -1.4333
 2008TIP3    H227660   4.160   5.077   7.196 -0.8510  1.2355  0.9160
 2009TIP3   OH227661   5.100   2.394   0.636  0.4896  0.5479  0.3829
 2009TIP3    H127662   5.051   2.314   0.615 -1.0698  1.4952  0.2929
 2009TIP3    H227663   5.187   2.363   0.659 -0.7718 -1.4377  2.7776
 2010TIP3   OH227664   5.282   6.145   1.329  0.5783  0.1688 -0.7065
 2010TIP3    H127665   5.362   6.103   1.361  0.2133  0.6231  0.8412
 2010TIP3    H227666   5.312   6.205   1.260  1.4953 -0.1032 -0.5487
 2011TIP3   OH227667   5.414   6.760   1.469  0.6234  0.0314 -0.4547
 2011TIP3    H127668   5.365   6.748   1.388 -0.7204  0.1014  0.3334
 2011TIP3    H227669   5.351   6.738   1.539  1.0279  2.2909  0.6560
 2012TIP3   OH227670   1.386   4.342   5.883 -0.3101  0.0952  0.2431
 2012TIP3    H127671   1.402   4.250   5.864 -0.1604 -0.3695  2.4295
 2012TIP3    H227672   1.322   4.370   5.818  0.6530 -1.1818 -1.2706
 2013TIP3   OH227673   4.178   3.324   7.401  0.0397  0.5679 -0.2558
 2013TIP3    H127674   4.141   3.318   7.489  1.3711  0.2852  0.2955
 2013TIP3    H227675   4.186   3.418   7.385 -1.8968  0.6738 -0.8239
 2014TIP3   OH227676   0.833   5.396   0.390  0.1417  0.4931 -0.5463
 2014TIP3    H127677   0.860   5.478   0.432  0.5599 -1.2569  2.7275
 2014TIP3    H227678   0.915   5.349   0.373 -0.2594 -0.5388  0.3284
 2015TIP3   OH227679   6.188   4.480   0.703  0.0364 -0.1237  0.2340
 2015TIP3    H127680   6.245   4.416   0.746 -1.9858 -0.0286  3.1958
 2015TIP3    H227681   6.197   4.559   0.757 -1.1857  0.5850 -0.5948
 2016TIP3   OH227682   4.556   4.014   7.614  0.7461 -0.0264  0.1212
 2016TIP3    H127683   4.585   4.003   7.524  2.1076  1.9361  0.3039
 2016TIP3    H227684   4.624   4.066   7.656  0.0977 -0.8605  2.2768
 2017TIP3   OH227685   4.283   4.524   0.944 -0.4144  0.1691 -0.6600
 2017TIP3    H127686   4.206   4.565   0.982  0.9399  2.0965  0.0855
 2017TIP3    H227687   4.336   4.497   1.019  1.0878  1.7031 -1.1412
 2018TIP3   OH227688   3.597   3.286   6.310 -0.0395 -0.2454 -0.5257
 2018TIP3    H127689   3.576   3.366   6.359  1.5203 -0.7580  1.0261
 2018TIP3    H227690   3.519   3.231   6.320  0.0305 -0.1071  0.9073
 2019TIP3   OH227691   2.249   2.179   6.695 -0.1604 -0.0907  0.2594
 2019TIP3    H127692   2.289   2.166   6.609  0.0745 -3.0928  0.7848
 2019TIP3    H227693   2.159   2.147   6.685 -0.1342 -0.4563  1.1209
 2020TIP3   OH227694   3.681   0.043   7.061 -0.1444 -0.5342 -0.1504
 2020TIP3    H127695   3.622  -0.032   7.059 -1.1961  0.2476  0.7091
 2020TIP3    H227696   3.648   0.101   6.992 -0.8981  0.2595  0.8519
 2021TIP3   OH227697   2.715   2.535   1.137  0.2185  0.5475 -0.4367
 2021TIP3    H127698   2.808   2.556   1.134  0.1348  0.7428 -2.1887
 2021TIP3    H227699   2.699   2.486   1.056 -1.5615  2.0280 -1.0205
 2022TIP3   OH227700   5.911   3.164   6.361  0.2904  0.1658  0.0999
 2022TIP3    H127701   5.880   3.119   6.439  2.0833 -1.3124 -0.0142
 2022TIP3    H227702   5.839   3.155   6.299 -0.2629 -0.6096  0.8341
 2023TIP3   OH227703   3.332   4.335   1.626 -0.2577  0.3678 -0.5977
 2023TIP3    H127704   3.360   4.250   1.661  1.5620 -0.0069 -2.8163
 2023TIP3    H227705   3.342   4.326   1.531  1.3626  3.5013 -0.7959
 2024TIP3   OH227706   1.629   6.822   7.476  0.7195 -0.0842  0.3062
 2024TIP3    H127707   1.596   6.770   7.550  1.0956 -0.5829  0.1244
 2024TIP3    H227708   1.640   6.758   7.405  0.4358  0.3818 -0.1549
 2025TIP3   OH227709   4.975   5.777   1.191 -0.0177  0.6105  0.1250
 2025TIP3    H127710   5.029   5.699   1.179  1.3034  1.5741 -0.4286
 2025TIP3    H227711   4.891   5.755   1.153  0.8025 -0.0559 -1.3345
 2026TIP3   OH227712   2.260   5.102   7.876  0.0853 -0.0111  0.1611
 2026TIP3    H127713   2.216   5.065   7.952 -0.6850  0.6165  0.0218
 2026TIP3    H227714   2.316   5.031   7.843 -2.5575 -1.5776 -1.0755
 2027TIP3   OH227715   6.015   2.792   6.270  0.6495  0.2776  0.1032
 2027TIP3    H127716   6.002   2.711   6.320 -2.7635  0.2126 -0.7843
 2027TIP3    H227717   6.109   2.795   6.254  0.9259 -3.1987  0.6578
 2028TIP3   OH227718   1.710   0.191   6.020 -0.3463  0.4994  0.2768
 2028TIP3    H127719   1.669   0.277   6.007 -0.1832  0.5650  0.1878
 2028TIP3    H227720   1.800   0.212   6.044 -0.0872  0.3421 -0.5347
 2029TIP3   OH227721   1.604   7.112   6.436 -0.7294  0.2330  0.2457
 2029TIP3    H127722   1.616   7.110   6.341  1.2432 -1.5919  0.5024
 2029TIP3    H227723   1.509   7.124   6.448 -1.1955 -1.0608 -1.9630
 2030TIP3   OH227724   4.294   5.135   1.762  0.6869 -0.6134  0.4822
 2030TIP3    H127725   4.347   5.207   1.727 -0.2130  0.8269  1.9969
 2030TIP3    H227726   4.346   5.101   1.835 -0.4033  0.8063  1.9751
 2031TIP3   OH227727   2.796   3.012   7.310  0.3608 -0.1301  0.4609
 2031TIP3    H127728   2.838   2.965   7.239 -1.4189  0.5565 -1.0985
 2031TIP3    H227729   2.709   2.972   7.317 -0.1220  0.9921  1.0523
 2032TIP3   OH227730   6.388   1.903   0.446  0.4105 -0.0901 -1.2064
 2032TIP3    H127731   6.384   1.853   0.528 -0.3773 -0.1958 -1.3018
 2032TIP3    H227732   6.334   1.980   0.463  0.3979 -0.0217 -1.5663
 2033TIP3   OH227733   3.353   7.115   6.125  0.2093 -0.7852 -0.2064
 2033TIP3    H127734   3.406   7.136   6.202  1.1695 -0.4484 -0.9549
 2033TIP3    H227735   3.331   7.022   6.135 -1.8340 -0.1346  1.7772
 2034TIP3   OH227736   3.143   3.497   6.881 -0.2291  0.0957  0.6901
 2034TIP3    H127737   3.108   3.558   6.815 -0.3037  0.0866  0.7203
 2034TIP3    H227738   3.071   3.486   6.943 -0.3332 -0.2854  0.5040
 2035TIP3   OH227739   4.810   6.343   1.410  0.0745 -0.0574  0.5169
 2035TIP3    H127740   4.717   6.327   1.425  0.8769 -1.0457  5.5175
 2035TIP3    H227741   4.820   6.438   1.419 -0.4647  0.0980 -0.4439
 2036TIP3   OH227742   1.623   1.262   7.362  0.0151  0.5504  0.2033
 2036TIP3    H127743   1.669   1.312   7.430  1.2829 -0.0543 -0.1901
 2036TIP3    H227744   1.561   1.208   7.410  0.7097  0.3301  0.8772
 2037TIP3   OH227745   0.485   2.061   0.303 -0.0767  0.1770  0.2995
 2037TIP3    H127746   0.401   2.022   0.327 -0.2623 -1.7064 -3.1125
 2037TIP3    H227747   0.549   1.991   0.316  0.5291  0.6909  0.1002
 2038TIP3   OH227748   3.380   1.407   6.404  0.4743  0.3072 -0.2074
 2038TIP3    H127749   3.444   1.457   6.456  1.9374 -3.2751  1.5673
 2038TIP3    H227750   3.431   1.372   6.331  0.3867 -1.8541  0.7403
 2039TIP3   OH227751   3.168   0.424   7.619 -0.3135  0.5819 -0.3859
 2039TIP3    H127752   3.213   0.341   7.634 -1.9286 -0.2678 -0.1382
 2039TIP3    H227753   3.237   0.490   7.623  1.0744 -0.8093 -1.2493
 2040TIP3   OH227754   6.627   5.229   7.068  0.0110 -0.5011  0.2295
 2040TIP3    H127755   6.543   5.214   7.025  0.8164 -1.4374 -1.0638
 2040TIP3    H227756   6.686   5.166   7.028  1.8945  1.6647 -0.4908
 2041TIP3   OH227757   4.542   6.594   0.434 -0.1985  0.2446 -0.3227
 2041TIP3    H127758   4.612   6.622   0.492 -0.9424  1.8350 -0.1757
 2041TIP3    H227759   4.571   6.621   0.347  1.3166 -2.9053 -0.8410
 2042TIP3   OH227760   2.495   3.741   6.763 -0.1229  0.3922  0.3180
 2042TIP3    H127761   2.569   3.713   6.817  0.0439 -2.5398 -1.2960
 2042TIP3    H227762   2.503   3.836   6.758  3.5709  0.1514  0.2329
 2043TIP3   OH227763   5.486   3.795   7.132  0.0969  0.1795 -0.0440
 2043TIP3    H127764   5.463   3.760   7.046 -0.7938 -1.2244  0.7624
 2043TIP3    H227765   5.581   3.808   7.127  0.3954 -2.0001 -0.4768
 2044TIP3   OH227766   2.431   2.594   7.255 -0.3573 -0.1674  0.2101
 2044TIP3    H127767   2.474   2.626   7.176 -1.6604  0.0598 -0.4196
 2044TIP3    H227768   2.470   2.508   7.270  0.5444  0.1720 -0.1590
 2045TIP3   OH227769   4.277   6.670   6.842 -0.4348 -0.4932 -0.4429
 2045TIP3    H127770   4.260   6.722   6.764 -1.6047 -0.9395 -0.5024
 2045TIP3    H227771   4.327   6.595   6.811  1.5571  0.7367 -0.3049
 2046TIP3   OH227772   4.220   2.921   7.083 -0.7413 -0.1181 -0.4748
 2046TIP3    H127773   4.171   2.839   7.088  0.3473 -0.7945 -0.8658
 2046TIP3    H227774   4.245   2.940   7.173 -0.2803 -0.6439 -0.4952
 2047TIP3   OH227775   0.662   4.609   6.419  0.1499  0.3239  0.3672
 2047TIP3    H127776   0.655   4.525   6.463  0.0501 -0.8887 -1.8658
 2047TIP3    H227777   0.572   4.640   6.411  0.0277 -0.1960 -0.3304
 2048TIP3   OH227778   0.730   3.268   6.574  0.4432 -0.7792 -0.0315
 2048TIP3    H127779   0.643   3.303   6.593  0.9139 -1.3453  3.4729
 2048TIP3    H227780   0.715   3.198   6.511 -1.4551  0.0916 -0.5674
 2049TIP3   OH227781   2.618   3.889   0.729  0.0930  0.0977 -0.0042
 2049TIP3    H127782   2.544   3.850   0.775  0.5235 -0.9096 -0.1482
 2049TIP3    H227783   2.580   3.924   0.648 -0.0297 -1.6258 -0.7250
 2050TIP3   OH227784   2.477   5.952   2.067 -0.3435  0.6792  0.0239
 2050TIP3    H127785   2.567   5.953   2.101 -0.8003 -0.0172  1.3000
 2050TIP3    H227786   2.480   6.005   1.987  1.2459  0.4736 -0.0597
 2051TIP3   OH227787   5.161   0.483   7.050  0.1128 -0.0573  0.3102
 2051TIP3    H127788   5.143   0.571   7.018  1.2873  0.7309  1.7905
 2051TIP3    H227789   5.097   0.469   7.121 -1.8685 -1.4525 -1.6539
 2052TIP3   OH227790   1.670   4.637   6.642 -0.2667 -0.4049  0.0179
 2052TIP3    H127791   1.652   4.731   6.652 -3.4131 -0.9041 -0.4381
 2052TIP3    H227792   1.728   4.631   6.567 -0.4226  1.1535 -0.2402
 2053TIP3   OH227793   0.002   2.654   0.752 -0.5552  0.3701  0.4212
 2053TIP3    H127794  -0.093   2.665   0.759 -0.6013 -0.6484  1.5433
 2053TIP3    H227795   0.039   2.721   0.809 -0.6342 -0.0701  0.9913
 2054TIP3   OH227796   0.706   0.117   7.200 -0.5876  0.6167  0.3062
 2054TIP3    H127797   0.712   0.037   7.147 -0.3532  0.0442  1.1858
 2054TIP3    H227798   0.624   0.108   7.248  0.2514  0.1045  1.6706
 2055TIP3   OH227799   2.648   5.566   1.112 -0.2891 -0.6233 -0.0287
 2055TIP3    H127800   2.644   5.648   1.062  1.5787 -0.9253 -0.6911
 2055TIP3    H227801   2.737   5.562   1.145 -1.5706 -0.2874  3.6747
 2056TIP3   OH227802   4.080   2.514   1.127  0.0547  0.2431 -0.1493
 2056TIP3    H127803   3.992   2.480   1.144  0.7375 -1.7552 -0.4739
 2056TIP3    H227804   4.095   2.499   1.034  1.9010 -2.3238  0.5112
 2057TIP3   OH227805   3.879   5.682   7.565  0.1166  0.1543 -0.2341
 2057TIP3    H127806   3.886   5.776   7.552 -0.6539  0.3035  0.4156
 2057TIP3    H227807   3.867   5.672   7.660  0.3946 -0.6076 -0.2746
 2058TIP3   OH227808   1.132   1.305   0.283  0.4731 -0.3370 -0.7226
 2058TIP3    H127809   1.049   1.266   0.311 -0.5127  2.1531 -0.0165
 2058TIP3    H227810   1.146   1.271   0.194 -0.8895 -1.4164 -0.5371
 2059TIP3   OH227811   2.391   4.651   5.721 -0.4224 -0.5050 -0.0687
 2059TIP3    H127812   2.458   4.717   5.700 -1.1621  0.0294 -0.7457
 2059TIP3    H227813   2.424   4.610   5.802 -0.1136  0.9085  0.5532
 2060TIP3   OH227814   3.824   4.861   5.891 -0.2259 -0.5430 -0.4891
 2060TIP3    H127815   3.897   4.844   5.950 -0.8055 -1.9106 -0.1489
 2060TIP3    H227816   3.747   4.835   5.941 -0.9927  1.2878 -0.6884
 2061TIP3   OH227817   4.076   1.947   6.969 -0.5750 -0.5167 -0.4002
 2061TIP3    H127818   3.999   2.001   6.948 -0.9739 -1.4996 -1.5067
 2061TIP3    H227819   4.150   1.999   6.937 -0.9124 -0.3567 -0.9270
 2062TIP3   OH227820   1.555   5.288   1.733  0.2044  0.3058  0.0451
 2062TIP3    H127821   1.561   5.193   1.743  1.8421  0.2167 -1.5392
 2062TIP3    H227822   1.625   5.323   1.788  0.2104  0.5464 -0.1112
 2063TIP3   OH227823   1.724   3.438   6.670 -0.0366  0.4109  0.1466
 2063TIP3    H127824   1.802   3.439   6.725 -0.1328 -2.0555  0.3960
 2063TIP3    H227825   1.724   3.523   6.626  2.2049  0.8464  0.9371
 2064TIP3   OH227826   0.696   5.518   7.584  0.7550  0.1584  0.3515
 2064TIP3    H127827   0.749   5.441   7.603 -1.1329 -1.2315  0.1269
 2064TIP3    H227828   0.651   5.497   7.502 -0.7038  0.9657  0.9174
 2065TIP3   OH227829   4.237   6.739   1.190  0.5052 -0.0762 -0.6056
 2065TIP3    H127830   4.195   6.820   1.220  1.8014  0.0039  1.0533
 2065TIP3    H227831   4.323   6.767   1.158  2.4067 -1.1627  3.2524
 2066TIP3   OH227832   4.227   5.409   6.874 -0.4006  0.3505  0.2112
 2066TIP3    H127833   4.278   5.346   6.823 -1.9718  0.7105 -1.8698
 2066TIP3    H227834   4.267   5.494   6.854 -0.4865  0.3933  0.2189
 2067TIP3   OH227835   4.980   0.918   6.486 -0.4331  0.1944  0.6008
 2067TIP3    H127836   4.907   0.865   6.453 -0.5625  0.1730  0.9263
 2067TIP3    H227837   5.058   0.864   6.468 -0.5612 -0.0847  0.8918
 2068TIP3   OH227838   5.894   2.050   7.539 -0.1229 -0.4544  0.2465
 2068TIP3    H127839   5.829   2.045   7.609  1.3203 -1.7029  1.5229
 2068TIP3    H227840   5.976   2.025   7.580  1.1675  0.9635 -1.3875
 2069TIP3   OH227841   4.388   5.250   7.946 -0.1614 -0.0866  0.2089
 2069TIP3    H127842   4.415   5.328   7.899 -0.7398 -0.0594 -0.0798
 2069TIP3    H227843   4.355   5.283   8.030  0.1807 -0.0732  0.3379
 2070TIP3   OH227844   0.677   5.746   7.104 -0.3586  0.3128  0.8145
 2070TIP3    H127845   0.725   5.781   7.178  2.0122 -0.0847 -0.5060
 2070TIP3    H227846   0.705   5.655   7.096 -1.1155  0.1412 -0.1454
 2071TIP3   OH227847   6.944   3.816   0.326 -0.1321  0.5678  0.1000
 2071TIP3    H127848   6.960   3.788   0.236 -0.9556 -0.8859  0.3945
 2071TIP3    H227849   6.877   3.756   0.358  0.1395  1.0920  1.6781
 2072TIP3   OH227850   3.717   0.019   0.936 -0.5070 -0.6206  0.1678
 2072TIP3    H127851   3.697  -0.026   0.854 -0.9726 -0.2649  0.0859
 2072TIP3    H227852   3.644  -0.003   0.994 -0.2139 -0.8126  0.4628
 2073TIP3   OH227853   4.301   3.639   7.575 -0.2985  0.4509 -0.6032
 2073TIP3    H127854   4.326   3.722   7.534  0.7684  1.1613  1.4030
 2073TIP3    H227855   4.206   3.635   7.566 -0.3756  1.9962 -0.5483
 2074TIP3   OH227856   4.567   4.014   1.219  0.2057 -0.1424  0.1414
 2074TIP3    H127857   4.658   4.029   1.192  0.0469  2.3391  0.7811
 2074TIP3    H227858   4.572   3.945   1.285  1.7218  0.3589  0.5732
 2075TIP3   OH227859   3.154   4.475   7.344 -0.6288  0.2510 -0.0086
 2075TIP3    H127860   3.197   4.431   7.270 -0.0531 -1.8989  1.5499
 2075TIP3    H227861   3.151   4.567   7.318 -0.0921 -0.3972 -2.5410
 2076TIP3   OH227862   2.146   4.856   0.442 -0.0850  0.5931  0.1179
 2076TIP3    H127863   2.229   4.844   0.394  0.6974  1.8047  1.1262
 2076TIP3    H227864   2.173   4.867   0.533 -1.5150 -0.9502  0.7420
 2077TIP3   OH227865   2.856   0.549   7.824  0.0159 -0.2620  0.4954
 2077TIP3    H127866   2.773   0.592   7.844  0.5532  1.5225 -0.9930
 2077TIP3    H227867   2.862   0.551   7.729  1.2525 -1.3669  0.5425
 2078TIP3   OH227868   5.470   7.106   7.978 -0.1309  0.4490 -0.4141
 2078TIP3    H127869   5.448   7.083   7.888  1.0351  1.4759 -0.9739
 2078TIP3    H227870   5.386   7.104   8.025 -0.5414 -1.5259 -1.1869
 2079TIP3   OH227871   4.371   2.236   7.223  0.0812  0.1665 -0.3989
 2079TIP3    H127872   4.433   2.165   7.239 -0.9090 -0.4805  0.7466
 2079TIP3    H227873   4.408   2.312   7.268  2.6769  1.2595 -4.1696
 2080TIP3   OH227874   6.641   2.458   6.988 -0.4565  0.5598 -0.6221
 2080TIP3    H127875   6.595   2.406   7.054 -0.2622 -0.2946 -1.1485
 2080TIP3    H227876   6.657   2.542   7.030  1.6013 -0.6918  1.2207
 2081TIP3   OH227877   4.086   4.541   6.451  0.2485 -0.3957 -0.0127
 2081TIP3    H127878   3.997   4.518   6.421 -0.1921  0.6266  0.4938
 2081TIP3    H227879   4.113   4.466   6.504 -0.5266 -0.4869  0.2614
 2082TIP3   OH227880   3.161   5.771   7.230 -0.4304 -0.0325 -0.2595
 2082TIP3    H127881   3.147   5.766   7.325  0.4349 -1.1370 -0.1823
 2082TIP3    H227882   3.132   5.859   7.207  1.3002  1.0130  1.3757
 2083TIP3   OH227883   1.969   4.513   1.126  0.0946  0.5371 -0.5373
 2083TIP3    H127884   2.054   4.547   1.100  0.1878  1.1557  0.5390
 2083TIP3    H227885   1.984   4.471   1.211 -0.8742  1.5967  0.1760
 2084TIP3   OH227886   0.680   2.812   5.988  0.3016 -0.4271  0.3076
 2084TIP3    H127887   0.621   2.737   5.991 -0.1344 -0.1652 -1.0973
 2084TIP3    H227888   0.634   2.880   6.037 -0.5563 -0.2402 -0.7409
 2085TIP3   OH227889   1.127   4.124   6.614 -0.0536  0.1348  0.4240
 2085TIP3    H127890   1.119   4.217   6.634 -0.5288  0.4602 -1.1599
 2085TIP3    H227891   1.078   4.080   6.683  0.2849  1.0574  1.2535
 2086TIP3   OH227892   4.781   5.163   5.703 -0.1651  0.4754 -0.0758
 2086TIP3    H127893   4.832   5.174   5.784  1.1539 -1.3122 -0.6429
 2086TIP3    H227894   4.752   5.072   5.706  1.9028 -0.3080 -2.7553
 2087TIP3   OH227895   2.879   5.178   8.092  0.0922  0.1171 -0.6671
 2087TIP3    H127896   2.962   5.219   8.117 -0.2277  0.3818 -0.0250
 2087TIP3    H227897   2.822   5.252   8.068  0.0063 -0.0546 -0.9959
 2088TIP3   OH227898   2.931   6.014   2.440  0.5033  0.0686  0.1825
 2088TIP3    H127899   2.859   6.062   2.399  1.2982  0.1878 -1.1185
 2088TIP3    H227900   2.995   6.002   2.370  1.9503  0.3404  1.4165
 2089TIP3   OH227901   4.953   4.618   0.206 -0.3719  0.0803  0.0033
 2089TIP3    H127902   4.940   4.524   0.219 -1.9924  0.4559  1.2176
 2089TIP3    H227903   4.870   4.649   0.171 -0.9569  1.5752  2.5649
 2090TIP3   OH227904   6.044   5.568   7.782 -0.2557  0.0757  0.5895
 2090TIP3    H127905   6.110   5.630   7.815 -1.0523 -0.2688  2.9377
 2090TIP3    H227906   5.961   5.614   7.795 -0.5307  0.5058 -2.3494
 2091TIP3   OH227907   4.139   5.595   7.184 -0.5990  0.3757  0.2908
 2091TIP3    H127908   4.173   5.547   7.108 -1.0418 -0.2320  0.4754
 2091TIP3    H227909   4.128   5.685   7.152 -1.9799 -0.1323 -0.7452
 2092TIP3   OH227910   2.397   6.113   7.123  0.5781  0.1137 -0.5290
 2092TIP3    H127911   2.319   6.097   7.070  1.1200  0.0709 -1.3119
 2092TIP3    H227912   2.367   6.171   7.193  0.0233  0.7197 -1.2687
 2093TIP3   OH227913   4.802   3.990   6.176  0.5866  0.2019  0.3476
 2093TIP3    H127914   4.792   3.934   6.099  1.8039  0.9607 -0.3808
 2093TIP3    H227915   4.733   4.056   6.168 -1.2280 -1.5206  1.5170
 2094TIP3   OH227916   2.124   4.117   5.710  0.1702 -0.2457 -0.2010
 2094TIP3    H127917   2.168   4.033   5.721 -1.1331 -0.9437 -0.1508
 2094TIP3    H227918   2.054   4.099   5.646  1.3618  1.3766 -1.9868
 2095TIP3   OH227919   1.387   5.881   0.061  0.9695  0.3327 -0.2269
 2095TIP3    H127920   1.297   5.908   0.046  1.4253  2.1942  0.2301
 2095TIP3    H227921   1.380   5.790   0.092 -0.8594  0.9265  1.2268
 2096TIP3   OH227922   3.542   2.729   8.023  0.0070  0.8848 -0.2236
 2096TIP3    H127923   3.466   2.681   7.991  0.0937 -0.6468  1.8075
 2096TIP3    H227924   3.508   2.816   8.045 -0.9961  0.4532 -0.0681
 2097TIP3   OH227925   3.170   4.806   5.925 -0.3542 -0.7615 -0.4427
 2097TIP3    H127926   3.128   4.821   5.841  1.4030  0.9463 -1.0420
 2097TIP3    H227927   3.152   4.885   5.976  1.4871 -0.3101 -0.4544
 2098TIP3   OH227928   6.053   2.135   0.856  0.2709 -0.4707 -0.4539
 2098TIP3    H127929   6.069   2.164   0.766 -3.3108  0.0959 -0.9966
 2098TIP3    H227930   6.003   2.207   0.895 -0.9041 -2.0491  0.9948
 2099TIP3   OH227931   4.449   5.113   7.026 -0.2937 -0.8243 -0.0683
 2099TIP3    H127932   4.514   5.148   7.087  1.0733  1.5102 -2.6917
 2099TIP3    H227933   4.479   5.024   7.007  1.4025 -0.2454 -0.2024
 2100TIP3   OH227934   3.051   5.624   6.248  0.0599 -0.0142  0.3765
 2100TIP3    H127935   3.048   5.708   6.203 -0.0135 -0.1552  0.1187
 2100TIP3    H227936   2.984   5.571   6.204 -1.1679  0.3826  1.7184
 2101TIP3   OH227937   6.980   1.595   1.020  0.5992  0.6684  0.1828
 2101TIP3    H127938   6.894   1.627   0.992  1.5730  1.6592 -1.8586
 2101TIP3    H227939   6.982   1.609   1.114 -1.1240  1.5396  0.1024
 2102TIP3   OH227940   0.364   5.983   6.556  0.2187  0.3109  0.6321
 2102TIP3    H127941   0.321   5.945   6.633  0.6676  0.3774  0.9168
 2102TIP3    H227942   0.357   6.077   6.569  2.1476  0.3394  1.6469
 2103TIP3   OH227943   3.882   5.104   6.634 -0.4023 -0.4089  0.2852
 2103TIP3    H127944   3.908   5.184   6.679  1.4895 -1.9577  2.1045
 2103TIP3    H227945   3.847   5.048   6.704  1.0709 -2.2545 -0.4007
 2104TIP3   OH227946   4.241   6.382   0.648 -0.3017 -0.6676  0.0335
 2104TIP3    H127947   4.181   6.379   0.573 -0.6442 -1.0252  0.3123
 2104TIP3    H227948   4.260   6.290   0.667 -0.8827 -0.6169  0.9043
 2105TIP3   OH227949   4.273   4.411   7.902  0.2142  0.4244 -0.4221
 2105TIP3    H127950   4.187   4.384   7.871  0.6767 -0.9612 -0.5610
 2105TIP3    H227951   4.259   4.496   7.942 -1.1311  0.4230 -0.8620
 2106TIP3   OH227952   1.063   0.731   1.500  0.2103 -0.2807  0.2286
 2106TIP3    H127953   1.094   0.822   1.499  0.9633 -0.5352 -0.8370
 2106TIP3    H227954   0.992   0.731   1.565  0.1239  1.0911  0.1685
 2107TIP3   OH227955   1.825   3.745   1.598 -0.7744  0.9414 -0.4425
 2107TIP3    H127956   1.807   3.804   1.672 -1.9485 -2.1424  1.8550
 2107TIP3    H227957   1.751   3.684   1.598  0.9265 -1.2022 -2.0404
 2108TIP3   OH227958   2.772   6.530   0.310 -0.2007 -0.3279 -0.2442
 2108TIP3    H127959   2.814   6.610   0.342  2.4000 -2.1624  1.1412
 2108TIP3    H227960   2.834   6.494   0.247 -0.3612 -2.3063  0.6907
 2109TIP3   OH227961   0.563   4.153   1.112  0.2030 -0.1390 -0.4481
 2109TIP3    H127962   0.546   4.182   1.022 -1.0582  1.9832  0.4359
 2109TIP3    H227963   0.540   4.060   1.112 -2.8830  0.5590 -1.5455
 2110TIP3   OH227964   2.541   2.679   0.883 -0.1807  0.3704  0.1722
 2110TIP3    H127965   2.450   2.670   0.912  0.4256  0.1724  2.0433
 2110TIP3    H227966   2.579   2.744   0.943  1.3247 -0.6668  0.3634
 2111TIP3   OH227967   6.116   0.888   6.769  0.1960 -0.4774 -0.6293
 2111TIP3    H127968   6.070   0.945   6.707 -0.3416  1.0195  1.0941
 2111TIP3    H227969   6.047   0.842   6.816  0.5185  0.1298  0.4481
 2112TIP3   OH227970   6.113   3.084   7.167  0.6956 -0.0320 -0.1486
 2112TIP3    H127971   6.143   3.159   7.219  2.6920 -1.1204  0.3107
 2112TIP3    H227972   6.068   3.124   7.093  1.4699  1.6312  0.2345
 2113TIP3   OH227973   3.709   2.686   7.255  0.6131  0.1062 -0.3020
 2113TIP3    H127974   3.776   2.622   7.281  1.2049 -0.0023 -2.0084
 2113TIP3    H227975   3.719   2.693   7.160 -0.7673  1.2713 -0.3708
 2114TIP3   OH227976   2.422   2.551   1.892  0.7602 -0.8646  0.3990
 2114TIP3    H127977   2.382   2.601   1.963 -1.4375 -0.9345 -0.7438
 2114TIP3    H227978   2.399   2.460   1.911 -1.7950 -0.6872 -1.5353
 2115TIP3   OH227979   1.986   3.152   7.481 -0.1746 -0.1265 -0.8349
 2115TIP3    H127980   2.015   3.213   7.413  0.9940  0.0755 -0.1593
 2115TIP3    H227981   2.065   3.131   7.531 -1.3523  1.5084  1.8782
 2116TIP3   OH227982   2.354   3.899   0.057 -0.1932 -0.0989 -0.0403
 2116TIP3    H127983   2.409   3.857   0.123  0.7026  0.6202 -0.3278
 2116TIP3    H227984   2.364   3.846  -0.021  0.7961  0.5393 -0.3507
 2117TIP3   OH227985   5.727   1.518   6.644 -0.1288  0.5515  0.0218
 2117TIP3    H127986   5.744   1.511   6.550  0.0866  0.8771  0.0358
 2117TIP3    H227987   5.793   1.580   6.676 -0.5932  0.9195  0.2809
 2118TIP3   OH227988   3.830   3.174   7.765  0.1757 -0.3054 -0.1181
 2118TIP3    H127989   3.814   3.080   7.757  0.6740 -0.4592  0.5871
 2118TIP3    H227990   3.843   3.188   7.859  1.0652  0.3053 -0.3162
 2119TIP3   OH227991   3.041   6.363   6.910 -0.2874 -0.0077  0.3829
 2119TIP3    H127992   3.112   6.421   6.883  0.4492 -1.2049 -0.3113
 2119TIP3    H227993   3.074   6.275   6.892 -1.7885 -0.5988  0.4371
 2120TIP3   OH227994   3.688   1.275   0.165 -0.1369  0.8384  0.5457
 2120TIP3    H127995   3.635   1.355   0.162 -0.4823  0.6000  0.1220
 2120TIP3    H227996   3.759   1.291   0.104 -1.4520 -0.0356 -1.2684
 2121TIP3   OH227997   6.082   5.988   7.581  0.3017  0.3135 -0.5499
 2121TIP3    H127998   6.117   6.073   7.608  0.2933 -0.2545  1.3341
 2121TIP3    H227999   6.127   5.968   7.499  1.8221  1.2070  0.0461
 2122TIP3   OH228000   5.205   3.700   2.415  0.3368 -0.4222  0.2429
 2122TIP3    H128001   5.191   3.762   2.486 -0.9386 -1.1950  0.6766
 2122TIP3    H228002   5.270   3.639   2.450  0.9339  0.1486  0.1379
 2123TIP3   OH228003   5.203   6.286   0.046 -0.6318  0.3301 -0.0793
 2123TIP3    H128004   5.149   6.212   0.021  0.0380 -0.8744  1.9257
 2123TIP3    H228005   5.237   6.321  -0.037 -1.8686 -0.8913 -1.1004
 2124TIP3   OH228006   2.745   4.440   1.591  0.3591 -0.0159 -0.2729
 2124TIP3    H128007   2.737   4.353   1.631 -1.4911 -0.0832 -0.7294
 2124TIP3    H228008   2.826   4.435   1.540  0.5185 -1.3291  0.0791
 2125TIP3   OH228009   4.340   5.526   0.007  0.2434  0.1129 -0.0985
 2125TIP3    H128010   4.431   5.543  -0.018  0.7841 -0.2275  1.6146
 2125TIP3    H228011   4.339   5.534   0.102 -1.2133 -1.3779  0.0223
 2126TIP3   OH228012   2.812   2.081   6.114 -0.3592 -0.3560  0.0746
 2126TIP3    H128013   2.802   2.125   6.198  2.6731 -0.0943  0.3489
 2126TIP3    H228014   2.818   2.152   6.050 -1.7025 -0.5394 -0.2822
 2127TIP3   OH228015   5.807   5.062   7.957 -0.3490 -0.1954 -0.1459
 2127TIP3    H128016   5.827   5.022   7.872  1.6017  1.5112 -0.5264
 2127TIP3    H228017   5.782   5.152   7.937  0.2308  0.2560  1.0842
 2128TIP3   OH228018   2.224   2.051   1.240 -0.6800  0.1051 -0.2809
 2128TIP3    H128019   2.217   1.964   1.202  0.5783 -0.5669  0.9743
 2128TIP3    H228020   2.138   2.066   1.281  0.1344 -1.9659  2.3680
 2129TIP3   OH228021   4.620   5.170   7.255 -1.1861 -0.1296 -0.5788
 2129TIP3    H128022   4.569   5.192   7.333 -0.5870  0.0532 -0.2449
 2129TIP3    H228023   4.661   5.086   7.275  0.5902  0.8763  0.0836
 2130TIP3   OH228024   5.352   4.472   7.241 -0.1617 -0.0588 -0.2227
 2130TIP3    H128025   5.405   4.548   7.218 -1.0214  0.1149 -1.6409
 2130TIP3    H228026   5.335   4.482   7.335  0.3590  1.0960 -0.2475
 2131TIP3   OH228027   5.219   6.585   7.226 -0.1615 -0.3932  0.2820
 2131TIP3    H128028   5.225   6.634   7.144  0.5845 -0.2726  0.3983
 2131TIP3    H228029   5.230   6.651   7.294  1.3051 -0.7599  0.4340
 2132TIP3   OH228030   0.083   4.834   6.620  0.8848  0.2609 -0.2138
 2132TIP3    H128031   0.077   4.930   6.623 -1.8738  0.1118  0.0644
 2132TIP3    H228032   0.046   4.805   6.703 -0.1554 -1.1155 -1.1403
 2133TIP3   OH228033   5.856   4.696   6.127 -0.3444 -0.5511 -0.3065
 2133TIP3    H128034   5.870   4.753   6.052 -0.8814 -0.4766 -0.3581
 2133TIP3    H228035   5.943   4.679   6.162 -0.2029  0.6181 -0.0687
 2134TIP3   OH228036   2.366   5.309   6.834  0.5098  0.2547  0.5219
 2134TIP3    H128037   2.386   5.395   6.798  0.4684  0.0242 -0.0534
 2134TIP3    H228038   2.441   5.288   6.890 -0.1239  1.2707  1.7700
 2135TIP3   OH228039   4.400   3.519   6.406  0.3059 -0.6492  0.1541
 2135TIP3    H128040   4.342   3.579   6.360 -0.2581 -2.6042 -1.7563
 2135TIP3    H228041   4.488   3.546   6.381  0.0881 -0.0973 -0.0234
 2136TIP3   OH228042   5.302   2.745   6.907  0.6014  0.0893  0.6874
 2136TIP3    H128043   5.306   2.774   6.816 -3.1707  1.9800  1.0305
 2136TIP3    H228044   5.248   2.667   6.905  3.9792 -2.3671  0.8557
 2137TIP3   OH228045   0.934   2.872   7.022  1.0458  0.0762 -0.0045
 2137TIP3    H128046   0.890   2.901   6.942 -0.6026 -0.7737  0.5730
 2137TIP3    H228047   0.959   2.954   7.066 -0.4775  0.5924 -0.0712
 2138TIP3   OH228048   2.156   4.031   6.022  0.0119 -0.4327  0.3088
 2138TIP3    H128049   2.181   3.975   5.949 -0.6833  0.1446 -0.3797
 2138TIP3    H228050   2.170   4.121   5.990  0.0303 -0.1808  1.0021
 2139TIP3   OH228051   6.124   5.239   6.983  0.0846  0.0773 -0.0152
 2139TIP3    H128052   6.136   5.225   7.077 -0.4663  0.8324  0.1691
 2139TIP3    H228053   6.038   5.202   6.964  1.2254 -2.3504 -0.7107
 2140TIP3   OH228054   4.892   4.450   5.791  0.2430 -0.2515  1.0183
 2140TIP3    H128055   4.974   4.449   5.841 -0.3249  0.4405  1.9755
 2140TIP3    H228056   4.912   4.399   5.712  1.8896  0.7674  0.7594
 2141TIP3   OH228057   5.516   0.130   7.576 -0.2620  0.5541  0.2559
 2141TIP3    H128058   5.554   0.151   7.662  2.0708  0.3820 -0.6871
 2141TIP3    H228059   5.465   0.208   7.553  1.4199  1.7881  0.5600
 2142TIP3   OH228060   0.815   0.115   7.582 -0.2905  0.1552  0.2112
 2142TIP3    H128061   0.802   0.085   7.492 -0.5782  2.0621 -0.4155
 2142TIP3    H228062   0.892   0.067   7.612  1.2197  1.1927 -1.8720
 2143TIP3   OH228063   3.264   3.773   1.419  0.6876  0.4867 -0.3913
 2143TIP3    H128064   3.247   3.839   1.486  1.8267 -0.7637  1.1698
 2143TIP3    H228065   3.185   3.773   1.365 -0.1353  1.7247  0.7752
 2144TIP3   OH228066   6.568   4.905   7.470 -0.5569 -0.5325  0.1514
 2144TIP3    H128067   6.502   4.973   7.465  0.9168  0.9613  0.5873
 2144TIP3    H228068   6.642   4.939   7.421  1.2129 -0.5806  2.6800
 2145TIP3   OH228069   5.852   5.578   6.848 -0.4124 -0.0635 -0.3330
 2145TIP3    H128070   5.870   5.604   6.758  0.5102  2.2855  0.4827
 2145TIP3    H228071   5.858   5.659   6.898 -3.3648 -0.9130  1.5041
 2146TIP3   OH228072   4.413   4.252   7.110 -0.1590  0.2071 -0.0605
 2146TIP3    H128073   4.340   4.190   7.102 -0.3404  0.2321  1.3707
 2146TIP3    H228074   4.449   4.236   7.197 -0.8690  2.8145  0.7546
 2147TIP3   OH228075   7.025   4.066   6.916 -0.3504  0.0483  0.3732
 2147TIP3    H128076   6.952   4.038   6.970 -0.1027 -2.1721 -0.4231
 2147TIP3    H228077   7.103   4.037   6.964 -0.0854 -0.4036 -0.3301
 2148TIP3   OH228078   5.622   2.076   7.672  0.3293 -0.2401 -0.0236
 2148TIP3    H128079   5.530   2.088   7.695  0.1569  0.9055 -1.2450
 2148TIP3    H228080   5.624   2.080   7.577  1.4252 -1.9637 -0.0941
 2149TIP3   OH228081   0.411   0.312   6.241 -0.4154  0.2012  0.1397
 2149TIP3    H128082   0.453   0.314   6.155  0.0933  1.8308  0.4115
 2149TIP3    H228083   0.353   0.235   6.238  1.6392 -1.3603 -0.6719
 2150TIP3   OH228084   5.692   5.288   6.646 -0.0742 -0.0215  0.3609
 2150TIP3    H128085   5.681   5.195   6.628 -0.9779  0.2974 -0.8107
 2150TIP3    H228086   5.613   5.314   6.692 -0.9610  0.6781 -1.4865
 2151TIP3   OH228087   6.784   5.337   7.274 -0.1915  0.4442  0.8304
 2151TIP3    H128088   6.866   5.355   7.230  0.3642  0.2601  1.7758
 2151TIP3    H228089   6.735   5.281   7.213  0.4823  0.3417  0.3847
 2152TIP3   OH228090   4.325   4.176   5.988  0.6250  0.0138 -0.6312
 2152TIP3    H128091   4.361   4.209   6.070  1.8657  1.2099 -1.6275
 2152TIP3    H228092   4.372   4.225   5.920  0.6230 -1.9588 -2.0914
 2153TIP3   OH228093   6.166   4.054   0.909  0.0365  0.0353  0.3500
 2153TIP3    H128094   6.141   3.968   0.875  1.3497 -0.3316  0.2669
 2153TIP3    H228095   6.163   4.112   0.833  1.5369 -0.4700 -0.1196
 2154TIP3   OH228096   4.707   4.882   5.703 -0.3541 -0.4085  0.3863
 2154TIP3    H128097   4.776   4.846   5.647  0.0543  0.3886  0.3551
 2154TIP3    H228098   4.703   4.824   5.778  1.3968  0.3575  1.0988
 2155TIP3   OH228099   2.562   5.149   6.620 -0.2658  0.6926  0.0069
 2155TIP3    H128100   2.486   5.091   6.627  0.1713  0.1587  0.4089
 2155TIP3    H228101   2.528   5.236   6.642 -0.9988  0.6566 -0.9416
 2156TIP3   OH228102   5.978   5.142   5.950  0.1783 -0.1318 -0.1281
 2156TIP3    H128103   6.061   5.158   5.905 -0.1640 -0.5392 -0.9139
 2156TIP3    H228104   6.002   5.089   6.025  0.5992 -0.5001 -0.5148
 2157TIP3   OH228105   3.405   5.498   6.262 -0.2826  0.5982 -0.2381
 2157TIP3    H128106   3.335   5.545   6.309 -2.2183 -1.1630 -1.2787
 2157TIP3    H228107   3.462   5.568   6.229 -0.9888  2.0312  1.4513
 2158TIP3   OH228108   6.024   7.078   6.818 -0.5382 -0.0712  0.3173
 2158TIP3    H128109   6.001   7.142   6.751  0.3998 -0.4132 -0.3461
 2158TIP3    H228110   5.945   7.068   6.870 -1.6650 -0.7099 -1.4840
 2159TIP3   OH228111   5.237   4.890   7.945  0.3103  0.3595 -0.4065
 2159TIP3    H128112   5.332   4.898   7.949  0.4159 -0.2989 -1.3403
 2159TIP3    H228113   5.216   4.823   8.011  0.2528  2.1543  1.4308
 2160TIP3   OH228114   2.491   5.193   7.117  0.6189  0.0724  0.0155
 2160TIP3    H128115   2.494   5.278   7.161  0.9195  0.0260  0.0878
 2160TIP3    H228116   2.404   5.159   7.136  0.8696 -0.1053  0.8719
 2161TIP3   OH228117   3.977   3.503   0.561  0.1979  0.2555 -0.4855
 2161TIP3    H128118   4.030   3.579   0.536 -1.9322  1.8028 -0.5103
 2161TIP3    H228119   3.930   3.479   0.481  0.1446 -0.4787 -0.2334
 2162TIP3   OH228120   3.874   6.209   6.505  0.3697 -0.0549  0.4256
 2162TIP3    H128121   3.901   6.156   6.430 -0.3896  0.3404 -0.1344
 2162TIP3    H228122   3.932   6.285   6.504 -0.0316  0.2515 -0.1296
 2163TIP3   OH228123   2.035   6.021   6.318 -0.0862  0.4722 -0.1115
 2163TIP3    H128124   2.127   6.022   6.290 -0.6173 -0.7639 -1.9873
 2163TIP3    H228125   2.037   5.982   6.405  1.0382 -0.7568 -0.6638
 2164TIP3   OH228126   5.867   7.144   7.932 -0.5509  0.5857 -0.4087
 2164TIP3    H128127   5.958   7.174   7.926 -0.5331  0.4369 -0.8905
 2164TIP3    H228128   5.846   7.113   7.844 -1.0016  0.4244 -0.2451
 2165TIP3   OH228129   2.914   5.550   1.257  0.0949 -0.1374  0.4472
 2165TIP3    H128130   2.939   5.642   1.265  0.1494 -0.0727 -0.4084
 2165TIP3    H228131   2.849   5.536   1.327 -1.9206  1.2500 -1.0933
 2166TIP3   OH228132   4.960   5.069   6.733  0.3398 -0.5720 -0.1248
 2166TIP3    H128133   4.990   5.134   6.670  0.5643 -2.0934 -1.6268
 2166TIP3    H228134   4.872   5.046   6.702  0.2514 -0.9591  0.4154
 2167TIP3   OH228135   4.988   3.332   1.527  0.0984 -0.4493  0.2742
 2167TIP3    H128136   4.943   3.321   1.443  0.8629  1.8796 -0.4869
 2167TIP3    H228137   4.924   3.377   1.582  0.8883  1.4932 -0.3288
 2168TIP3   OH228138   7.028   4.464   6.077  0.0015  0.6642  0.1830
 2168TIP3    H128139   7.006   4.385   6.026 -0.0450 -0.0340  1.2751
 2168TIP3    H228140   7.123   4.468   6.076  0.0679 -0.2600  1.3863
 2169TIP3   OH228141   3.805   4.505   2.264  0.0395 -0.0417 -0.4216
 2169TIP3    H128142   3.852   4.422   2.266  0.8532  0.4280  0.3185
 2169TIP3    H228143   3.808   4.537   2.354 -1.6259  0.0455 -0.3781
 2170TIP3   OH228144   2.114   1.893   0.185  0.0304  0.0661 -0.1660
 2170TIP3    H128145   2.148   1.823   0.130 -1.3720 -1.1134  0.4309
 2170TIP3    H228146   2.041   1.929   0.135 -1.2940 -1.0545  0.9043
 2171TIP3   OH228147   5.513   4.770   6.088 -0.5138  0.1435  0.1684
 2171TIP3    H128148   5.545   4.699   6.032 -1.2323  0.1717 -0.2882
 2171TIP3    H228149   5.557   4.848   6.054 -1.7597  0.3288 -1.0671
 2172TIP3   OH228150   0.357   2.697   0.235  0.3924 -0.4705 -0.0143
 2172TIP3    H128151   0.371   2.635   0.163 -0.8607 -1.8006  0.8701
 2172TIP3    H228152   0.296   2.652   0.294  0.0135  1.3229  0.9908
 2173TIP3   OH228153   4.556   6.797   6.087  0.7497  0.6219 -0.1336
 2173TIP3    H128154   4.651   6.802   6.098  0.6576  1.9703  0.1363
 2173TIP3    H228155   4.534   6.872   6.031 -0.1703  0.4260 -0.0440
 2174TIP3   OH228156   6.983   3.724   6.608  0.6085  0.3354 -0.3606
 2174TIP3    H128157   7.041   3.766   6.671 -0.0455  1.5075 -0.5197
 2174TIP3    H228158   6.897   3.765   6.623 -0.5750 -2.4678  0.9439
 2175TIP3   OH228159   3.828   6.861   7.527 -0.3980  0.0399  0.4204
 2175TIP3    H128160   3.830   6.911   7.446 -0.6783  0.8973  0.9444
 2175TIP3    H228161   3.907   6.807   7.525 -1.1253 -0.9987 -1.0933
 2176TIP3   OH228162   0.378   4.433   0.669  0.4378  0.3217 -0.7867
 2176TIP3    H128163   0.310   4.367   0.684 -0.9010  1.9942  0.7125
 2176TIP3    H228164   0.336   4.498   0.612  0.4435  1.8701  0.9484
 2177TIP3   OH228165   3.035   3.313   6.630  0.0426  0.2321  0.2772
 2177TIP3    H128166   2.946   3.279   6.639  1.0327 -2.4667  0.3202
 2177TIP3    H228167   3.071   3.265   6.555  2.4520 -0.9668  2.1618
 2178TIP3   OH228168   5.921   4.808   5.880 -0.3681 -0.0231  0.2691
 2178TIP3    H128169   5.917   4.754   5.801  0.3287 -0.1331  0.3050
 2178TIP3    H228170   6.007   4.850   5.876  0.1777 -0.9721  1.5857
 2179TIP3   OH228171   6.053   6.107   7.904  0.3393  0.1601 -0.0782
 2179TIP3    H128172   6.090   6.082   7.819 -0.4804 -1.2442 -0.0348
 2179TIP3    H228173   5.959   6.103   7.891  0.2010 -1.5960  1.3083
 2180TIP3   OH228174   7.091   0.063   7.862 -0.0915  0.1107 -1.2117
 2180TIP3    H128175   7.036   0.116   7.805 -0.4838  2.2705  1.1287
 2180TIP3    H228176   7.030   0.003   7.905 -0.0785 -0.1022 -1.4878
 2181TIP3   OH228177   0.291   6.622   2.134 -0.6331  0.9974  0.0754
 2181TIP3    H128178   0.292   6.527   2.141  0.4739  1.0611  0.8466
 2181TIP3    H228179   0.380   6.645   2.107 -0.5167  1.9118  1.2049
 2182TIP3   OH228180   1.455   4.462   0.284  0.0444  0.4464 -0.2095
 2182TIP3    H128181   1.503   4.405   0.343  0.3450  0.1431 -0.7434
 2182TIP3    H228182   1.375   4.414   0.263  1.3551 -0.8309 -2.5055
 2183TIP3   OH228183   3.370   6.165   7.672  0.1640  0.1301 -0.1435
 2183TIP3    H128184   3.443   6.213   7.712  1.0667  0.3778 -2.0085
 2183TIP3    H228185   3.355   6.210   7.589 -2.0953  0.0250  0.1894
 2184TIP3   OH228186   7.032   5.160   6.594  0.5856 -0.1647  0.2262
 2184TIP3    H128187   6.984   5.214   6.657  1.2944  0.1635  0.4891
 2184TIP3    H228188   6.967   5.139   6.527  0.2101  0.7321  0.2961
 2185TIP3   OH228189   4.217   6.102   1.271  0.4964  0.2878 -0.1747
 2185TIP3    H128190   4.299   6.052   1.273  0.5650  0.4533  2.6787
 2185TIP3    H228191   4.208   6.137   1.360 -1.3761  2.4046 -1.1604
 2186TIP3   OH228192   5.300   3.433   7.776 -0.1125 -0.1900  0.1023
 2186TIP3    H128193   5.305   3.386   7.859  2.3973 -1.6971 -0.8570
 2186TIP3    H228194   5.238   3.383   7.723 -0.1091 -0.4192  0.3171
 2187TIP3   OH228195   3.878   1.076   7.105 -0.2628 -0.4699 -0.0256
 2187TIP3    H128196   3.917   1.163   7.102 -0.4397 -0.2209  3.3155
 2187TIP3    H228197   3.947   1.020   7.143 -0.4887 -1.5920 -1.2351
 2188TIP3   OH228198   4.200   2.673   1.592  0.0223  0.1441  0.2499
 2188TIP3    H128199   4.278   2.725   1.614 -0.4527  1.5997 -1.3522
 2188TIP3    H228200   4.162   2.649   1.676 -0.0833  2.9537  1.0493
 2189TIP3   OH228201   3.723   2.980   1.371 -0.2288  0.4428 -0.4597
 2189TIP3    H128202   3.749   2.962   1.462 -2.1068 -0.6727 -0.1224
 2189TIP3    H228203   3.709   3.075   1.369  1.2559  0.6872  0.0208
 2190TIP3   OH228204   1.173   3.081   6.366  0.8193  0.6373  0.2459
 2190TIP3    H128205   1.169   3.175   6.381  3.4365  0.8991 -0.5688
 2190TIP3    H228206   1.259   3.055   6.398  0.6217 -1.2758 -0.7100
 2191TIP3   OH228207   1.835   5.459   0.825 -0.5054 -0.5362 -0.1838
 2191TIP3    H128208   1.921   5.428   0.797  0.2163  0.1511  1.2450
 2191TIP3    H228209   1.809   5.521   0.757  0.5459 -0.0458 -0.1432
 2192TIP3   OH228210   4.555   6.097   6.385  0.8029 -0.0141 -0.9339
 2192TIP3    H128211   4.501   6.147   6.446  0.0269 -2.4205  0.4569
 2192TIP3    H228212   4.566   6.154   6.309 -1.3982  1.5972 -0.1020
 2193TIP3   OH228213   4.647   1.225   6.574  0.2546 -0.0381  0.5756
 2193TIP3    H128214   4.582   1.183   6.630  2.1209 -1.6290  1.6470
 2193TIP3    H228215   4.691   1.288   6.631  0.3646  0.2622  0.1636
 2194TIP3   OH228216   5.535   4.011   6.777 -0.2537  0.0329  0.0489
 2194TIP3    H128217   5.548   3.919   6.755  1.4966  0.5749 -1.2656
 2194TIP3    H228218   5.453   4.035   6.733 -2.9312 -1.8863  3.6813
 2195TIP3   OH228219   0.247   3.939   0.658  0.2012  0.6285 -0.0935
 2195TIP3    H128220   0.157   3.953   0.628 -0.0557 -3.5579 -1.5586
 2195TIP3    H228221   0.240   3.869   0.723  2.4959 -0.4529 -0.9657
 2196TIP3   OH228222   2.185   5.875   8.021  0.3133 -0.3687 -0.2942
 2196TIP3    H128223   2.170   5.957   8.068  0.5390 -1.1658  1.1954
 2196TIP3    H228224   2.167   5.807   8.085 -0.5901 -1.5167 -1.7185
 2197TIP3   OH228225   5.515   3.338   0.561 -0.5052 -0.2955 -0.2692
 2197TIP3    H128226   5.549   3.322   0.473 -1.5091 -1.6979 -0.4212
 2197TIP3    H228227   5.420   3.343   0.549 -0.6917 -1.0591  0.7999
 2198TIP3   OH228228   3.676   3.992   6.313  0.4553  0.1747  0.4950
 2198TIP3    H128229   3.683   3.923   6.379 -0.0726 -0.5850 -0.2402
 2198TIP3    H228230   3.594   4.036   6.333 -0.6076 -1.2062 -0.7423
 2199TIP3   OH228231   5.419   5.890   0.837  0.6431 -0.4608  0.2222
 2199TIP3    H128232   5.435   5.934   0.921  0.1941  1.0683 -0.4824
 2199TIP3    H228233   5.497   5.908   0.785 -0.4249  1.2545 -0.8002
 2200TIP3   OH228234   2.810   2.017   0.946  0.0546 -0.1526 -0.0443
 2200TIP3    H128235   2.890   1.983   0.906 -0.9257 -1.7719 -0.6880
 2200TIP3    H228236   2.828   2.013   1.040  1.0245  0.2601 -0.1994
 2201TIP3   OH228237   2.824   6.649   6.383 -0.8392  0.0142  0.0438
 2201TIP3    H128238   2.864   6.604   6.457 -0.6667  0.5595  0.2893
 2201TIP3    H228239   2.823   6.584   6.313 -0.8950 -0.4705  0.4854
 2202TIP3   OH228240   0.530   2.281   0.135  0.3341  0.2840  0.2606
 2202TIP3    H128241   0.508   2.223   0.062  3.2889 -0.5464 -0.0436
 2202TIP3    H228242   0.541   2.222   0.210 -0.9827  0.9429  0.9766
 2203TIP3   OH228243   4.967   5.555   7.350  0.5781 -0.3562 -0.3430
 2203TIP3    H128244   5.006   5.502   7.419 -1.9505  3.0672  3.9688
 2203TIP3    H228245   4.878   5.521   7.341  0.1643  0.6746 -0.2467
 2204TIP3   OH228246   5.105   0.289   7.494 -0.5106 -0.2203  0.3506
 2204TIP3    H128247   5.095   0.315   7.585 -2.1810  0.3171  0.0294
 2204TIP3    H228248   5.095   0.194   7.494  0.7572 -0.3600  0.8837
 2205TIP3   OH228249   5.748   4.474   6.281  0.0859 -0.2315  0.3463
 2205TIP3    H128250   5.776   4.545   6.222 -1.7570  1.2791  1.2262
 2205TIP3    H228251   5.699   4.519   6.350 -0.2828 -2.2927  1.4576
 2206TIP3   OH228252   2.250   0.280   1.545 -0.3743 -0.6254  0.0812
 2206TIP3    H128253   2.212   0.195   1.567 -0.5258 -0.0864  2.0057
 2206TIP3    H228254   2.226   0.336   1.619 -0.9244  1.2947 -1.5037
 2207TIP3   OH228255   1.358   4.734   0.369  0.5454  0.1846 -0.3606
 2207TIP3    H128256   1.436   4.689   0.401  1.0080  0.1683 -1.4818
 2207TIP3    H228257   1.302   4.744   0.446  0.3432 -2.5014 -0.1079
 2208TIP3   OH228258   4.099   4.369   7.563  0.0388 -0.2150  1.1284
 2208TIP3    H128259   4.181   4.418   7.566  0.6197 -1.0412 -0.5305
 2208TIP3    H228260   4.094   4.337   7.473 -1.9904 -0.3742  1.2906
 2209TIP3   OH228261   6.216   5.052   1.861  0.2284 -0.1399 -0.7492
 2209TIP3    H128262   6.227   5.042   1.767 -1.7312  0.1546 -1.0333
 2209TIP3    H228263   6.261   5.134   1.882  2.1235 -1.0648 -1.1377
 2210TIP3   OH228264   3.782   4.965   7.281  0.2576 -0.4171 -0.0707
 2210TIP3    H128265   3.841   4.925   7.344  0.2445  0.2788  0.3819
 2210TIP3    H228266   3.765   4.896   7.217 -0.2626 -1.3376  1.0451
 2211TIP3   OH228267   4.456   2.594   6.397 -0.3307 -0.2360  0.1785
 2211TIP3    H128268   4.514   2.577   6.323 -0.6791  0.4545 -0.2677
 2211TIP3    H228269   4.449   2.690   6.400  0.7937 -0.1761  1.9754
 2212TIP3   OH228270   6.855   2.840   2.048  0.1258 -0.3045 -0.2138
 2212TIP3    H128271   6.919   2.828   2.118  0.6595  0.8896 -0.4864
 2212TIP3    H228272   6.832   2.751   2.022  0.6203 -0.7536  0.8420
 2213TIP3   OH228273   4.236   3.176   0.564 -0.0987  0.2874  0.6963
 2213TIP3    H128274   4.316   3.213   0.527 -0.1888 -1.0883 -0.9101
 2213TIP3    H228275   4.186   3.252   0.595 -1.3319  1.8195 -4.5995
 2214TIP3   OH228276   3.438   2.760   1.576  0.1169 -0.6278  0.3583
 2214TIP3    H128277   3.491   2.759   1.656 -1.9163  2.8206  1.8275
 2214TIP3    H228278   3.442   2.851   1.546 -4.3207 -0.4164  0.0994
 2215TIP3   OH228279   4.028   5.766   1.040  0.0785 -0.0975 -0.3123
 2215TIP3    H128280   4.111   5.811   1.021  1.0964 -1.3826  0.9727
 2215TIP3    H228281   3.992   5.815   1.114  0.3254 -0.3278 -0.0390
 2216TIP3   OH228282   4.328   0.979   0.798 -0.0145  0.1250  0.2803
 2216TIP3    H128283   4.268   1.050   0.773  0.9557  1.3837  1.4591
 2216TIP3    H228284   4.388   0.971   0.724 -1.7352 -1.3041 -1.0148
 2217TIP3   OH228285   4.232   4.113   8.116 -0.2231 -0.3319  0.1459
 2217TIP3    H128286   4.148   4.160   8.119  0.4976  0.9652  0.3747
 2217TIP3    H228287   4.222   4.042   8.179  0.0224  1.8013  2.6684
 2218TIP3   OH228288   6.657   3.274   5.906 -0.0555 -0.0289 -0.1956
 2218TIP3    H128289   6.603   3.197   5.923 -1.7260  0.6237 -2.2793
 2218TIP3    H228290   6.726   3.242   5.847 -0.0851 -0.1658 -0.1558
 2219TIP3   OH228291   7.010   6.130   5.829 -0.2748  0.2710 -0.0955
 2219TIP3    H128292   6.942   6.092   5.774  0.9581 -2.6479  0.2706
 2219TIP3    H228293   6.969   6.139   5.915 -1.2362  1.8718 -0.6978
 2220TIP3   OH228294   6.365   4.006   6.915 -0.4321 -0.1081 -0.0944
 2220TIP3    H128295   6.350   3.959   6.997  1.7818 -0.2434  0.2701
 2220TIP3    H228296   6.402   4.090   6.942 -0.6313  0.2450 -0.9061
 2221TIP3   OH228297   2.223   4.625   1.044  0.3268  0.2520  0.4021
 2221TIP3    H128298   2.226   4.578   0.961  1.0744  0.0810  0.5211
 2221TIP3    H228299   2.310   4.612   1.082 -0.3593 -0.5425  1.6991
 2222TIP3   OH228300   6.052   4.687   5.623  0.9741 -0.0400  0.3904
 2222TIP3    H128301   6.116   4.751   5.654  0.2381  1.2040 -0.5573
 2222TIP3    H228302   6.095   4.603   5.632  1.8127  0.5456  2.0804
 2223TIP3   OH228303   4.343   5.682   5.906  0.5041 -0.0427  0.0375
 2223TIP3    H128304   4.435   5.655   5.901  0.9079  1.4008 -0.8261
 2223TIP3    H228305   4.307   5.632   5.978  1.7573 -1.2629 -0.1627
 2224TIP3   OH228306   1.003   1.399   0.902  0.7290 -0.4376  0.8691
 2224TIP3    H128307   0.991   1.333   0.970  2.9816 -1.0562  0.7127
 2224TIP3    H228308   0.956   1.365   0.826  1.0225 -1.3696  1.1035
 2225TIP3   OH228309   4.367   6.233   6.527 -0.3466 -0.4416 -0.1694
 2225TIP3    H128310   4.328   6.147   6.512  0.2855 -0.8004  0.1863
 2225TIP3    H228311   4.293   6.292   6.540 -0.7830 -0.9346 -0.4300
 2226TIP3   OH228312   4.412   3.341   1.102 -0.0487  0.0153 -0.3874
 2226TIP3    H128313   4.385   3.284   1.029  0.0224 -0.4811 -0.0257
 2226TIP3    H228314   4.376   3.299   1.180 -1.1744  1.1988 -0.2499
 2227TIP3   OH228315   7.060   6.874   6.359 -0.1604 -0.1784  0.5121
 2227TIP3    H128316   7.103   6.943   6.309  0.2409  0.6419  1.9589
 2227TIP3    H228317   6.972   6.869   6.322 -0.0043  0.6865  0.0023
 2228TIP3   OH228318   2.706   3.832   8.090 -0.5868  0.0531  0.0378
 2228TIP3    H128319   2.683   3.762   8.029 -0.5290  0.2673 -0.2334
 2228TIP3    H228320   2.688   3.795   8.177 -0.3797 -0.3616 -0.0926
 2229TIP3   OH228321   3.171   4.402   6.838  0.0176  0.0604  0.1844
 2229TIP3    H128322   3.112   4.413   6.764  0.2127  1.1340  0.1830
 2229TIP3    H228323   3.191   4.308   6.839 -0.5539 -0.0750 -0.6773
 2230TIP3   OH228324   4.190   2.975   0.121 -0.3859 -0.2155 -0.9584
 2230TIP3    H128325   4.111   2.959   0.070 -1.7565  5.9940 -1.2318
 2230TIP3    H228326   4.243   3.032   0.066  0.1225  2.9782  2.5595
 2231TIP3   OH228327   4.443   1.390   0.859  0.5390 -0.3837 -0.0779
 2231TIP3    H128328   4.417   1.398   0.951 -0.6890 -0.0423 -0.4489
 2231TIP3    H228329   4.361   1.375   0.812  0.7536  2.6805 -1.5192
 2232TIP3   OH228330   6.047   7.075   6.468  0.2659 -0.0090  0.1410
 2232TIP3    H128331   6.128   7.030   6.492 -0.9316 -1.6393  1.2795
 2232TIP3    H228332   6.044   7.152   6.525  1.0874  0.1245 -0.0024
 2233TIP3   OH228333   4.892   0.222   1.020  0.5709  0.2236 -0.1738
 2233TIP3    H128334   4.826   0.164   0.982 -0.6798  0.6284  1.3402
 2233TIP3    H228335   4.918   0.178   1.102  0.5600  1.1430  0.3326
 2234TIP3   OH228336   6.647   4.252   0.141  0.0331  0.1693  0.0047
 2234TIP3    H128337   6.604   4.329   0.178  1.0909  0.9144 -0.3091
 2234TIP3    H228338   6.728   4.285   0.103 -0.1557 -0.8832 -1.3478
 2235TIP3   OH228339   4.447   5.833   6.192 -0.2511  0.1958  0.4994
 2235TIP3    H128340   4.541   5.818   6.187 -0.2682  0.3801 -0.4152
 2235TIP3    H228341   4.418   5.781   6.267  0.4406 -0.5415  0.2554
 2236TIP3   OH228342   3.903   6.038   6.274 -0.1925  0.3077  0.6452
 2236TIP3    H128343   3.955   6.097   6.219 -0.1055 -0.5506 -0.2074
 2236TIP3    H228344   3.851   5.987   6.212 -2.5182  1.5664  1.5011
 2237TIP3   OH228345   4.120   0.721   0.654  0.1002  0.4787  0.3746
 2237TIP3    H128346   4.203   0.767   0.669  0.7399 -0.5181 -0.0519
 2237TIP3    H228347   4.053   0.786   0.675  0.9838  1.3910  0.4440
 2238TIP3   OH228348   3.241   6.979   1.411  0.1437 -0.5717  0.2339
 2238TIP3    H128349   3.150   6.948   1.405 -0.4325  0.7646  1.4735
 2238TIP3    H228350   3.245   7.022   1.497  0.8883  2.7138 -1.3635
 2239TIP3   OH228351   4.322   1.489   6.514 -0.1888 -0.6053  0.0619
 2239TIP3    H128352   4.266   1.428   6.562 -0.8413 -0.7476 -0.8588
 2239TIP3    H228353   4.395   1.507   6.574 -1.4660 -0.0345  1.4776
 2240TIP3   OH228354   1.258   3.342   7.899 -0.2503  0.1851  0.2879
 2240TIP3    H128355   1.164   3.356   7.913 -0.0378  1.7851  0.2076
 2240TIP3    H228356   1.263   3.258   7.853 -1.8149  1.2738 -1.9727
 2241TIP3   OH228357   2.435   5.850   0.269  0.4397  0.0787 -0.0941
 2241TIP3    H128358   2.446   5.807   0.354 -2.5106 -0.1911  0.1889
 2241TIP3    H228359   2.439   5.943   0.288 -0.6178  0.0245  0.4138
 2242TIP3   OH228360   2.278   4.406   6.307 -0.0046 -0.5330  0.0332
 2242TIP3    H128361   2.252   4.332   6.362  0.8112 -1.1474 -0.3913
 2242TIP3    H228362   2.373   4.404   6.309  0.0259 -0.4180 -1.2108
 2243TIP3   OH228363   3.283   4.119   0.906  0.2763 -0.3457 -0.0066
 2243TIP3    H128364   3.244   4.180   0.844  1.8700  1.2159  0.4813
 2243TIP3    H228365   3.319   4.049   0.852  1.9389  1.1615 -0.8903
 2244TIP3   OH228366   0.061   4.054   7.117  0.4638 -0.1633  0.1559
 2244TIP3    H128367   0.120   4.128   7.115 -1.1491  1.1249 -1.6301
 2244TIP3    H228368  -0.003   4.076   7.186 -0.8665  0.8125 -1.3665
 2245TIP3   OH228369   4.482   3.465   7.690  0.7381 -0.3265 -0.8020
 2245TIP3    H128370   4.405   3.488   7.639 -0.4555  0.4024  1.2813
 2245TIP3    H228371   4.457   3.386   7.738  0.6246  0.9113  1.2429
 2246TIP3   OH228372   5.178   5.769   0.907 -0.1060 -0.7727  0.2269
 2246TIP3    H128373   5.170   5.822   0.987  1.0310  2.3062 -1.5955
 2246TIP3    H228374   5.261   5.797   0.869 -0.8825 -1.8004 -2.2895
 2247TIP3   OH228375   5.911   6.237   6.920 -0.0192  0.0889  0.2133
 2247TIP3    H128376   5.818   6.238   6.898 -0.0950 -0.4021  0.5007
 2247TIP3    H228377   5.930   6.326   6.948 -0.6055 -0.0196  0.9675
 2248TIP3   OH228378   5.467   2.023   0.705 -0.4894  1.0098 -0.6073
 2248TIP3    H128379   5.555   2.001   0.735 -0.3245  1.5509 -0.6822
 2248TIP3    H228380   5.426   1.939   0.686  0.2150  0.7817 -1.1501
 2249TIP3   OH228381   4.336   4.601   0.088  0.3819 -0.1970 -0.5156
 2249TIP3    H128382   4.293   4.633   0.008  0.5792  1.6610  0.0961
 2249TIP3    H228383   4.430   4.605   0.068  0.5168  2.2243  0.4987
 2250TIP3   OH228384   5.742   1.549   0.966 -0.2476  0.0597 -0.7199
 2250TIP3    H128385   5.752   1.502   0.882  2.1696  0.0234 -0.4535
 2250TIP3    H228386   5.732   1.479   1.031  2.3777 -0.1389 -0.4499
 2251TIP3   OH228387   3.302   2.376   7.618  0.5172 -0.1426  0.5254
 2251TIP3    H128388   3.306   2.287   7.583  2.9516 -0.2773  1.0607
 2251TIP3    H228389   3.351   2.372   7.700  2.1469  2.0571 -0.2872
 2252TIP3   OH228390   4.168   5.902   5.929  0.3215  0.1674 -0.4678
 2252TIP3    H128391   4.198   5.986   5.894 -0.1300 -0.4962 -2.5153
 2252TIP3    H228392   4.239   5.840   5.909 -0.3736 -0.4288 -1.1057
 2253TIP3   OH228393   4.033   5.880   0.200 -0.1927 -0.4800 -0.1566
 2253TIP3    H128394   4.029   5.785   0.189 -0.4102 -0.5173  0.2604
 2253TIP3    H228395   4.087   5.910   0.126 -1.9392 -0.6980 -1.5484
 2254TIP3   OH228396   5.967   6.494   0.618  0.1579  1.0275 -0.0466
 2254TIP3    H128397   5.993   6.461   0.704 -1.7213  0.2616  0.2620
 2254TIP3    H228398   6.043   6.479   0.563  0.4953 -0.8805  0.8830
 2255TIP3   OH228399   4.741   1.883   7.602  0.0527  0.3098 -0.5564
 2255TIP3    H128400   4.771   1.851   7.517  1.8247 -0.4788  0.3312
 2255TIP3    H228401   4.707   1.806   7.647 -0.6634  0.6789 -0.4609
 2256TIP3   OH228402   0.330   5.702   1.359 -0.9709  0.5264 -0.2984
 2256TIP3    H128403   0.328   5.609   1.381 -2.6888  0.9145  1.3340
 2256TIP3    H228404   0.320   5.705   1.264 -1.2613 -0.9413 -0.3280
 2257TIP3   OH228405   4.830   3.478   7.102 -0.4968 -0.1777  0.4550
 2257TIP3    H128406   4.916   3.520   7.106  0.0785 -1.1459 -1.0034
 2257TIP3    H228407   4.827   3.421   7.179  0.1015 -0.0094  0.6078
 2258TIP3   OH228408   6.180   4.867   5.825 -0.4750  0.1624  0.1466
 2258TIP3    H128409   6.185   4.837   5.915 -0.4863 -0.6468 -0.1167
 2258TIP3    H228410   6.206   4.959   5.828 -0.0678  0.0202  0.9113
 2259TIP3   OH228411   6.436   1.896   6.822  0.1065  0.3925 -0.2982
 2259TIP3    H128412   6.362   1.937   6.867 -1.0453 -1.5986 -0.3219
 2259TIP3    H228413   6.420   1.913   6.729 -0.7173 -0.6651 -0.3528
 2260TIP3   OH228414   5.406   7.027   6.619  0.0675  0.8950 -0.0993
 2260TIP3    H128415   5.457   6.947   6.606  2.3102  1.8332  2.4000
 2260TIP3    H228416   5.462   7.096   6.584 -1.0813  1.5952 -0.5969
 2261TIP3   OH228417   4.446   6.378   6.064 -0.6572 -0.5977 -0.1229
 2261TIP3    H128418   4.420   6.290   6.090 -1.0287 -0.0798  1.3438
 2261TIP3    H228419   4.527   6.366   6.014  0.0751 -1.6731  1.2701
 2262TIP3   OH228420   4.161   2.902   0.440 -0.2617 -0.4790  0.2073
 2262TIP3    H128421   4.245   2.911   0.395  0.4649 -0.3737  1.5365
 2262TIP3    H228422   4.175   2.946   0.524 -1.4636 -0.9700  0.6736
 2263TIP3   OH228423   5.216   4.228   5.408  0.1357  0.2440 -0.2548
 2263TIP3    H128424   5.189   4.317   5.386  1.2693  0.5356 -0.5494
 2263TIP3    H228425   5.292   4.240   5.465  0.5056 -0.5311 -0.5757
 2264TIP3   OH228426   5.781   4.985   6.252 -0.0921  0.0420  0.3977
 2264TIP3    H128427   5.856   4.926   6.258  1.5320  1.9304 -0.7416
 2264TIP3    H228428   5.742   4.966   6.166 -0.3590 -0.2747  0.5868
 2265TIP3   OH228429   1.146   0.896   6.311 -0.3586 -0.1443 -0.1083
 2265TIP3    H128430   1.221   0.891   6.370  0.3820 -2.2913 -1.2126
 2265TIP3    H228431   1.086   0.956   6.355  2.0612  1.7815  0.7004
 2266TIP3   OH228432   1.427   2.098   6.328  0.0883 -0.4644 -0.2232
 2266TIP3    H128433   1.505   2.128   6.374  0.3082 -0.4199 -0.6193
 2266TIP3    H228434   1.413   2.009   6.360 -0.6524  0.0950  1.0585
 2267TIP3   OH228435   5.667   4.878   0.213  0.3181  0.0361  0.2230
 2267TIP3    H128436   5.696   4.969   0.224  0.1176  0.0338  0.7961
 2267TIP3    H228437   5.571   4.884   0.207  0.3568 -0.0620 -0.5316
 2268TIP3   OH228438   3.985   5.315   6.787 -0.5458 -0.3786 -0.3702
 2268TIP3    H128439   4.076   5.345   6.784 -0.1550 -1.5861 -0.8379
 2268TIP3    H228440   3.935   5.393   6.809  0.9546 -0.4697  3.6773
 2269TIP3   OH228441   4.699   2.593   1.575  0.0506  0.2551 -0.1199
 2269TIP3    H128442   4.762   2.665   1.575  1.1474 -0.6767 -1.2102
 2269TIP3    H228443   4.709   2.552   1.489 -0.9198 -0.8835  0.2904
 2270TIP3   OH228444   3.423   2.989   8.005 -0.1554  0.3947  0.4333
 2270TIP3    H128445   3.476   3.032   7.938  0.7155 -0.3920  0.6083
 2270TIP3    H228446   3.367   3.059   8.039 -0.7159  0.7709 -1.2088
 2271TIP3   OH228447   3.955   4.237   0.047 -0.0896 -0.8812  0.0222
 2271TIP3    H128448   3.874   4.196   0.076 -2.1532  1.5177 -2.1267
 2271TIP3    H228449   3.971   4.306   0.111 -0.9927  0.0791 -0.7668
 2272TIP3   OH228450   6.261   0.973   7.036 -0.1270  0.2416  0.0817
 2272TIP3    H128451   6.255   1.065   7.011  1.4829  0.1930 -0.5395
 2272TIP3    H228452   6.233   0.925   6.957 -1.6385  0.1924  0.6289
 2273TIP3   OH228453   0.172   4.237   0.750  0.1089 -0.0826 -0.0114
 2273TIP3    H128454   0.086   4.276   0.767 -0.2855 -0.6065 -0.7910
 2273TIP3    H228455   0.152   4.153   0.709  0.9629 -0.7958  1.0075
 2274TIP3   OH228456   2.576   3.896   6.442 -0.1207  0.5508  0.0625
 2274TIP3    H128457   2.631   3.853   6.508 -0.6276  1.1583  0.8909
 2274TIP3    H228458   2.575   3.835   6.368 -0.7567 -0.8094  1.1935
 2275TIP3   OH228459   4.943   2.697   5.665  0.4976 -0.3313 -0.3729
 2275TIP3    H128460   5.020   2.653   5.702  0.3287  0.2396  0.6711
 2275TIP3    H228461   4.958   2.694   5.570  2.6141  1.1984 -0.1194
 2276TIP3   OH228462   7.131   0.563   6.231 -0.1331 -0.4777  0.2330
 2276TIP3    H128463   7.189   0.499   6.191 -1.5802 -1.0394 -1.0552
 2276TIP3    H228464   7.170   0.648   6.210  1.2968 -0.8901  1.1520
 2277TIP3   OH228465   1.671   4.908   6.649 -0.4232  0.3864  0.2251
 2277TIP3    H128466   1.687   4.924   6.556  3.7576 -0.7781  0.6238
 2277TIP3    H228467   1.738   4.960   6.693 -0.5447 -1.2685  2.4257
 2278TIP3   OH228468   4.726   4.786   6.181 -0.2829 -0.1065 -0.0705
 2278TIP3    H128469   4.810   4.802   6.223  0.3267 -2.1282 -0.4643
 2278TIP3    H228470   4.679   4.731   6.243 -0.1503 -1.4467 -1.1375
 2279TIP3   OH228471   2.198   3.897   7.560  0.0787 -0.2177 -0.3728
 2279TIP3    H128472   2.234   3.830   7.501 -0.7760 -1.4988  0.5481
 2279TIP3    H228473   2.111   3.914   7.526 -0.7131 -1.5272  0.9648
 2280TIP3   OH228474   4.582   3.370   6.616  0.1581 -0.1884 -0.2625
 2280TIP3    H128475   4.624   3.456   6.620  1.4681 -0.7669 -1.5805
 2280TIP3    H228476   4.574   3.351   6.523  0.4961 -1.8037  0.0210
 2281TIP3   OH228477   6.183   0.370   7.865  0.0945 -0.7807  0.8891
 2281TIP3    H128478   6.160   0.364   7.957  1.2610 -1.0359  1.1642
 2281TIP3    H228479   6.099   0.360   7.819 -0.4672 -0.8020  1.9066
 2282TIP3   OH228480   3.989   3.736   0.149 -0.1795  0.2408 -0.4619
 2282TIP3    H128481   3.969   3.664   0.209 -0.2775  0.3293 -0.3879
 2282TIP3    H228482   3.967   3.702   0.063 -1.5565  0.6745 -0.2849
 2283TIP3   OH228483   1.513   5.122   0.554 -0.5799 -0.3602  0.3222
 2283TIP3    H128484   1.586   5.107   0.614 -0.7101 -0.7166  0.3928
 2283TIP3    H228485   1.522   5.214   0.527 -0.7504 -0.0777  1.1954
 2284TIP3   OH228486   6.760   5.074   7.342 -0.4698  0.0015 -0.0174
 2284TIP3    H128487   6.785   5.161   7.312  0.0102 -0.5372 -1.2438
 2284TIP3    H228488   6.838   5.020   7.327 -1.1234 -0.8720 -0.3387
 2285TIP3   OH228489   4.049   5.293   1.125  0.4914  0.1732 -0.1713
 2285TIP3    H128490   3.966   5.308   1.080 -0.1873 -0.3320  0.8843
 2285TIP3    H228491   4.080   5.209   1.089 -0.0605 -0.2433  0.3076
 2286TIP3   OH228492   5.438   5.353   6.103 -0.4336  0.5527  0.3374
 2286TIP3    H128493   5.484   5.399   6.032 -0.0024 -0.7440 -0.2454
 2286TIP3    H228494   5.355   5.326   6.063 -0.3477  0.1475  0.4315
 2287TIP3   OH228495   4.778   4.039   6.687  0.0619  0.1111 -0.4608
 2287TIP3    H128496   4.869   4.028   6.715 -0.2727 -1.9129 -0.1479
 2287TIP3    H228497   4.749   3.951   6.663 -1.2892  1.0003 -2.1870
 2288TIP3   OH228498   0.907   5.664   0.486 -0.3671 -0.2189  0.3389
 2288TIP3    H128499   0.980   5.696   0.433 -0.1244  0.2435  0.9399
 2288TIP3    H228500   0.829   5.700   0.444 -0.2800 -0.9546 -0.4772
 2289TIP3   OH228501   7.124   6.375   7.163 -0.1329 -0.5986 -0.1001
 2289TIP3    H128502   7.177   6.338   7.233 -1.4042 -1.1379  0.6071
 2289TIP3    H228503   7.096   6.299   7.112  0.4574 -0.2415 -0.9614
 2290TIP3   OH228504   1.520   4.664   7.200 -0.1562 -0.2805  0.1182
 2290TIP3    H128505   1.495   4.605   7.272  2.8332  0.4246  1.8287
 2290TIP3    H228506   1.579   4.611   7.146 -2.8148 -0.9863 -2.2159
 2291TIP3   OH228507   4.232   0.043   2.360  0.0858 -0.2734 -0.9520
 2291TIP3    H128508   4.186   0.115   2.319 -0.4821 -0.7768 -1.1930
 2291TIP3    H228509   4.323   0.073   2.366  0.1187 -0.1032 -2.3339
 2292TIP3   OH228510   5.697   3.688   5.905  0.5330 -0.2807 -0.2919
 2292TIP3    H128511   5.687   3.617   5.842  2.8084 -0.1852 -0.7688
 2292TIP3    H228512   5.748   3.755   5.860  2.2803 -0.2485  1.6531
 2293TIP3   OH228513   5.538   1.088   7.448  0.0155 -0.0375 -0.6631
 2293TIP3    H128514   5.530   1.001   7.409 -0.3775  0.1065 -0.9040
 2293TIP3    H228515   5.508   1.076   7.538  1.1295 -0.4164 -0.3378
 2294TIP3   OH228516   4.277   3.530   6.933  0.7838  0.0586 -0.7547
 2294TIP3    H128517   4.269   3.484   6.849  0.2528 -1.6932  0.2276
 2294TIP3    H228518   4.308   3.463   6.994  0.9411  1.2603  0.5088
 2295TIP3   OH228519   5.266   3.638   1.825  0.0818 -0.0002  0.8390
 2295TIP3    H128520   5.327   3.647   1.898 -0.0968 -1.5900  1.2022
 2295TIP3    H228521   5.184   3.612   1.865  0.0763 -1.2544  0.0436
 2296TIP3   OH228522   4.203   3.303   5.535  0.1042 -0.5410 -0.4337
 2296TIP3    H128523   4.238   3.289   5.447 -2.1548 -0.2090 -1.4172
 2296TIP3    H228524   4.174   3.217   5.563  2.9020 -1.0947  0.9676
 2297TIP3   OH228525   6.420   5.335   0.506 -0.4160  0.3190  0.1544
 2297TIP3    H128526   6.438   5.326   0.599 -2.0438  0.1510  0.4546
 2297TIP3    H228527   6.336   5.381   0.501  0.5822  2.1090 -1.2497
 2298TIP3   OH228528   6.380   3.945   1.503  0.0862 -0.3166  0.1295
 2298TIP3    H128529   6.323   3.972   1.432  0.0987 -0.7130 -0.0337
 2298TIP3    H228530   6.460   3.997   1.492  0.2747 -0.7164 -0.4258
 2299TIP3   OH228531   5.742   3.848   7.201  0.2693  0.2871  0.3536
 2299TIP3    H128532   5.800   3.901   7.256  0.3457  0.6478 -0.0696
 2299TIP3    H228533   5.793   3.831   7.122 -0.0181  0.1795  0.1930
 2300TIP3   OH228534   4.721   3.868   7.826  0.0412 -0.1712 -0.1737
 2300TIP3    H128535   4.698   3.850   7.917  0.9366  1.2477  0.3561
 2300TIP3    H228536   4.637   3.880   7.782 -0.3540  1.5192  0.9903
 2301TIP3   OH228537   2.991   4.169   6.176 -0.8626  0.2038 -0.2720
 2301TIP3    H128538   2.947   4.096   6.219 -0.4245  0.9308  1.4525
 2301TIP3    H228539   3.078   4.135   6.153 -1.4690 -0.5100 -1.5760
 2302TIP3   OH228540   4.056   4.980   0.781 -0.1582 -0.5468 -0.6620
 2302TIP3    H128541   4.029   5.039   0.852  2.5011  0.4665 -0.4651
 2302TIP3    H228542   4.036   4.892   0.815  0.6435 -0.0490  1.1766
 2303TIP3   OH228543   4.795   2.126   7.658 -0.4396  0.1658 -0.1902
 2303TIP3    H128544   4.714   2.175   7.643 -0.8424 -0.6435 -0.6973
 2303TIP3    H228545   4.773   2.036   7.636  0.2778 -0.2625  0.8104
 2304TIP3   OH228546   4.172   1.535   6.212 -0.2570  0.5670  0.0125
 2304TIP3    H128547   4.199   1.444   6.202 -1.3369  0.0763  1.3701
 2304TIP3    H228548   4.245   1.586   6.178 -0.1966 -0.8251 -2.0315
 2305TIP3   OH228549   6.179   2.610   0.197 -0.0617  0.1614 -0.0390
 2305TIP3    H128550   6.139   2.559   0.267  0.5176  0.1763  0.3123
 2305TIP3    H228551   6.122   2.598   0.122 -0.1597 -0.6588  0.1635
 2306TIP3   OH228552   6.927   0.027   0.439 -0.1935 -0.2018  0.4439
 2306TIP3    H128553   6.949   0.111   0.479  1.8598  0.2600 -1.5228
 2306TIP3    H228554   6.956   0.035   0.348  1.7878 -3.6686  0.6726
 2307TIP3   OH228555   3.900   2.651   8.042  0.0011  0.0227  0.6407
 2307TIP3    H128556   3.839   2.619   8.109 -0.4408 -0.1415  0.1668
 2307TIP3    H228557   3.953   2.574   8.019  0.4821  0.2020  1.1569
 2308TIP3   OH228558   4.902   4.939   0.624  0.0960  0.6562 -0.4953
 2308TIP3    H128559   4.907   4.975   0.712  0.6179 -1.4666  0.3614
 2308TIP3    H228560   4.810   4.919   0.611  0.4780 -2.3378  0.9679
 2309TIP3   OH228561   4.702   3.682   1.592 -0.6122  0.2454  0.1907
 2309TIP3    H128562   4.634   3.706   1.655 -0.4073 -0.9128  0.8584
 2309TIP3    H228563   4.713   3.588   1.603  0.0147  0.1766 -0.9989
 2310TIP3   OH228564   1.356   6.430   8.069 -0.2529  0.0008 -0.1737
 2310TIP3    H128565   1.302   6.406   7.994  1.0028  1.6800 -1.6865
 2310TIP3    H228566   1.294   6.458   8.136 -1.4434 -2.3629 -0.2241
 2311TIP3   OH228567   5.703   1.262   6.694 -0.3308 -0.1797 -0.0975
 2311TIP3    H128568   5.718   1.350   6.660  0.5463 -0.2871  0.0169
 2311TIP3    H228569   5.629   1.273   6.755 -0.6118  0.3638 -0.5246
 2312TIP3   OH228570   6.572   1.492   0.157  0.3398  0.3321 -0.0107
 2312TIP3    H128571   6.509   1.438   0.205  0.2257  0.4195 -0.0624
 2312TIP3    H228572   6.651   1.489   0.210  0.6348 -0.6733 -0.5013
 2313TIP3   OH228573   1.272   4.382   7.829  0.5442  0.5103 -0.0354
 2313TIP3    H128574   1.203   4.317   7.817 -0.2782  1.4146 -0.2941
 2313TIP3    H228575   1.277   4.394   7.924 -0.5964  1.4217 -0.0750
 2314TIP3   OH228576   6.945   6.841   6.621  0.3478  0.3976 -0.2171
 2314TIP3    H128577   6.970   6.753   6.650 -1.9554 -0.1043  0.3122
 2314TIP3    H228578   6.985   6.850   6.535  1.1676 -0.9107  0.0149
 2315TIP3   OH228579   6.289   6.011   0.278 -0.3713 -0.1957 -0.8340
 2315TIP3    H128580   6.325   6.089   0.321 -1.7566  0.2356 -0.4514
 2315TIP3    H228581   6.271   6.039   0.188 -0.3252 -0.2516 -0.8613
 2316TIP3   OH228582   2.141   4.753   5.718  0.0628  0.7409  0.3820
 2316TIP3    H128583   2.229   4.714   5.717  0.6076  1.9391 -0.8511
 2316TIP3    H228584   2.157   4.847   5.722 -1.1428  0.9866 -0.3249
 2317TIP3   OH228585   3.617   6.123   6.613 -0.3888  0.0821  0.9021
 2317TIP3    H128586   3.566   6.204   6.614 -1.1768 -0.4186  1.2077
 2317TIP3    H228587   3.701   6.148   6.573 -1.2187  0.6922 -0.4915
 2318TIP3   OH228588   6.539   0.937   7.416 -0.4126  0.0507 -0.2733
 2318TIP3    H128589   6.540   0.849   7.454  0.7519  0.2439  0.1516
 2318TIP3    H228590   6.486   0.927   7.337 -0.2122 -1.0528 -0.2881
 2319TIP3   OH228591   2.292   2.867   1.827  0.3602 -0.3237 -0.0399
 2319TIP3    H128592   2.331   2.934   1.882 -2.2192 -0.0832  1.5786
 2319TIP3    H228593   2.259   2.801   1.888 -2.8628  0.1066 -1.1935
 2320TIP3   OH228594   6.614   2.862   6.523 -0.3162  0.2726  0.2771
 2320TIP3    H128595   6.644   2.820   6.443  0.1206 -1.0923  1.1392
 2320TIP3    H228596   6.632   2.798   6.592 -2.5864  0.5612  1.1942
 2321TIP3   OH228597   0.575   3.451   6.275 -0.2166 -0.0880  0.4605
 2321TIP3    H128598   0.658   3.429   6.235 -0.1499  2.2755 -0.7823
 2321TIP3    H228599   0.516   3.380   6.249  0.9357 -0.8156 -0.1956
 2322TIP3   OH228600   5.382   2.748   8.120  0.0206 -0.7951  0.7199
 2322TIP3    H128601   5.473   2.720   8.118 -0.0242 -1.0399  1.9071
 2322TIP3    H228602   5.332   2.669   8.101  0.0807 -0.4047 -1.2273
 2323TIP3   OH228603   4.109   0.606   0.318  0.0155  0.1432 -0.1457
 2323TIP3    H128604   4.057   0.591   0.239  1.2230  2.9439 -1.5344
 2323TIP3    H228605   4.046   0.643   0.381 -0.1888  1.3726 -1.0525
 2324TIP3   OH228606   4.696   3.835   8.093 -0.0260 -0.1355 -0.4901
 2324TIP3    H128607   4.640   3.760   8.116 -0.9059  0.4595 -0.6679
 2324TIP3    H228608   4.681   3.898   8.163  2.7995 -1.1845  1.1574
 2325TIP3   OH228609   5.201   2.502   6.798  0.1451 -1.2142  0.3873
 2325TIP3    H128610   5.183   2.524   6.707 -0.0074 -1.7850  0.2779
 2325TIP3    H228611   5.114   2.495   6.839  0.2423  0.2879  0.8762
 2326TIP3   OH228612   0.712   4.578   1.437 -0.1870  0.1216  0.1106
 2326TIP3    H128613   0.718   4.671   1.459 -0.3526  0.3530 -0.7825
 2326TIP3    H228614   0.628   4.569   1.392 -0.8037 -0.7234  1.4121
 2327TIP3   OH228615   3.146   5.694   0.575 -0.2830  0.0498  0.3659
 2327TIP3    H128616   3.178   5.772   0.620 -0.0522 -0.0038  0.2964
 2327TIP3    H228617   3.181   5.621   0.627  0.0252 -0.0130  0.0701
 2328TIP3   OH228618   6.515   6.450   6.246 -0.1557  0.2361 -0.1014
 2328TIP3    H128619   6.487   6.479   6.159 -1.1979  1.0820  0.4887
 2328TIP3    H228620   6.517   6.355   6.241  0.0893  0.2933 -1.1356
 2329TIP3   OH228621   2.771   4.122   2.089 -0.3760 -0.1006  0.3893
 2329TIP3    H128622   2.798   4.080   2.171  0.9671  0.7937  0.4173
 2329TIP3    H228623   2.779   4.215   2.106 -0.6773  0.1006 -0.5716
 2330TIP3   OH228624   0.737   3.046   6.141 -0.8837 -0.4839  0.3769
 2330TIP3    H128625   0.798   3.119   6.126  1.0917 -1.1638  4.4385
 2330TIP3    H228626   0.777   2.972   6.095 -1.8856  0.4792 -2.1178
 2331TIP3   OH228627   5.255   3.631   7.308 -0.6789 -1.0808  0.0697
 2331TIP3    H128628   5.339   3.590   7.287 -0.4881 -0.4846 -0.3743
 2331TIP3    H228629   5.278   3.718   7.341 -1.1111 -0.9853  0.1282
 2332TIP3   OH228630   0.550   4.311   0.402  0.5669 -0.0036  0.0246
 2332TIP3    H128631   0.507   4.237   0.445 -0.6134  1.2617  1.0838
 2332TIP3    H228632   0.502   4.324   0.321 -2.0746  2.2974  1.8548
 2333TIP3   OH228633   4.069   4.589   6.836 -0.2666 -0.0405 -0.1465
 2333TIP3    H128634   4.146   4.586   6.892  0.8972  0.8858 -1.6723
 2333TIP3    H228635   4.047   4.497   6.820  0.4722 -0.3026  0.3387
 2334TIP3   OH228636   0.095   5.522   7.805 -0.3108 -0.1798  0.3991
 2334TIP3    H128637   0.048   5.572   7.739 -1.0425 -1.0578  0.2557
 2334TIP3    H228638   0.158   5.470   7.755 -1.3432 -1.3695  0.3358
 2335TIP3   OH228639   5.606   2.850   5.574 -0.0359  0.6439  0.3532
 2335TIP3    H128640   5.557   2.795   5.636  0.3171  1.2546  1.1691
 2335TIP3    H228641   5.553   2.929   5.565 -0.1672  0.4914 -0.2563
 2336TIP3   OH228642   5.988   6.757   1.377  0.1458  0.5278  0.1905
 2336TIP3    H128643   6.063   6.800   1.338 -0.0092  0.5577 -0.0753
 2336TIP3    H228644   6.014   6.740   1.468  2.0513 -3.1302 -0.9451
 2337TIP3   OH228645   6.267   5.774   7.821 -0.1745 -0.3188 -0.2286
 2337TIP3    H128646   6.325   5.850   7.817 -1.1413  0.3284 -3.3574
 2337TIP3    H228647   6.272   5.735   7.734 -0.5061 -3.2794  1.0051
 2338TIP3   OH228648   5.570   4.904   6.424 -0.3805  0.1381  0.0270
 2338TIP3    H128649   5.499   4.967   6.427 -0.1677  0.6070 -3.3787
 2338TIP3    H228650   5.640   4.948   6.377  1.5500 -0.9602  1.7572
 2339TIP3   OH228651   1.057   2.113   1.516  0.6288 -0.0014  0.1591
 2339TIP3    H128652   0.986   2.177   1.514  0.7975  0.2393  1.2322
 2339TIP3    H228653   1.132   2.159   1.478  0.4099 -0.0102 -0.2887
 2340TIP3   OH228654   5.807   2.088   0.341  0.1180  0.4565 -0.0499
 2340TIP3    H128655   5.757   2.115   0.418  0.9389  1.3695  0.1786
 2340TIP3    H228656   5.790   1.994   0.333 -0.3722  0.4539  0.9517
 2341TIP3   OH228657   4.678   0.026   1.055  0.3363 -0.8417 -0.1531
 2341TIP3    H128658   4.617   0.069   1.116  1.4223 -1.2475  1.2277
 2341TIP3    H228659   4.648   0.054   0.969 -0.1746  1.1438  0.6323
 2342TIP3   OH228660   0.211   3.329   0.424  0.0109 -0.2865 -0.2551
 2342TIP3    H128661   0.187   3.269   0.494  0.0337  0.4891  0.4233
 2342TIP3    H228662   0.173   3.413   0.450 -2.0154 -0.5250 -2.3322
 2343TIP3   OH228663   0.997   2.991   6.581 -0.1207  0.3512 -0.5494
 2343TIP3    H128664   1.043   3.073   6.562 -1.4320  0.7117 -2.3267
 2343TIP3    H228665   0.993   2.946   6.496 -1.4588 -0.4831 -0.0598
 2344TIP3   OH228666   5.832   1.565   7.331 -0.1557  0.4299 -0.0672
 2344TIP3    H128667   5.786   1.631   7.382  1.2081  2.0299 -0.8670
 2344TIP3    H228668   5.779   1.486   7.341 -2.3947  1.8998  0.0408
 2345TIP3   OH228669   3.578   5.886   6.510  0.3856  0.1668 -0.7639
 2345TIP3    H128670   3.595   5.965   6.562  0.3374 -0.1958 -0.1914
 2345TIP3    H228671   3.574   5.816   6.575 -1.0543 -0.0837 -1.1104
 2346TIP3   OH228672   1.861   5.011   6.810  0.2893 -0.0023 -0.2686
 2346TIP3    H128673   1.883   5.058   6.891 -1.3212  0.4026 -0.0504
 2346TIP3    H228674   1.908   4.928   6.817  1.9258  0.9249  0.0556
 2347TIP3   OH228675   5.813   5.842   6.949  0.3061  0.3618 -0.2775
 2347TIP3    H128676   5.843   5.901   7.018  1.2448  1.2622 -1.4332
 2347TIP3    H228677   5.718   5.844   6.954  0.3360 -1.6155  2.6906
 2348TIP3   OH228678   6.980   6.237   6.962 -0.0003  0.1906  0.1853
 2348TIP3    H128679   6.964   6.310   6.902 -2.0975  0.5715  1.1704
 2348TIP3    H228680   6.923   6.167   6.930  2.3054 -1.1968 -1.0038
 2349TIP3   OH228681   5.394   5.038   7.537 -0.5757 -0.5967 -0.0530
 2349TIP3    H128682   5.444   5.044   7.455  1.4694 -0.6013  1.1446
 2349TIP3    H228683   5.352   4.952   7.534  0.6946 -1.2144 -0.4326
 2350TIP3   OH228684   6.090   5.816   7.151 -0.3865 -0.2102 -0.4290
 2350TIP3    H128685   6.160   5.857   7.202 -0.4837 -0.5208 -0.0425
 2350TIP3    H228686   6.085   5.869   7.071 -0.4579  0.4828  0.0290
 2351TIP3   OH228687   2.484   4.616   7.466  0.1109 -0.7922  0.1868
 2351TIP3    H128688   2.393   4.594   7.482 -0.2174 -0.0386 -0.6531
 2351TIP3    H228689   2.525   4.615   7.553 -0.7109 -1.0175  0.5701
 2352TIP3   OH228690   0.193   3.924   6.253  0.2036 -0.6401  0.1023
 2352TIP3    H128691   0.220   3.968   6.173  0.5933  3.2082  2.2222
 2352TIP3    H228692   0.100   3.906   6.240  0.1529  0.3617 -1.0353
 2353TIP3   OH228693   1.980   2.999   6.992  0.1747 -0.0784  0.6497
 2353TIP3    H128694   1.987   3.092   7.009 -0.4088  0.0158  0.4089
 2353TIP3    H228695   1.965   2.993   6.898  2.5784 -0.5476  0.2763
 2354TIP3   OH228696   5.353   4.538   8.041 -0.2025 -0.2428  0.1955
 2354TIP3    H128697   5.370   4.588   7.961  0.0741 -0.9098 -0.1681
 2354TIP3    H228698   5.428   4.555   8.097  0.4237 -1.1154 -0.3673
 2355TIP3   OH228699   2.159   0.039   6.510 -0.3665 -0.4225 -0.0663
 2355TIP3    H128700   2.157   0.084   6.595  1.7588  2.1889 -1.3184
 2355TIP3    H228701   2.126  -0.049   6.529 -0.8009  0.3785  3.2820
 2356TIP3   OH228702   5.879   5.013   7.692  0.5984 -0.5168 -0.0658
 2356TIP3    H128703   5.911   4.968   7.614 -1.2012 -1.2708 -0.4025
 2356TIP3    H228704   5.807   5.068   7.660  0.3455 -0.2559  0.9350
 2357TIP3   OH228705   0.896   2.732   2.306 -0.5117 -0.1121 -0.7482
 2357TIP3    H128706   0.884   2.784   2.226  2.1725  0.7587 -0.6356
 2357TIP3    H228707   0.926   2.795   2.371  0.5444 -1.3924  0.0344
 2358TIP3   OH228708   4.703   4.200   7.929 -0.1806  0.2584 -0.4208
 2358TIP3    H128709   4.711   4.158   7.843 -1.8058  0.2651 -0.5826
 2358TIP3    H228710   4.633   4.152   7.973  1.7974 -0.8717  1.5762
 2359TIP3   OH228711   4.689   4.385   6.236  0.5249  0.1819 -0.8450
 2359TIP3    H128712   4.777   4.351   6.218  0.3544 -0.1157 -1.1088
 2359TIP3    H228713   4.704   4.460   6.294  0.9781  0.3291 -1.1453
 2360TIP3   OH228714   2.145   6.609   6.925  0.6277  0.1067  0.5048
 2360TIP3    H128715   2.148   6.515   6.945 -0.9862  0.2480  1.5097
 2360TIP3    H228716   2.133   6.652   7.009 -2.9329  0.9223 -0.3257
 2361TIP3   OH228717   3.456   3.721   1.795 -0.2346 -0.1204  0.4148
 2361TIP3    H128718   3.537   3.733   1.745 -0.9114 -1.4737 -1.0615
 2361TIP3    H228719   3.458   3.791   1.861  1.8731  0.1814  0.0765
 2362TIP3   OH228720   3.961   6.835   1.010  0.0887  0.0905 -0.4335
 2362TIP3    H128721   4.007   6.768   0.960  0.8654 -0.3254  0.8073
 2362TIP3    H228722   4.014   6.846   1.089 -0.4906  1.5606 -0.2379
 2363TIP3   OH228723   0.099   2.987   6.241  0.1116 -0.7816  0.2247
 2363TIP3    H128724   0.093   3.059   6.304 -1.0569 -1.5445  1.0078
 2363TIP3    H228725   0.193   2.979   6.222  0.1303  2.1268 -1.2684
 2364TIP3   OH228726   6.509   4.067   6.225 -0.2173  0.4580  0.6222
 2364TIP3    H128727   6.423   4.085   6.188  0.5476  1.0154 -0.9305
 2364TIP3    H228728   6.558   4.027   6.154  0.8195  0.1807  1.4834
 2365TIP3   OH228729   4.879   6.210   0.156 -0.4050  0.4278 -0.1253
 2365TIP3    H128730   4.844   6.259   0.082 -1.4445  0.0671  0.1105
 2365TIP3    H228731   4.853   6.119   0.139  0.8708  0.0678 -0.1977
 2366TIP3   OH228732   1.343   5.088   6.950  0.1026 -0.6378  0.4897
 2366TIP3    H128733   1.414   5.143   6.918  0.0906 -0.2657  1.0877
 2366TIP3    H228734   1.267   5.115   6.899 -0.1170  0.5809  1.4380
 2367TIP3   OH228735   3.166   6.292   6.525  0.3755 -0.2976 -0.4422
 2367TIP3    H128736   3.165   6.289   6.429  0.0576  1.0371 -0.4942
 2367TIP3    H228737   3.087   6.341   6.548  2.5578  3.0155  0.3313
 2368TIP3   OH228738   0.943   4.486   6.994  0.4317 -0.8675 -0.2592
 2368TIP3    H128739   0.926   4.392   6.984  0.6410 -1.0270  0.8590
 2368TIP3    H228740   0.967   4.515   6.906 -0.0430 -1.7800 -0.6962
 2369TIP3   OH228741   0.223   3.416   5.602 -0.5101  0.3168  0.3958
 2369TIP3    H128742   0.247   3.323   5.594 -0.2265  0.2081  2.3278
 2369TIP3    H228743   0.127   3.415   5.604 -0.4850 -0.2577  3.5860
 2370TIP3   OH228744   1.730   6.828   6.409 -0.3112 -0.1644 -0.5212
 2370TIP3    H128745   1.678   6.907   6.391  0.0931 -0.0174 -1.0624
 2370TIP3    H228746   1.726   6.819   6.505  0.8409  1.3589 -0.3004
 2371TIP3   OH228747   4.602   2.825   7.952 -0.7183  0.1292  0.0058
 2371TIP3    H128748   4.511   2.846   7.969 -1.2818 -2.4155  0.4388
 2371TIP3    H228749   4.610   2.733   7.978  1.6365 -0.0592 -1.2489
 2372TIP3   OH228750   6.842   5.322   7.603  0.1515 -0.5639 -0.2717
 2372TIP3    H128751   6.845   5.340   7.509  2.4220  0.1874 -0.0825
 2372TIP3    H228752   6.934   5.318   7.629 -0.4432 -2.6450  1.5746
 2373TIP3   OH228753   5.550   4.491   5.537  0.2332 -0.2184 -0.2484
 2373TIP3    H128754   5.587   4.482   5.449  1.3875 -1.4793  0.3500
 2373TIP3    H228755   5.611   4.549   5.583  0.3238 -0.5740  0.0887
 2374TIP3   OH228756   3.049   3.290   7.806  0.0544 -0.7658  0.1507
 2374TIP3    H128757   3.039   3.328   7.893 -0.1947 -1.8611  0.6161
 2374TIP3    H228758   2.973   3.321   7.757 -0.5730 -1.2849  0.7672
 2375TIP3   OH228759   0.951   3.555   1.550  0.5656 -0.4050 -0.1339
 2375TIP3    H128760   1.032   3.597   1.579 -0.7806  2.4701 -0.4051
 2375TIP3    H228761   0.896   3.553   1.629  0.5546 -1.5396 -0.1628
 2376TIP3   OH228762   4.672   4.798   0.648  0.0737  0.0249 -0.4320
 2376TIP3    H128763   4.709   4.742   0.580 -2.7741 -0.7525 -1.3680
 2376TIP3    H228764   4.714   4.768   0.729 -0.3149 -2.4526 -1.1341
 2377TIP3   OH228765   0.934   4.593   6.711 -0.6522  0.2815 -0.6475
 2377TIP3    H128766   0.877   4.669   6.725 -0.0070  1.0364 -1.9446
 2377TIP3    H228767   0.875   4.524   6.681 -1.0319  0.7642 -1.0294
 2378TIP3   OH228768   7.113   6.344   0.434 -0.7384  0.7377 -0.0922
 2378TIP3    H128769   7.130   6.405   0.362 -0.4961  2.1589  1.1597
 2378TIP3    H228770   7.096   6.400   0.510  0.6389 -0.7392  1.3377
 2379TIP3   OH228771   5.747   7.016   7.708 -0.1732 -0.2911 -0.0345
 2379TIP3    H128772   5.715   6.946   7.766  0.4851 -2.1017 -1.8129
 2379TIP3    H228773   5.675   7.079   7.705 -0.2989 -0.2687  2.5784
 2380TIP3   OH228774   0.418   6.949   1.075 -0.2393 -0.3882 -0.2231
 2380TIP3    H128775   0.328   6.924   1.096 -0.9213  2.3467  0.2956
 2380TIP3    H228776   0.431   6.915   0.986 -1.1751 -2.2697  0.3195
 2381TIP3   OH228777   0.793   5.411   1.225 -0.1608  0.5185 -0.4401
 2381TIP3    H128778   0.874   5.390   1.179 -0.2483 -0.4024 -0.1895
 2381TIP3    H228779   0.798   5.361   1.307 -1.8620 -1.1184 -1.3054
 2382TIP3   OH228780   1.335   4.229   0.845  0.1274 -0.0084  0.2651
 2382TIP3    H128781   1.337   4.155   0.785 -3.1736  1.2651 -1.5946
 2382TIP3    H228782   1.361   4.304   0.791  0.3360  0.6660  1.2881
 2383TIP3   OH228783   0.252   4.018   5.995  0.2511 -0.4889 -0.1478
 2383TIP3    H128784   0.197   4.086   5.956 -0.6161 -0.1781  1.5799
 2383TIP3    H228785   0.340   4.036   5.961 -0.2204  0.6218 -0.8115
 2384TIP3   OH228786   0.777   7.062   0.445  0.7004  0.0753  0.3504
 2384TIP3    H128787   0.764   7.143   0.395  0.8950  0.7072  1.3047
 2384TIP3    H228788   0.690   7.040   0.478  1.1344  1.5639  2.5891
 2385TIP3   OH228789   5.054   1.432   7.469  0.0525  0.3274  0.1890
 2385TIP3    H128790   5.005   1.354   7.441  1.4596 -0.3602 -0.4221
 2385TIP3    H228791   5.104   1.457   7.392 -1.8966  3.0540 -0.2395
 2386TIP3   OH228792   6.182   4.166   6.716  0.0972  0.2350  0.3893
 2386TIP3    H128793   6.226   4.194   6.636 -1.4564  0.2810 -0.4647
 2386TIP3    H228794   6.253   4.143   6.776  1.2874  1.0868 -0.6780
 2387TIP3   OH228795   2.369   6.958   1.748  0.1315  0.3157 -0.5089
 2387TIP3    H128796   2.279   6.959   1.717 -0.1964  0.4589  0.4299
 2387TIP3    H228797   2.418   6.915   1.678 -0.5160  1.0288 -1.4201
 2388TIP3   OH228798   5.723   4.982   5.971  0.2258  0.2593  0.1595
 2388TIP3    H128799   5.770   5.065   5.967  1.2343 -0.2661  0.8258
 2388TIP3    H228800   5.785   4.917   5.936  0.7644 -0.7509  2.8714
 2389TIP3   OH228801   2.105   4.604   7.052  0.0386  0.1902 -0.1242
 2389TIP3    H128802   2.163   4.588   6.978 -0.3371  0.5178 -0.4925
 2389TIP3    H228803   2.086   4.517   7.088  1.2450  0.1246  0.3798
 2390TIP3   OH228804   7.097   4.068   1.693 -0.8353  0.4362  0.0637
 2390TIP3    H128805   7.141   4.135   1.745 -2.1525  0.5547  1.0246
 2390TIP3    H228806   7.086   3.994   1.752  0.4564 -0.5978 -0.9446
 2391TIP3   OH228807   5.984   4.626   7.457  0.5107  0.3874  0.8726
 2391TIP3    H128808   5.904   4.583   7.487 -0.0615  1.4946  0.9455
 2391TIP3    H228809   6.032   4.644   7.538  0.6848  0.0208  0.8520
 2392TIP3   OH228810   6.345   6.503   6.028  0.4170  0.8270 -0.7272
 2392TIP3    H128811   6.427   6.532   5.987  1.7423 -0.1983  1.1002
 2392TIP3    H228812   6.318   6.428   5.976  0.7670  1.0194 -1.1946
 2393TIP3   OH228813   6.556   3.386   7.854 -0.5836  0.5124 -0.2198
 2393TIP3    H128814   6.621   3.324   7.887  0.0705  0.7488 -1.0438
 2393TIP3    H228815   6.517   3.424   7.932  0.9831  1.1062  0.2946
 2394TIP3   OH228816   0.254   3.986   7.581 -0.2452  0.6287 -0.0406
 2394TIP3    H128817   0.181   4.045   7.561  0.5641  1.2084 -1.3809
 2394TIP3    H228818   0.332   4.041   7.574  0.4054 -0.2465  0.2542
 2395TIP3   OH228819   1.970   2.529   0.949 -0.4384 -0.2738  0.0037
 2395TIP3    H128820   1.994   2.456   0.891 -0.8502  0.0183 -0.5413
 2395TIP3    H228821   2.048   2.585   0.951 -0.6336  0.0418 -0.7811
 2396TIP3   OH228822   5.178   2.977   0.619 -0.7497 -0.2452 -0.1102
 2396TIP3    H128823   5.161   2.995   0.527 -2.2422  1.6794  0.5120
 2396TIP3    H228824   5.203   3.062   0.656 -0.7148 -0.8917  1.3687
 2397TIP3   OH228825   2.222   0.756   7.424 -0.2616 -0.1642  0.2739
 2397TIP3    H128826   2.202   0.796   7.508  1.5776  0.8710  0.2465
 2397TIP3    H228827   2.137   0.737   7.386 -1.1215 -0.0926  2.1039
 2398TIP3   OH228828   3.266   1.701   8.041  0.5783 -0.6540 -0.2307
 2398TIP3    H128829   3.209   1.635   8.002  1.0195 -0.2063 -1.6481
 2398TIP3    H228830   3.250   1.780   7.990  3.4987 -0.8865 -1.6329
 2399TIP3   OH228831   3.371   2.596   7.818  0.3763  0.3943  0.5654
 2399TIP3    H128832   3.296   2.633   7.770  0.8797  0.9421  0.2012
 2399TIP3    H228833   3.362   2.501   7.805  0.3634  0.5190 -0.4070
 2400TIP3   OH228834   5.861   4.218   0.996  0.6726  0.2183 -0.0549
 2400TIP3    H128835   5.940   4.179   0.959 -0.2591 -1.2297 -0.5484
 2400TIP3    H228836   5.827   4.274   0.926  0.2553 -0.6110 -0.5291
 2401TIP3   OH228837   2.117   6.656   0.693 -0.1186  0.8841 -0.2398
 2401TIP3    H128838   2.073   6.587   0.643  0.7068 -0.5672  0.9813
 2401TIP3    H228839   2.046   6.706   0.733 -0.7151 -1.6449  2.0037
 2402TIP3   OH228840   0.902   2.181   6.834 -0.3118  0.0718  0.2120
 2402TIP3    H128841   0.997   2.180   6.820 -0.3710  0.4621 -0.1915
 2402TIP3    H228842   0.877   2.272   6.822 -0.7081  0.0053  0.5390
 2403TIP3   OH228843   5.545   6.075   1.422  0.0581 -0.3698 -0.4778
 2403TIP3    H128844   5.588   6.155   1.453  0.7335  0.2863 -2.9442
 2403TIP3    H228845   5.613   6.028   1.374 -0.0850 -2.9184  1.7257
 2404TIP3   OH228846   5.842   4.917   6.944  0.3003 -0.7025  0.3322
 2404TIP3    H128847   5.928   4.943   6.977  0.2119  0.5671 -0.4235
 2404TIP3    H228848   5.861   4.878   6.858 -0.0674  1.3738 -0.7090
 2405TIP3   OH228849   4.234   1.655   7.842 -0.0945 -0.4428  0.0448
 2405TIP3    H128850   4.276   1.610   7.916 -0.6145  2.1573  1.9667
 2405TIP3    H228851   4.307   1.684   7.787  0.2632 -3.3686 -1.1400
 2406TIP3   OH228852   2.439   5.278   8.002  0.2522 -0.2069 -0.3299
 2406TIP3    H128853   2.355   5.234   7.991 -0.2692  0.0759  2.2256
 2406TIP3    H228854   2.418   5.361   8.044  1.9445 -1.0329  2.3321
 2407TIP3   OH228855   1.272   6.422   6.502 -0.5169  0.1493 -0.3437
 2407TIP3    H128856   1.293   6.364   6.428 -0.1668  1.4122 -1.2631
 2407TIP3    H228857   1.355   6.467   6.521 -0.3329 -0.9487  1.5425
 2408TIP3   OH228858   4.685   1.706   6.126 -0.1600  0.1660  0.3550
 2408TIP3    H128859   4.725   1.653   6.195 -1.2096  0.1659  0.9752
 2408TIP3    H228860   4.701   1.656   6.046  1.6758  0.5067  0.4859
 2409TIP3   OH228861   4.029   4.724   7.218 -0.3232  0.2455  0.2739
 2409TIP3    H128862   4.106   4.700   7.270 -0.2907  2.0075  1.0769
 2409TIP3    H228863   3.956   4.722   7.280 -0.7329 -0.2493 -0.2181
 2410TIP3   OH228864   2.065   0.841   7.047  0.0043 -0.2963  0.4250
 2410TIP3    H128865   2.045   0.826   7.139 -0.5919 -3.0028 -0.0972
 2410TIP3    H228866   1.992   0.895   7.015  0.1728  0.5802  1.4917
 2411TIP3   OH228867   1.252   0.820   8.034 -0.0207 -0.2250  0.2185
 2411TIP3    H128868   1.196   0.793   8.106  0.3833 -2.3899 -0.2468
 2411TIP3    H228869   1.264   0.741   7.982 -0.0642  1.2170 -2.0674
 2412TIP3   OH228870   6.541   3.996   0.650  0.6259  0.1593  0.0151
 2412TIP3    H128871   6.609   3.934   0.675  0.0989 -1.0711 -1.5103
 2412TIP3    H228872   6.505   4.027   0.733  2.0395 -0.3059  0.8077
 2413TIP3   OH228873   6.444   1.656   0.965  0.0884 -0.0980  0.0022
 2413TIP3    H128874   6.353   1.686   0.973  0.3145  0.3601  1.0335
 2413TIP3    H228875   6.459   1.604   1.044  1.4694  1.8933  1.1017
 2414TIP3   OH228876   4.726   5.936   7.522  0.3543 -0.5090  0.3503
 2414TIP3    H128877   4.738   5.918   7.615  0.3314 -2.0704  0.0616
 2414TIP3    H228878   4.633   5.925   7.506  0.4505 -0.8417  0.0132
 2415TIP3   OH228879   0.949   3.881   7.051 -0.3551  0.2647 -0.1512
 2415TIP3    H128880   0.994   3.799   7.074 -0.5801  0.0162 -0.5993
 2415TIP3    H228881   1.000   3.949   7.096 -0.8443 -0.2227  1.1531
 2416TIP3   OH228882   6.036   6.661   7.741  0.0323 -0.2765  0.5202
 2416TIP3    H128883   6.114   6.648   7.687 -1.2957 -0.9591 -1.2695
 2416TIP3    H228884   6.009   6.751   7.723  0.1850 -0.1649  0.8473
 2417TIP3   OH228885   5.090   5.266   1.796 -0.2159 -0.4947  0.0079
 2417TIP3    H128886   5.145   5.192   1.771  1.2404  0.4062  0.4459
 2417TIP3    H228887   5.030   5.278   1.722  2.6190  0.8058 -2.1754
 2418TIP3   OH228888   6.897   3.382   7.106  0.2109  0.6588 -0.0286
 2418TIP3    H128889   6.832   3.436   7.150  0.3485  0.5824  0.2648
 2418TIP3    H228890   6.920   3.432   7.027  2.5713  2.5005  1.7570
 2419TIP3   OH228891   6.228   4.288   6.365 -0.0078 -0.3552  0.0584
 2419TIP3    H128892   6.195   4.377   6.355 -0.6509 -0.6301 -0.3541
 2419TIP3    H228893   6.317   4.298   6.397 -0.9578  0.3891  2.5989
 2420TIP3   OH228894   2.183   6.059   0.385  0.6305  0.2637  0.6640
 2420TIP3    H128895   2.188   6.129   0.320  3.0740  0.9667  1.5335
 2420TIP3    H228896   2.102   6.013   0.365 -0.9327  3.2074 -0.0634
 2421TIP3   OH228897   5.157   4.731   0.901  0.3832 -0.0349  0.5583
 2421TIP3    H128898   5.065   4.754   0.914  0.0949 -1.0373  0.3060
 2421TIP3    H228899   5.192   4.726   0.990 -0.4193 -2.1148  0.7814
 2422TIP3   OH228900   5.815   4.589   5.716  1.0152  0.1176 -0.5920
 2422TIP3    H128901   5.853   4.502   5.711 -1.0030 -0.7854 -0.6400
 2422TIP3    H228902   5.867   4.642   5.654  1.8123 -1.2020 -1.0623
 2423TIP3   OH228903   0.980   2.716   7.553  0.0397  0.0675 -0.2655
 2423TIP3    H128904   0.999   2.642   7.610  1.1877  0.7867  0.3151
 2423TIP3    H228905   0.887   2.732   7.564  0.0164 -0.5745  0.4874
 2424TIP3   OH228906   6.699   4.626   6.846  0.1062  0.6866 -0.3024
 2424TIP3    H128907   6.760   4.634   6.772  1.8187  0.1412  1.0185
 2424TIP3    H228908   6.677   4.716   6.868  1.3716  0.9322 -0.0304
 2425TIP3   OH228909   0.128   4.578   1.480 -0.1661  0.0061  0.1804
 2425TIP3    H128910   0.210   4.625   1.494 -0.5131  0.2658  1.4869
 2425TIP3    H228911   0.102   4.549   1.568 -1.4426 -0.1024 -0.2189
 2426TIP3   OH228912   4.329   6.494   1.698  0.0433 -0.0762 -0.4512
 2426TIP3    H128913   4.324   6.411   1.746  0.4227 -0.0269 -0.3259
 2426TIP3    H228914   4.416   6.528   1.718 -0.6673  1.1096  0.7620
 2427TIP3   OH228915   3.941   0.017   6.845  0.5714  0.0981  0.1471
 2427TIP3    H128916   4.037   0.020   6.838  0.4239  0.2725 -1.9520
 2427TIP3    H228917   3.913  -0.034   6.769 -0.9902 -0.1961  0.9132
 2428TIP3   OH228918   7.028   5.391   7.156  0.2088 -0.7658 -0.1012
 2428TIP3    H128919   7.077   5.347   7.226  1.1006  1.8050  0.9258
 2428TIP3    H228920   7.089   5.396   7.083  0.5416 -0.1047  0.2171
 2429TIP3   OH228921   1.843   5.738   8.115 -0.6087 -0.0616 -0.1650
 2429TIP3    H128922   1.819   5.645   8.118  0.1785 -0.2574  0.1432
 2429TIP3    H228923   1.826   5.764   8.025  0.6208 -0.9076 -0.6592
 2430TIP3   OH228924   0.076   6.508   8.010  0.0251 -0.0184  0.6163
 2430TIP3    H128925   0.161   6.479   8.041  0.3760 -0.6463 -0.8864
 2430TIP3    H228926   0.059   6.454   7.933 -2.0999 -0.4563  1.3601
 2431TIP3   OH228927   0.483   4.449   5.663 -0.1934 -0.4639 -0.0612
 2431TIP3    H128928   0.452   4.518   5.604 -1.6048 -0.6885  0.4003
 2431TIP3    H228929   0.410   4.434   5.723  1.2858 -0.1124  1.8578
 2432TIP3   OH228930   6.459   3.647   5.717 -0.0283 -0.1108 -0.3084
 2432TIP3    H128931   6.392   3.641   5.649  1.6561  0.9708 -2.0997
 2432TIP3    H228932   6.441   3.730   5.761 -0.6679 -0.4604  0.1015
 2433TIP3   OH228933   5.791   2.623   6.951 -0.3028 -0.0512  0.2669
 2433TIP3    H128934   5.801   2.648   7.043 -0.3131 -0.6992  0.4437
 2433TIP3    H228935   5.725   2.683   6.917 -1.6347 -0.9863  1.1523
 2434TIP3   OH228936   4.771   2.599   7.761  0.5150  0.5417  0.4395
 2434TIP3    H128937   4.708   2.601   7.833  0.4310  1.3425  0.3486
 2434TIP3    H228938   4.719   2.619   7.683  0.5157 -0.8100  0.0882
 2435TIP3   OH228939   6.709   2.990   0.461 -0.0111 -0.6954 -1.0648
 2435TIP3    H128940   6.787   2.986   0.406  0.4764 -0.7695 -0.3773
 2435TIP3    H228941   6.657   3.062   0.425  0.6531 -0.2641 -1.1601
 2436TIP3   OH228942   6.819   3.049   6.557 -0.2551  0.1481  0.1927
 2436TIP3    H128943   6.839   3.097   6.476  2.3257 -1.9519 -0.4658
 2436TIP3    H228944   6.762   2.977   6.528  0.7557 -0.6664  0.2088
 2437TIP3   OH228945   6.654   5.972   0.225 -0.1322  0.1319  0.1103
 2437TIP3    H128946   6.602   6.008   0.297 -0.3570 -1.6798  0.8987
 2437TIP3    H228947   6.717   5.914   0.268  1.1438  0.6568 -1.0071
 2438TIP3   OH228948   5.718   1.312   1.096 -0.2962  0.1753 -0.0138
 2438TIP3    H128949   5.647   1.252   1.074 -0.0077 -0.9274  1.9601
 2438TIP3    H228950   5.750   1.282   1.181  1.9687  1.1682 -0.4614
 2439TIP3   OH228951   0.343   3.442   7.213 -0.1164  0.1053 -0.8164
 2439TIP3    H128952   0.387   3.525   7.195 -0.3186  0.4084  0.0257
 2439TIP3    H228953   0.296   3.458   7.295  0.1836 -0.9771 -0.4314
 2440TIP3   OH228954   5.344   3.697   5.852 -0.1940 -0.6138 -0.4888
 2440TIP3    H128955   5.301   3.642   5.787 -0.9638 -1.1792  0.4686
 2440TIP3    H228956   5.395   3.636   5.905  0.1389 -0.2120 -0.3433
 2441TIP3   OH228957   4.744   3.450   6.021 -0.5663  0.2327 -0.5899
 2441TIP3    H128958   4.693   3.479   5.945  2.3846  1.1871 -2.2851
 2441TIP3    H228959   4.782   3.366   5.994 -1.9244 -0.9192  0.9944
 2442TIP3   OH228960   3.578   3.743   7.467 -0.0712 -0.1293 -0.2069
 2442TIP3    H128961   3.553   3.651   7.466 -0.6087  0.0179 -2.7837
 2442TIP3    H228962   3.578   3.767   7.560 -0.8792 -2.4608  0.4173
 2443TIP3   OH228963   1.907   6.970   7.551 -0.2963  0.5635 -0.1178
 2443TIP3    H128964   1.851   7.013   7.487  0.7552  1.2707 -0.5712
 2443TIP3    H228965   1.865   6.988   7.636 -0.2567  1.8654 -0.3672
 2444TIP3   OH228966   2.840   4.020   0.270  0.2335  0.7343 -0.1095
 2444TIP3    H128967   2.785   4.044   0.195  1.2962  0.3130 -1.0466
 2444TIP3    H228968   2.805   3.936   0.300 -0.0310  0.7779 -0.2928
 2445TIP3   OH228969   5.852   2.892   7.775 -0.3663 -0.3798  0.5144
 2445TIP3    H128970   5.821   2.929   7.692  1.4884  0.9395  0.3794
 2445TIP3    H228971   5.919   2.953   7.806 -0.2654 -1.4162  2.4556
 2446TIP3   OH228972   5.861   3.496   7.545 -0.3274  0.1850  0.4027
 2446TIP3    H128973   5.865   3.459   7.456 -0.7004 -1.2579  0.9769
 2446TIP3    H228974   5.951   3.488   7.577 -0.0952  1.0978  0.0258
 2447TIP3   OH228975   6.631   6.174   1.410 -0.5850  0.9686 -0.0991
 2447TIP3    H128976   6.662   6.169   1.320  0.9538 -3.3427  0.5458
 2447TIP3    H228977   6.663   6.259   1.442  2.1656  0.9099 -2.4711
 2448TIP3   OH228978   5.149   3.661   0.386  0.3662 -0.2478  0.0553
 2448TIP3    H128979   5.176   3.752   0.398  2.1710 -0.8222  0.4282
 2448TIP3    H228980   5.081   3.648   0.452 -1.0882  1.2973 -1.0850
 2449TIP3   OH228981   3.856   2.422   6.719 -0.7413 -0.4185  0.1312
 2449TIP3    H128982   3.921   2.411   6.789 -1.1016  2.4412  0.9966
 2449TIP3    H228983   3.906   2.419   6.638  0.1746 -0.4260  0.6906
 2450TIP3   OH228984   5.734   4.094   6.313 -0.6079 -0.0102  0.2935
 2450TIP3    H128985   5.766   4.026   6.253 -0.9180  0.0499  0.0609
 2450TIP3    H228986   5.807   4.154   6.322 -1.1603  0.9491 -1.4372
 2451TIP3   OH228987   5.816   3.765   7.545  0.1855  0.3828 -0.1943
 2451TIP3    H128988   5.726   3.747   7.520  0.4087 -0.4452 -0.4199
 2451TIP3    H228989   5.861   3.681   7.535  1.2003  1.0203 -1.0441
 2452TIP3   OH228990   6.749   5.286   1.202  0.2127  0.5223  0.0523
 2452TIP3    H128991   6.678   5.296   1.265  0.7709 -0.1830  0.8152
 2452TIP3    H228992   6.713   5.232   1.132 -0.1705  0.6556  0.1465
 2453TIP3   OH228993   6.893   2.932   6.134  0.5772  0.2303 -0.1109
 2453TIP3    H128994   6.888   3.009   6.192  0.7059  1.2625 -1.4580
 2453TIP3    H228995   6.805   2.925   6.096  0.6793 -0.0545 -0.2955
 2454TIP3   OH228996   4.014   0.228   0.099 -0.0672 -0.1830 -0.2220
 2454TIP3    H128997   3.970   0.297   0.149  2.7032  0.7527  1.0309
 2454TIP3    H228998   3.967   0.148   0.122 -0.1081  0.5455  2.3680
 2455TIP3   OH228999   4.976   4.897   7.605 -0.1063  0.9371  0.1031
 2455TIP3    H129000   4.960   4.966   7.540  2.5389  1.6425  0.1122
 2455TIP3    H229001   4.959   4.939   7.689  1.7044  1.7141  0.1223
 2456TIP3   OH229002   0.310   0.877   6.409 -0.3890 -0.0572  0.6822
 2456TIP3    H129003   0.249   0.934   6.456  0.5239  2.7483 -1.4068
 2456TIP3    H229004   0.257   0.836   6.341 -0.7352 -0.5140  1.2272
 2457TIP3   OH229005   6.198   2.640   7.970 -0.1241 -0.6622  0.5897
 2457TIP3    H129006   6.244   2.572   7.922 -0.2628  0.2099 -0.8217
 2457TIP3    H229007   6.114   2.601   7.994  0.1530 -1.2689  0.5722
 2458TIP3   OH229008   6.403   1.976   0.047 -0.4712  0.3202 -0.2203
 2458TIP3    H129009   6.356   1.896   0.026 -1.1757  0.0790  2.0735
 2458TIP3    H229010   6.382   2.037  -0.024 -2.1752 -0.6363 -0.5450
 2459TIP3   OH229011   4.887   4.400   0.889 -0.3456 -0.5844 -0.1978
 2459TIP3    H129012   4.959   4.365   0.942 -0.2597  2.2977  1.7130
 2459TIP3    H229013   4.930   4.462   0.830 -1.0593 -0.1238 -0.2319
 2460TIP3   OH229014   6.684   3.774   7.162 -0.0251  0.4077 -0.0978
 2460TIP3    H129015   6.600   3.750   7.123  0.0633 -1.0986  0.6233
 2460TIP3    H229016   6.709   3.699   7.215  1.9141  0.7255 -0.5104
 2461TIP3   OH229017   5.873   0.770   0.867  0.0539 -0.6429 -0.3818
 2461TIP3    H129018   5.843   0.751   0.778  1.4263  0.5836 -1.1325
 2461TIP3    H229019   5.960   0.808   0.855 -0.4713  1.2183  1.3644
 2462TIP3   OH229020   5.751   4.308   6.619  0.2883 -0.8194  0.0208
 2462TIP3    H129021   5.674   4.335   6.669  0.4354 -1.0666  0.3826
 2462TIP3    H229022   5.742   4.353   6.535 -0.4600 -1.1711 -0.0905
 2463TIP3   OH229023   6.641   2.610   6.650  0.1794 -0.0277 -0.1897
 2463TIP3    H129024   6.678   2.535   6.603  0.1042 -0.8261  1.0132
 2463TIP3    H229025   6.581   2.571   6.713  1.9851  0.8645  2.1444
 2464TIP3   OH229026   6.373   0.781   7.180  0.1856  0.2760  0.7038
 2464TIP3    H129027   6.331   0.854   7.135 -2.0873 -1.8587 -0.7080
 2464TIP3    H229028   6.461   0.777   7.142  0.0788  1.7999  0.2698
 2465TIP3   OH229029   0.762   5.402   0.717 -0.3375  0.1896 -0.0206
 2465TIP3    H129030   0.712   5.346   0.776 -0.6082  0.9731  0.5043
 2465TIP3    H229031   0.799   5.342   0.652  0.0987 -0.7055  1.0383
 2466TIP3   OH229032   6.245   3.302   6.175  0.1082 -0.8836 -0.0531
 2466TIP3    H129033   6.226   3.212   6.152  0.6448 -1.0224  0.0412
 2466TIP3    H229034   6.239   3.350   6.093  0.2036 -1.0689 -0.1670
 2467TIP3   OH229035   0.344   1.001   6.133  0.4797  0.5715 -0.1773
 2467TIP3    H129036   0.392   0.918   6.123 -0.0862  0.3140 -0.7609
 2467TIP3    H229037   0.413   1.067   6.141  0.9376  0.0823 -0.0598
 2468TIP3   OH229038   5.410   4.199   1.405 -0.6221  0.0971 -0.0903
 2468TIP3    H129039   5.373   4.244   1.481 -1.4276  1.0410 -1.0282
 2468TIP3    H229040   5.487   4.154   1.439  0.0596  1.9790  0.9248
 2469TIP3   OH229041   2.333   4.981   6.634 -0.1580 -0.1270  0.4611
 2469TIP3    H129042   2.258   4.934   6.597 -0.6964  0.4932  0.7552
 2469TIP3    H229043   2.402   4.916   6.639 -0.6623 -0.6901  0.1344
 2470TIP3   OH229044   1.408   0.791   7.278  0.0096 -0.1652 -0.1914
 2470TIP3    H129045   1.370   0.736   7.209  1.0945 -1.0431 -0.0986
 2470TIP3    H229046   1.355   0.773   7.355 -0.6301  0.1205 -0.5629
 2471TIP3   OH229047   0.434   0.511   5.919 -0.3700 -0.1762 -0.1736
 2471TIP3    H129048   0.371   0.490   5.850 -1.2403 -2.6897  1.3343
 2471TIP3    H229049   0.485   0.431   5.930  3.4261  1.9274 -1.6284
 2472TIP3   OH229050   2.276   1.380   6.674  0.3387 -0.1511 -0.0473
 2472TIP3    H129051   2.262   1.447   6.742  0.2549  0.6575 -0.8398
 2472TIP3    H229052   2.199   1.323   6.681  1.2243 -1.1626  1.7380
 2473TIP3   OH229053   3.978   0.948   6.527  0.2237 -0.2464  0.1288
 2473TIP3    H129054   4.071   0.926   6.520  0.1635 -0.5537  0.2779
 2473TIP3    H229055   3.944   0.890   6.596 -0.1532 -0.3786 -0.1651
 2474TIP3   OH229056   2.144   6.530   8.049 -0.6797 -0.2590 -0.2058
 2474TIP3    H129057   2.189   6.607   8.013 -0.2856  0.1406  1.1040
 2474TIP3    H229058   2.121   6.555   8.138  0.8232 -2.1910  0.7670
 2475TIP3   OH229059   0.532   0.848   7.791 -0.2579 -0.2239 -0.0958
 2475TIP3    H129060   0.472   0.835   7.719  1.2242  0.7342 -1.5470
 2475TIP3    H229061   0.569   0.761   7.808 -1.0704 -0.5650 -0.0755
 2476TIP3   OH229062   0.844   6.666   7.260  0.2020 -0.2688  0.0688
 2476TIP3    H129063   0.758   6.698   7.234 -0.1523 -2.0098 -0.9390
 2476TIP3    H229064   0.885   6.638   7.179  1.4436 -0.1331  0.6368
 2477TIP3   OH229065   1.910   5.379   5.596 -0.5490  0.1938  0.7234
 2477TIP3    H129066   1.862   5.302   5.626 -0.8409  0.3898  0.7681
 2477TIP3    H229067   1.844   5.449   5.594 -0.2315  0.5021  0.9279
 2478TIP3   OH229068   6.747   4.386   7.065  0.0324 -0.3119 -0.2365
 2478TIP3    H129069   6.782   4.420   6.983  1.3228  0.9276  0.8090
 2478TIP3    H229070   6.821   4.345   7.108 -0.3800  0.0133  0.8072
 2479TIP3   OH229071   6.677   5.788   6.892 -1.0999  0.5556  0.1680
 2479TIP3    H129072   6.621   5.785   6.815 -1.4812  0.0705  0.4683
 2479TIP3    H229073   6.696   5.697   6.913  1.0135  0.7366 -0.8112
 2480TIP3   OH229074   0.284   6.554   6.877 -0.0153 -0.0685  0.3122
 2480TIP3    H129075   0.308   6.565   6.969 -1.0194  0.1688  0.5628
 2480TIP3    H229076   0.351   6.497   6.840  0.9288  0.6263  0.9570
 2481TIP3   OH229077   6.422   5.838   5.728  0.6224 -0.1020  0.3123
 2481TIP3    H129078   6.391   5.902   5.664  2.4971  1.7033  1.1481
 2481TIP3    H229079   6.436   5.758   5.678  0.6392  0.8594 -1.2428
 2482TIP3   OH229080   3.383   5.413   8.089  0.2461 -0.3632  0.1636
 2482TIP3    H129081   3.394   5.344   8.024  0.3059  1.2176 -1.5499
 2482TIP3    H229082   3.296   5.450   8.071  0.8793  1.0725 -0.0236
 2483TIP3   OH229083   3.524   3.428   8.125 -0.5071  0.5890 -0.4533
 2483TIP3    H129084   3.479   3.384   8.053  1.3083  0.1946 -1.3599
 2483TIP3    H229085   3.547   3.357   8.186  0.5025  0.5484 -0.8751
 2484TIP3   OH229086   1.235   6.484   0.985 -0.2351 -0.1051 -0.4213
 2484TIP3    H129087   1.204   6.568   0.950  1.6677  1.0276  0.5052
 2484TIP3    H229088   1.178   6.466   1.059 -0.3864  0.6164 -0.3588
 2485TIP3   OH229089   2.513   7.056   0.424  0.2126  0.6856 -0.0983
 2485TIP3    H129090   2.513   7.118   0.351  0.3915  0.9045  0.0866
 2485TIP3    H229091   2.606   7.036   0.439  0.1129 -0.1554 -0.6035
 2486TIP3   OH229092   0.582   6.562   7.420 -0.6908  0.8481  0.3880
 2486TIP3    H129093   0.557   6.651   7.446  2.2145  2.1476 -1.0015
 2486TIP3    H229094   0.649   6.537   7.484 -2.0737 -0.7064  1.2646
 2487TIP3   OH229095   3.135   5.296   5.962 -0.4402  0.2520 -0.6360
 2487TIP3    H129096   3.150   5.385   5.929  0.7624 -0.3546 -1.7508
 2487TIP3    H229097   3.047   5.274   5.931 -0.3683  0.6980 -1.1605
 2488TIP3   OH229098   6.215   2.294   7.447  0.0236 -0.6192 -0.0471
 2488TIP3    H129099   6.123   2.298   7.472  0.4770  0.0107  1.5753
 2488TIP3    H229100   6.227   2.368   7.387 -0.1035  0.4308  1.2086
 2489TIP3   OH229101   4.912   2.276   1.600  0.2706  0.6710  0.0349
 2489TIP3    H129102   4.949   2.222   1.670  1.3341  0.2930 -0.8090
 2489TIP3    H229103   4.952   2.362   1.612  1.8854  0.0947 -1.2507
 2490TIP3   OH229104   1.480   3.589   7.467  0.1975  0.2438 -0.5165
 2490TIP3    H129105   1.484   3.557   7.377  0.3720 -1.8104  0.1909
 2490TIP3    H229106   1.405   3.543   7.505  1.0475 -0.0726  0.8092
 2491TIP3   OH229107   2.880   4.434   6.198 -0.1342  0.6324  0.0009
 2491TIP3    H129108   2.922   4.354   6.166 -0.8855 -0.5801  1.9785
 2491TIP3    H229109   2.806   4.448   6.139  0.3095  0.1842 -0.6686
 2492TIP3   OH229110   1.997   1.447   7.019 -0.3601 -0.3167  0.6310
 2492TIP3    H129111   1.910   1.454   7.058 -0.2142 -0.5384  0.9990
 2492TIP3    H229112   2.007   1.353   6.999 -0.6013 -0.1482 -0.3350
 2493TIP3   OH229113   0.445   0.050   6.856 -0.1678 -0.7953 -0.1597
 2493TIP3    H129114   0.395   0.036   6.776 -1.8238  1.1318  0.5150
 2493TIP3    H229115   0.402  -0.005   6.922 -1.9794  1.5036  0.6272
 2494TIP3   OH229116   2.779   1.629   7.139 -0.3292 -0.4082 -0.6704
 2494TIP3    H129117   2.869   1.651   7.165 -1.3391  2.5926  0.4875
 2494TIP3    H229118   2.769   1.669   7.052 -0.9468  0.4501 -0.2153
 2495TIP3   OH229119   5.931   4.285   6.304 -0.3184 -0.1450 -0.2186
 2495TIP3    H129120   5.871   4.354   6.276 -2.3647 -1.3573  1.0702
 2495TIP3    H229121   5.968   4.318   6.386 -1.0901 -0.4240  0.2534
 2496TIP3   OH229122   3.596   6.922   6.978 -0.0224 -0.1448 -0.0864
 2496TIP3    H129123   3.617   6.897   6.888  1.2341 -1.1840  0.4865
 2496TIP3    H229124   3.501   6.935   6.978 -0.0055  0.0290 -1.5981
 2497TIP3   OH229125   0.931   4.965   7.123 -0.1344  0.2274 -0.2438
 2497TIP3    H129126   0.965   4.875   7.118 -0.8367 -0.0094 -0.7738
 2497TIP3    H229127   0.876   4.965   7.201  1.5710  0.7862  0.9918
 2498TIP3   OH229128   0.391   2.645   7.666 -0.0509 -0.4053 -0.4520
 2498TIP3    H129129   0.447   2.665   7.741 -0.3836 -0.2721 -0.2375
 2498TIP3    H229130   0.443   2.668   7.590  0.1590 -0.2141 -0.2491
 2499TIP3   OH229131   0.072   6.227   6.101 -0.1691  0.1344  0.0759
 2499TIP3    H129132   0.121   6.288   6.157 -0.0612 -0.8065  1.0254
 2499TIP3    H229133   0.095   6.140   6.134 -1.3487 -0.3746 -0.3984
 2500TIP3   OH229134   1.797   6.033   1.145  0.1922  0.3022  0.3480
 2500TIP3    H129135   1.888   6.004   1.143 -0.0489 -0.5118  0.9261
 2500TIP3    H229136   1.789   6.082   1.226  0.2529  0.8475  0.0274
 2501TIP3   OH229137   0.619   2.789   7.272  0.0529  0.0557 -0.7855
 2501TIP3    H129138   0.666   2.714   7.310  0.1798 -0.4613 -1.9351
 2501TIP3    H229139   0.551   2.749   7.217 -1.7206  0.7914  0.7947
 2502TIP3   OH229140   1.390   5.492   6.700  0.5273  0.1161  0.1613
 2502TIP3    H129141   1.312   5.534   6.664  2.0831  0.8621 -2.5448
 2502TIP3    H229142   1.410   5.422   6.638  1.1753 -1.0081  1.6126
 2503TIP3   OH229143   1.834   3.175   0.486  0.1079 -0.4261 -0.3296
 2503TIP3    H129144   1.888   3.176   0.407 -0.4116 -0.1556 -0.6828
 2503TIP3    H229145   1.745   3.158   0.454 -0.4335  1.6895 -0.0156
 2504TIP3   OH229146   2.831   6.542   1.150 -0.1564 -0.1529  0.3554
 2504TIP3    H129147   2.884   6.597   1.092  0.0184  0.0650  0.7190
 2504TIP3    H229148   2.808   6.467   1.096  1.2036 -0.6418  0.4270
 2505TIP3   OH229149   0.571   0.067   6.581  0.0537 -0.1207 -0.0910
 2505TIP3    H129150   0.545   0.076   6.673 -1.6890  0.9418 -0.6426
 2505TIP3    H229151   0.598   0.156   6.556 -1.8566  0.1812 -1.2430
 2506TIP3   OH229152   0.259   5.964   1.658 -0.1697 -0.1224 -0.2002
 2506TIP3    H129153   0.330   5.922   1.707  0.7224  1.6278  0.0431
 2506TIP3    H229154   0.193   5.984   1.724  0.6253  1.3795  0.1655
 2507TIP3   OH229155   2.702   0.963   6.811  0.0341 -0.2973 -0.0954
 2507TIP3    H129156   2.756   0.969   6.889 -0.7922  1.2694  0.3786
 2507TIP3    H229157   2.747   1.016   6.746 -0.5657  0.4634  0.0983
 2508TIP3   OH229158   2.734   0.797   7.179 -0.3727  0.9125  0.0478
 2508TIP3    H129159   2.694   0.796   7.092 -0.3507  0.5074  0.0384
 2508TIP3    H229160   2.660   0.790   7.239 -0.2571 -0.9185  0.0011
 2509TIP3   OH229161   5.648   3.112   7.088 -0.0458  0.6940 -0.3240
 2509TIP3    H129162   5.588   3.183   7.112 -0.3094  0.0691  0.9216
 2509TIP3    H229163   5.654   3.058   7.167  2.0857  0.6840 -0.4837
 2510TIP3   OH229164   0.362   6.098   7.881 -0.0119 -0.1126 -0.1280
 2510TIP3    H129165   0.391   6.058   7.963  2.9585 -0.4951 -1.3139
 2510TIP3    H229166   0.391   6.189   7.887 -0.0206 -0.0765 -0.6601
 2511TIP3   OH229167   0.492   5.913   1.778 -0.4062  0.6385 -0.7071
 2511TIP3    H129168   0.534   5.836   1.815 -3.0312 -0.1844  0.7040
 2511TIP3    H229169   0.531   5.922   1.691  2.1070 -0.4648  0.2506
 2512TIP3   OH229170   6.620   6.263   6.857 -0.6352 -0.0361 -0.1423
 2512TIP3    H129171   6.547   6.221   6.902  0.0563 -0.0700  0.9495
 2512TIP3    H229172   6.637   6.343   6.907  0.0910 -0.0381 -0.3790
 2513TIP3   OH229173   2.318   2.036   7.249  0.0736 -0.2970  0.0339
 2513TIP3    H129174   2.320   2.074   7.337  1.5232  2.1674 -1.0016
 2513TIP3    H229175   2.368   1.955   7.255  1.8599  0.8636  1.0560
 2514TIP3   OH229176   4.786   6.663   0.859  0.3725 -0.2558  0.2481
 2514TIP3    H129177   4.720   6.595   0.868 -0.6035  0.7756  1.0960
 2514TIP3    H229178   4.869   6.619   0.879 -0.2696 -1.1622  0.9513
 2515TIP3   OH229179   6.663   5.816   6.267 -0.1365  0.0688  0.2774
 2515TIP3    H129180   6.631   5.727   6.253 -1.2716  0.3316  1.1679
 2515TIP3    H229181   6.596   5.872   6.231 -0.7723  0.6209  2.2292
 2516TIP3   OH229182   6.501   6.544   7.534  0.4087  1.3062 -0.3973
 2516TIP3    H129183   6.505   6.454   7.502 -0.3725  0.7153  1.0982
 2516TIP3    H229184   6.590   6.578   7.522  1.3218 -0.4345  1.1498
 2517TIP3   OH229185   3.058   2.077   0.333 -0.2833 -0.1158 -0.6173
 2517TIP3    H129186   3.021   2.015   0.270 -2.3604 -0.3265  0.7451
 2517TIP3    H229187   3.025   2.163   0.305  1.6189  0.2639 -1.8021
 2518TIP3   OH229188   2.820   4.748   0.953  0.0994  0.2982 -0.0075
 2518TIP3    H129189   2.854   4.667   0.993  1.8671 -0.7132 -3.3899
 2518TIP3    H229190   2.848   4.817   1.013  0.3252 -1.3683  1.8947
 2519TIP3   OH229191   1.669   5.628   0.361 -0.1783 -0.1500 -0.0361
 2519TIP3    H129192   1.750   5.656   0.317 -0.1486  0.3802  0.3649
 2519TIP3    H229193   1.613   5.705   0.360  0.0832  0.0583  1.4858
 2520TIP3   OH229194   3.059   6.088   1.600 -0.3712 -0.2244  0.2224
 2520TIP3    H129195   3.042   5.996   1.618  0.5917 -0.4496 -0.0194
 2520TIP3    H229196   3.136   6.109   1.653  0.7032 -0.1226 -1.3542
 2521TIP3   OH229197   2.530   1.279   1.301  0.0358 -0.2024  0.1012
 2521TIP3    H129198   2.558   1.268   1.210 -0.9216  1.7875 -0.4665
 2521TIP3    H229199   2.612   1.283   1.351  0.5418 -2.7233 -0.4570
 2522TIP3   OH229200   0.168   6.682   5.730  0.2723 -0.2900 -0.3238
 2522TIP3    H129201   0.189   6.620   5.660  0.5061  0.5154 -0.9668
 2522TIP3    H229202   0.115   6.749   5.688  0.8284  0.4592  0.1657
 2523TIP3   OH229203   3.591   4.813   6.063 -0.0125 -0.1598 -0.2840
 2523TIP3    H129204   3.623   4.733   6.105 -0.2889 -0.8614 -1.3824
 2523TIP3    H229205   3.500   4.820   6.093 -0.2400 -0.7145 -0.8201
 2524TIP3   OH229206   1.846   6.157   5.988 -0.2505 -0.0308 -0.4657
 2524TIP3    H129207   1.820   6.246   5.965  0.3469 -0.3588 -2.4994
 2524TIP3    H229208   1.895   6.126   5.912  0.8024 -1.5826  0.8232
 2525TIP3   OH229209   4.329   3.157   8.081 -0.1974 -1.0153 -0.2968
 2525TIP3    H129210   4.295   3.228   8.136 -1.3238 -1.0505 -0.9270
 2525TIP3    H229211   4.328   3.193   7.992 -1.5271 -2.0717 -0.7270
 2526TIP3   OH229212   2.149   0.145   6.240  0.1551  0.1426 -0.2465
 2526TIP3    H129213   2.129   0.184   6.325 -0.4251 -0.4234 -0.1149
 2526TIP3    H229214   2.087   0.186   6.179  0.3231  0.2774 -0.3278
 2527TIP3   OH229215   4.932   4.215   6.473  0.3192  0.1443 -0.3296
 2527TIP3    H129216   4.968   4.237   6.559 -1.5265  2.6098 -0.1418
 2527TIP3    H229217   5.004   4.230   6.412  1.3867 -0.8044  0.6646
 2528TIP3   OH229218   1.058   1.421   6.672 -0.2391 -0.2404  0.4218
 2528TIP3    H129219   0.994   1.395   6.607 -0.1563  2.0522 -0.5871
 2528TIP3    H229220   1.141   1.421   6.625 -0.3814  2.8536  0.1108
 2529TIP3   OH229221   3.012   6.834   7.604 -0.1643  0.1648  1.2384
 2529TIP3    H129222   3.090   6.887   7.589  0.8101 -1.3548  0.7943
 2529TIP3    H229223   2.974   6.823   7.517 -0.9929  1.0665  1.4809
 2530TIP3   OH229224   6.821   5.804   1.153 -0.0351 -0.1450  0.0110
 2530TIP3    H129225   6.861   5.809   1.240  1.1103  0.6630 -0.5449
 2530TIP3    H229226   6.795   5.894   1.134 -1.5892 -0.5627  0.1034
 2531TIP3   OH229227   7.135   0.686   6.811  0.2413 -0.4265  0.2932
 2531TIP3    H129228   7.146   0.636   6.730  1.4789 -0.6584  0.5855
 2531TIP3    H229229   7.089   0.626   6.869  0.4596 -0.7244  0.1666
 2532TIP3   OH229230   6.192   5.180   6.361  0.1170  0.1931  0.2848
 2532TIP3    H129231   6.218   5.248   6.298  3.3541 -0.4001  0.8743
 2532TIP3    H229232   6.221   5.098   6.320  1.8915 -0.2307  2.3100
 2533TIP3   OH229233   3.419   7.125   6.423 -0.2609  0.0099 -1.0798
 2533TIP3    H129234   3.499   7.178   6.414 -0.1416 -0.1073 -0.6981
 2533TIP3    H229235   3.439   7.062   6.492 -0.4208 -0.5113 -1.5066
 2534TIP3   OH229236   3.926   1.721   6.201  0.0797  0.5676  0.2212
 2534TIP3    H129237   3.845   1.670   6.210 -0.0581  0.3200 -2.1364
 2534TIP3    H229238   3.995   1.655   6.197  0.5816  0.8062  3.3826
 2535TIP3   OH229239   0.082   6.639   0.447 -0.0503  0.0456 -0.1459
 2535TIP3    H129240   0.029   6.601   0.378  1.8611  0.9957 -2.1941
 2535TIP3    H229241   0.139   6.568   0.476 -1.3600 -0.5567  1.0024
 2536TIP3   OH229242   0.543   6.573   8.055 -0.7074  0.1058  0.6772
 2536TIP3    H129243   0.535   6.661   8.094  0.7492  0.6732 -0.2797
 2536TIP3    H229244   0.633   6.569   8.024 -1.1174 -1.2982 -0.3595
 2537TIP3   OH229245   2.989   3.844   6.131  0.3836  0.0689  0.0017
 2537TIP3    H129246   2.961   3.765   6.086  2.3991 -0.6486 -0.0164
 2537TIP3    H229247   3.059   3.880   6.077  0.1854  1.3169  0.5442
 2538TIP3   OH229248   1.421   5.059   7.626 -0.6300 -0.3269  0.1693
 2538TIP3    H129249   1.426   4.965   7.611  0.6438 -0.3896  0.9068
 2538TIP3    H229250   1.423   5.098   7.539 -0.5181 -0.9612 -0.1121
 2539TIP3   OH229251   6.557   3.482   7.614  0.2436  0.2217  0.4350
 2539TIP3    H129252   6.567   3.420   7.541  2.0669  1.4243 -0.3746
 2539TIP3    H229253   6.571   3.428   7.692  1.2439 -0.5206 -0.2342
 2540TIP3   OH229254   0.500   2.128   7.517  0.5936 -0.3422 -0.3942
 2540TIP3    H129255   0.515   2.180   7.438 -0.0872  0.7107  0.1510
 2540TIP3    H229256   0.406   2.135   7.532  0.8252  0.0756  0.9195
 2541TIP3   OH229257   2.324   0.901   2.395 -0.2455  0.0816 -0.4776
 2541TIP3    H129258   2.309   0.906   2.301 -3.4643 -0.0389 -0.0630
 2541TIP3    H229259   2.324   0.992   2.425  1.1182  0.1346 -0.6353
 2542TIP3   OH229260   1.559   1.642   7.361  0.0582  0.1496  0.0378
 2542TIP3    H129261   1.638   1.624   7.411 -0.0617  0.1811  0.2412
 2542TIP3    H229262   1.582   1.714   7.302  0.1085  0.3216  0.2694
 2543TIP3   OH229263   1.902   1.692   0.081 -0.9136 -0.2929  0.5445
 2543TIP3    H129264   1.843   1.718   0.151 -1.9961  2.1166 -1.2053
 2543TIP3    H229265   1.846   1.645   0.019 -0.3528 -0.7668  0.3970
 2544TIP3   OH229266   0.061   6.328   5.833 -0.1226 -0.3156 -0.7210
 2544TIP3    H129267   0.076   6.311   5.926  0.9885 -1.0940 -1.0335
 2544TIP3    H229268   0.010   6.252   5.804 -2.5131  1.0639 -0.2379
 2545TIP3   OH229269   1.557   0.069   6.789 -0.0824  0.0174 -0.3310
 2545TIP3    H129270   1.493   0.140   6.785 -0.3830 -0.1416  1.2871
 2545TIP3    H229271   1.510  -0.003   6.831  0.6797 -0.6403 -0.5933
 2546TIP3   OH229272   0.371   4.027   7.961  0.1449  0.2916 -0.4200
 2546TIP3    H129273   0.434   4.054   8.027 -0.2343  3.5892 -1.2924
 2546TIP3    H229274   0.425   4.008   7.884  0.4487 -1.9537  0.3122
 2547TIP3   OH229275   5.280   3.420   0.426  0.6046 -0.4466 -0.1317
 2547TIP3    H129276   5.290   3.511   0.453  1.0982 -0.2397 -0.9748
 2547TIP3    H229277   5.188   3.411   0.401  0.8822  0.2101 -1.4189
 2548TIP3   OH229278   2.668   2.049   7.124 -0.6345 -0.3096  0.2088
 2548TIP3    H129279   2.744   2.023   7.177 -0.9907  1.1889  1.4988
 2548TIP3    H229280   2.699   2.045   7.034  1.0947  0.6099  0.7449
 2549TIP3   OH229281   4.716   6.308   0.719 -0.7565 -0.0526  0.0372
 2549TIP3    H129282   4.685   6.327   0.630 -1.5877  0.5912  0.4596
 2549TIP3    H229283   4.648   6.253   0.757  0.4577 -1.8688 -0.3227
 2550TIP3   OH229284   2.066   2.316   7.950 -0.3498 -0.0024  0.0810
 2550TIP3    H129285   2.142   2.278   7.906 -1.0014  0.4904 -1.5199
 2550TIP3    H229286   2.102   2.387   8.003  0.7178 -2.0186  2.1344
 2551TIP3   OH229287   0.813   3.186   7.621  0.2301  0.7003  0.4764
 2551TIP3    H129288   0.728   3.164   7.659  0.8743  0.3769  1.7660
 2551TIP3    H229289   0.822   3.126   7.547 -1.7666  2.4519 -1.2551
 2552TIP3   OH229290   1.018   0.983   0.356 -0.1532  0.8344  0.8745
 2552TIP3    H129291   1.056   0.983   0.268 -4.8005  0.4107 -1.2993
 2552TIP3    H229292   1.033   0.894   0.389  0.8535  0.7324  0.1658
 2553TIP3   OH229293   0.884   3.613   7.833 -0.1555  0.1219  0.6219
 2553TIP3    H129294   0.919   3.524   7.823 -0.0263  0.0023  1.9934
 2553TIP3    H229295   0.877   3.646   7.744  0.8612 -0.8560  0.1631
 2554TIP3   OH229296   2.983   5.000   7.891 -0.4469  0.2578 -0.3442
 2554TIP3    H129297   2.946   5.038   7.971 -0.4430  2.1882 -1.2431
 2554TIP3    H229298   3.046   5.065   7.861  0.5726 -1.0920 -1.1691
 2555TIP3   OH229299   6.716   7.122   7.420 -0.0979 -0.0197 -0.0776
 2555TIP3    H129300   6.651   7.075   7.367 -0.0430  2.2385 -2.2624
 2555TIP3    H229301   6.667   7.197   7.456  0.3624 -0.4602  1.5104
 2556TIP3   OH229302   4.598   0.335   7.596  0.3013  0.0276  0.1633
 2556TIP3    H129303   4.675   0.279   7.584 -0.1321 -0.1074 -2.0663
 2556TIP3    H229304   4.591   0.385   7.515 -1.6655  0.4085  0.5438
 2557TIP3   OH229305   4.319   1.181   7.256 -0.1263 -0.2043  0.4056
 2557TIP3    H129306   4.378   1.129   7.202 -0.8515  1.0730 -1.6949
 2557TIP3    H229307   4.232   1.144   7.240 -0.8954  2.6120 -2.4559
 2558TIP3   OH229308   2.704   6.095   1.213  0.0989 -0.1513  0.5771
 2558TIP3    H129309   2.660   6.143   1.143 -0.9811 -0.7660  0.8261
 2558TIP3    H229310   2.752   6.162   1.261  0.4793  0.3375 -0.4779
 2559TIP3   OH229311   0.401   2.213   6.963 -0.7153 -0.4341 -0.2245
 2559TIP3    H129312   0.452   2.292   6.980  2.1438 -2.3207  0.2068
 2559TIP3    H229313   0.311   2.245   6.955  0.2269  2.7391  0.8902
 2560TIP3   OH229314   2.142   6.115   7.762  0.3828 -0.0897 -0.0363
 2560TIP3    H129315   2.167   6.195   7.809  1.2573 -0.4569  0.1300
 2560TIP3    H229316   2.143   6.046   7.828 -0.5289 -0.2134 -0.1468
 2561TIP3   OH229317   5.226   2.052   0.859 -0.2891 -0.0816  0.1701
 2561TIP3    H129318   5.266   1.969   0.883  0.2929  0.2101  0.2022
 2561TIP3    H229319   5.176   2.032   0.780  1.0712 -0.1218 -0.6971
 2562TIP3   OH229320   0.215   6.523   5.949 -0.2115 -0.2583 -0.2359
 2562TIP3    H129321   0.161   6.458   5.903 -0.5693 -0.4455  0.4556
 2562TIP3    H229322   0.217   6.598   5.890  1.9380 -1.6422 -2.0430
 2563TIP3   OH229323   6.415   6.027   7.084 -0.1453 -0.6494 -0.2658
 2563TIP3    H129324   6.372   6.084   7.021 -2.9092 -2.1695  0.1247
 2563TIP3    H229325   6.395   5.938   7.053  0.5255 -1.4058  1.3810
 2564TIP3   OH229326   0.438   1.239   7.345  0.6414  0.4157  1.0522
 2564TIP3    H129327   0.500   1.236   7.272  1.9441  0.3611  2.1399
 2564TIP3    H229328   0.491   1.265   7.420 -0.6326  0.2146  2.0348
 2565TIP3   OH229329   1.289   1.741   7.159 -0.4985  0.5738  0.1882
 2565TIP3    H129330   1.279   1.752   7.064  0.0756 -0.0626  0.0522
 2565TIP3    H229331   1.300   1.647   7.171 -2.6389  0.4082  1.0819
 2566TIP3   OH229332   2.085   6.083   5.813  0.1685 -0.4317  0.2384
 2566TIP3    H129333   2.009   6.046   5.769  1.5889 -0.8116 -1.9662
 2566TIP3    H229334   2.097   6.169   5.772  1.1520 -0.5365  0.2897
 2567TIP3   OH229335   0.692   5.672   6.630  0.3804  0.6832  0.2737
 2567TIP3    H129336   0.627   5.674   6.560  1.2458  1.1244 -0.5294
 2567TIP3    H229337   0.763   5.618   6.595  0.6428  0.5718  0.9706
 2568TIP3   OH229338   1.960   0.758   7.300  0.0785 -0.7843 -0.5620
 2568TIP3    H129339   1.899   0.696   7.259  0.7683 -1.6496 -0.2915
 2568TIP3    H229340   1.916   0.784   7.381  1.0065 -3.1234  0.7616
 2569TIP3   OH229341   0.216   2.440   7.740  0.3143  0.1040  0.0554
 2569TIP3    H129342   0.291   2.498   7.746  0.3431  0.0480  0.2177
 2569TIP3    H229343   0.204   2.426   7.646  1.1570 -0.7425  0.0757
 2570TIP3   OH229344   0.809   6.825   6.958 -0.4773  0.7309  0.6349
 2570TIP3    H129345   0.727   6.781   6.977 -0.2886  0.1438  0.1012
 2570TIP3    H229346   0.785   6.900   6.904 -0.5611 -0.0281 -0.4024
 2571TIP3   OH229347   0.544   4.356   6.422  0.0119  0.1415  0.2724
 2571TIP3    H129348   0.457   4.316   6.414 -0.0658  0.5262 -0.9682
 2571TIP3    H229349   0.604   4.281   6.428 -0.4330 -0.1233  1.6563
 2572TIP3   OH229350   0.736   2.381   0.004 -0.4896  0.5923  0.5634
 2572TIP3    H129351   0.792   2.373   0.082 -1.0233  3.1295  1.2513
 2572TIP3    H229352   0.649   2.358   0.035 -0.0418 -2.5868 -0.3292
 2573TIP3   OH229353   4.582   1.192   6.896 -0.0015 -0.5133 -0.4841
 2573TIP3    H129354   4.674   1.191   6.868 -0.2302 -1.0124 -1.2175
 2573TIP3    H229355   4.565   1.102   6.926 -0.2093 -0.3818 -0.2067
 2574TIP3   OH229356   0.312   0.373   6.643  0.3048  0.3899 -0.6714
 2574TIP3    H129357   0.281   0.448   6.592  0.8726  0.5955 -0.7244
 2574TIP3    H229358   0.407   0.382   6.643  0.3021  0.5289  0.6420
 2575TIP3   OH229359   1.396   4.412   6.151  0.5501  0.0405 -0.1586
 2575TIP3    H129360   1.376   4.388   6.061  0.9022  1.4980 -0.6382
 2575TIP3    H229361   1.481   4.457   6.146 -0.3409  1.8372  0.6232
 2576TIP3   OH229362   5.073   0.549   6.284  0.3378  0.1908 -0.1653
 2576TIP3    H129363   5.053   0.576   6.195  0.3477  0.1582 -0.1778
 2576TIP3    H229364   5.166   0.571   6.296  0.3686  0.0845 -0.2042
 2577TIP3   OH229365   1.257   0.081   0.234 -0.8297 -0.2111  0.0514
 2577TIP3    H129366   1.182   0.021   0.245 -0.2683 -0.6315  1.7067
 2577TIP3    H229367   1.331   0.034   0.273  0.0676  0.6935 -0.5413
 2578TIP3   OH229368   0.087   5.969   5.879  0.3622 -0.3153  0.1173
 2578TIP3    H129369   0.014   6.027   5.857  2.0905  2.1364  0.6639
 2578TIP3    H229370   0.085   5.964   5.975 -0.0999 -1.6564  0.0596
 2579TIP3   OH229371   6.153   6.733   0.809  0.5738  0.0999 -0.2643
 2579TIP3    H129372   6.154   6.691   0.895 -0.8855 -0.7372 -0.6429
 2579TIP3    H229373   6.245   6.752   0.791  0.9741 -0.4138  1.1364
 2580TIP3   OH229374   0.137   6.763   6.448  0.1844 -0.5342 -0.1269
 2580TIP3    H129375   0.187   6.843   6.465  0.3865 -0.4868 -0.9226
 2580TIP3    H229376   0.047   6.794   6.431  0.0617 -0.5515  0.4852
 2581TIP3   OH229377   1.905   0.431   6.711  0.0095 -0.1596  0.0405
 2581TIP3    H129378   1.889   0.340   6.685  1.3523 -0.3381 -0.1813
 2581TIP3    H229379   1.830   0.453   6.767  0.5420 -1.9737  1.5160
 2582TIP3   OH229380   6.892   6.261   0.831  0.0226  0.6570 -0.0703
 2582TIP3    H129381   6.952   6.319   0.783  1.0836 -0.7507 -0.4623
 2582TIP3    H229382   6.824   6.320   0.863  0.0896  1.8670 -2.0239
 2583TIP3   OH229383   2.921   0.125   6.700  0.7793  0.1461 -0.1937
 2583TIP3    H129384   3.009   0.162   6.691  1.4055 -1.5441 -1.3567
 2583TIP3    H229385   2.904   0.126   6.794  1.7579  1.1559 -0.0284
 2584TIP3   OH229386   6.605   2.701   1.163  0.3691 -0.4887  0.7954
 2584TIP3    H129387   6.620   2.623   1.216 -0.0020 -0.6059  0.7299
 2584TIP3    H229388   6.633   2.677   1.075  1.0212 -0.2821  0.9491
 2585TIP3   OH229389   1.782   6.766   7.228 -0.1049  0.5629  0.3696
 2585TIP3    H129390   1.843   6.768   7.302 -1.2431  1.6630  1.3040
 2585TIP3    H229391   1.795   6.680   7.188 -0.4696 -0.6354  2.7361
 2586TIP3   OH229392   5.865   4.799   1.389 -0.1939 -0.0344 -0.0099
 2586TIP3    H129393   5.909   4.819   1.306  0.8489 -0.6884  0.3744
 2586TIP3    H229394   5.922   4.838   1.456  0.5914 -2.1364  0.5878
 2587TIP3   OH229395   2.850   4.726   7.842 -0.3782 -0.0254 -0.1940
 2587TIP3    H129396   2.858   4.808   7.792  1.6629 -0.2711 -0.3238
 2587TIP3    H229397   2.897   4.662   7.789  1.3346 -0.4115  1.7673
 2588TIP3   OH229398   0.893   6.096   6.553 -0.3101  0.7011 -0.6585
 2588TIP3    H129399   0.798   6.094   6.538 -0.2104  2.7795 -1.7083
 2588TIP3    H229400   0.926   6.019   6.508 -1.5917 -0.4892  0.3986
 2589TIP3   OH229401   0.711   6.801   0.944  0.1086  0.5159 -0.5512
 2589TIP3    H129402   0.756   6.716   0.948 -0.3336  0.3125  0.2827
 2589TIP3    H229403   0.780   6.865   0.962  0.1121  0.2190  0.5076
 2590TIP3   OH229404   6.437   5.084   1.649  0.2844  0.3822 -0.1799
 2590TIP3    H129405   6.487   5.120   1.723 -2.4437 -0.8102  2.3168
 2590TIP3    H229406   6.471   4.995   1.639  0.5844  0.5100 -0.3282
 2591TIP3   OH229407   5.385   5.347   6.643  0.0854  0.0346 -0.6551
 2591TIP3    H129408   5.433   5.402   6.580 -0.5206 -0.6886 -1.7706
 2591TIP3    H229409   5.348   5.277   6.589  2.6961 -2.7379  1.0317
 2592TIP3   OH229410   1.357   5.453   0.691 -0.4026 -0.1727  0.6952
 2592TIP3    H129411   1.306   5.393   0.637 -2.3690  1.3636  0.8111
 2592TIP3    H229412   1.364   5.532   0.639  0.9740 -0.0075  1.1273
 2593TIP3   OH229413   6.103   4.979   6.849  0.3020  0.0658  0.1912
 2593TIP3    H129414   6.063   5.013   6.770 -0.6875 -0.4592  0.4569
 2593TIP3    H229415   6.169   4.916   6.818 -1.0143 -1.1442 -0.1989
 2594TIP3   OH229416   0.746   5.396   6.921  0.3058  0.3350 -0.7496
 2594TIP3    H129417   0.785   5.473   6.962 -1.8358  0.9690  0.1543
 2594TIP3    H229418   0.821   5.341   6.898  1.6300  0.3715  3.1616
 2595TIP3   OH229419   2.265   2.774   7.355  0.0187 -0.5519 -0.2459
 2595TIP3    H129420   2.316   2.698   7.328  2.1124  0.7559 -0.0544
 2595TIP3    H229421   2.325   2.825   7.409 -1.2843  1.3820 -0.6009
 2596TIP3   OH229422   3.348   3.392   7.066 -0.4143  0.2521 -0.1957
 2596TIP3    H129423   3.300   3.419   6.988  0.3638 -0.4947 -0.9413
 2596TIP3    H229424   3.283   3.396   7.136 -0.7127  2.5857 -0.5345
 2597TIP3   OH229425   2.672   5.378   2.046  0.1423  0.0067  0.0033
 2597TIP3    H129426   2.703   5.400   2.134  0.0187  0.7123 -0.1291
 2597TIP3    H229427   2.590   5.426   2.037  0.0085 -0.2957 -0.3910
 2598TIP3   OH229428   1.955   4.801   0.760 -0.3263 -0.0354  0.4532
 2598TIP3    H129429   1.882   4.739   0.766  0.0346 -0.3138  2.3771
 2598TIP3    H229430   1.973   4.825   0.851  1.1024  1.0614 -0.1039
 2599TIP3   OH229431   5.854   0.690   0.617 -0.6682  0.2014  0.2513
 2599TIP3    H129432   5.788   0.702   0.548 -1.2000  2.9076  1.1750
 2599TIP3    H229433   5.937   0.710   0.574 -0.2886 -3.5773 -1.0182
 2600TIP3   OH229434   6.880   4.983   1.459  0.1910  0.4431 -0.1369
 2600TIP3    H129435   6.853   4.892   1.445  0.1973  0.3309  0.5330
 2600TIP3    H229436   6.907   5.014   1.373  1.6875 -0.6882 -0.0849
 2601TIP3   OH229437   0.311   6.968   6.414  0.1029  0.1256  0.0802
 2601TIP3    H129438   0.294   6.945   6.322 -3.5482  0.5853  0.5456
 2601TIP3    H229439   0.365   7.047   6.409 -0.8271  0.6924 -1.7339
 2602TIP3   OH229440   1.944   2.756   6.373 -0.2621  0.1788  0.3153
 2602TIP3    H129441   2.025   2.789   6.412  0.3182  0.9858 -1.4842
 2602TIP3    H229442   1.967   2.739   6.281 -2.1345  0.3975 -0.2174
 2603TIP3   OH229443   1.308   1.102   1.127 -0.8055 -0.2878 -0.0749
 2603TIP3    H129444   1.267   1.188   1.138 -1.3408 -0.4780 -0.5635
 2603TIP3    H229445   1.267   1.047   1.194  0.5684  0.1947  1.1875
 2604TIP3   OH229446   1.158   6.397   1.483 -0.0842 -0.1906 -1.0692
 2604TIP3    H129447   1.149   6.332   1.553 -0.2758  3.0078  1.9809
 2604TIP3    H229448   1.246   6.382   1.448  1.1458  0.0483  1.8298
 2605TIP3   OH229449   5.954   0.253   0.805  0.2591  0.7697  0.5563
 2605TIP3    H129450   6.021   0.192   0.775  0.3761  0.8713  0.6075
 2605TIP3    H229451   5.951   0.240   0.900 -2.5524 -2.0464  0.1745
 2606TIP3   OH229452   3.184   3.774   1.786  0.2332  0.7889  0.4951
 2606TIP3    H129453   3.274   3.742   1.792  0.6241  1.1509 -2.8779
 2606TIP3    H229454   3.188   3.844   1.722 -2.6904 -0.0993 -0.7158
 2607TIP3   OH229455   3.150   5.535   7.624 -0.7226 -0.5114 -0.1791
 2607TIP3    H129456   3.073   5.479   7.614 -0.0727 -1.5351  0.4101
 2607TIP3    H229457   3.126   5.617   7.581 -2.5425 -0.4145  0.9714
 2608TIP3   OH229458   3.152   5.215   7.801  0.2302  0.1047  0.1886
 2608TIP3    H129459   3.138   5.225   7.707 -0.4114  1.6311  0.4242
 2608TIP3    H229460   3.243   5.188   7.809 -0.0079 -1.0665 -0.9236
 2609TIP3   OH229461   1.025   2.346   6.213  0.0443  0.0389 -0.1410
 2609TIP3    H129462   1.032   2.438   6.186 -0.2778  0.2310  0.4144
 2609TIP3    H229463   0.958   2.309   6.156 -1.9341  0.9075  1.5810
 2610TIP3   OH229464   5.800   1.868   7.286  0.1801 -0.3594  1.0981
 2610TIP3    H129465   5.868   1.865   7.354  2.3891 -1.4098 -1.0661
 2610TIP3    H229466   5.808   1.955   7.248 -1.5752  0.5097  2.6312
 2611TIP3   OH229467   0.609   1.629   7.868 -0.4772  0.4031 -0.5330
 2611TIP3    H129468   0.684   1.686   7.850  0.6983 -1.1164 -0.5223
 2611TIP3    H229469   0.536   1.690   7.879  0.3346  1.7938 -2.5255
 2612TIP3   OH229470   2.093   5.427   6.985 -0.0596  0.4659  0.4998
 2612TIP3    H129471   2.091   5.475   7.068  0.1000  0.6981  0.3715
 2612TIP3    H229472   2.185   5.405   6.972 -0.5050 -2.3895  1.9866
 2613TIP3   OH229473   6.535   2.814   6.958  0.0659  0.3247 -0.8264
 2613TIP3    H129474   6.566   2.751   7.024 -0.7613  0.1284 -0.6197
 2613TIP3    H229475   6.518   2.894   7.007  0.3529  0.4717 -0.9625
 2614TIP3   OH229476   1.310   6.268   6.211 -0.1453  0.0681  0.1467
 2614TIP3    H129477   1.251   6.323   6.159  1.4173  0.8816 -0.7755
 2614TIP3    H229478   1.397   6.304   6.195  0.6251 -1.1944  1.4279
 2615TIP3   OH229479   2.917   2.560   7.129 -0.5525  0.1748 -0.6906
 2615TIP3    H129480   2.823   2.572   7.116 -0.4346 -0.0579 -1.7528
 2615TIP3    H229481   2.955   2.571   7.043  0.5257  1.4160 -0.0659
 2616TIP3   OH229482   0.932   6.508   0.768 -0.5390  0.5197  0.5356
 2616TIP3    H129483   0.891   6.588   0.735  1.1832  1.0202 -0.4556
 2616TIP3    H229484   1.018   6.506   0.726  0.1334 -0.9361  1.9312
 2617TIP3   OH229485   0.472   4.272   6.772  0.2178  0.2980  0.2652
 2617TIP3    H129486   0.461   4.317   6.856  1.2360  1.1048 -0.0182
 2617TIP3    H229487   0.391   4.291   6.724 -0.0958  0.3717  0.8253
 2618TIP3   OH229488   3.416   1.638   0.703 -0.6089 -0.2601 -0.4749
 2618TIP3    H129489   3.423   1.722   0.749  0.9696  1.0269 -2.9769
 2618TIP3    H229490   3.326   1.636   0.670 -0.9178  0.0319  0.3280
 2619TIP3   OH229491   0.277   5.652   7.979  0.1990 -0.0626 -0.1397
 2619TIP3    H129492   0.298   5.725   7.921  0.2396 -0.4978 -0.6751
 2619TIP3    H229493   0.205   5.606   7.936  2.8394 -2.7426 -1.8961
 2620TIP3   OH229494   6.202   5.630   6.668  0.0148 -0.5731 -0.0569
 2620TIP3    H129495   6.199   5.609   6.762  0.8406  1.6542  0.4839
 2620TIP3    H229496   6.263   5.566   6.632 -2.1624 -3.0338  0.4585
 2621TIP3   OH229497   5.017   0.855   7.302  0.2002  0.9617  0.4537
 2621TIP3    H129498   4.960   0.916   7.349  1.1077  1.1819  1.2971
 2621TIP3    H229499   5.101   0.860   7.349  0.0251 -1.6061  1.1014
 2622TIP3   OH229500   4.660   5.953   0.872  0.4804 -0.1952 -0.0968
 2622TIP3    H129501   4.592   5.886   0.863 -0.2978  0.2231  2.3489
 2622TIP3    H229502   4.616   6.035   0.848 -0.2309  0.2228  2.4564
 2623TIP3   OH229503   1.967   5.358   7.567 -0.5019 -0.7319 -0.1692
 2623TIP3    H129504   2.044   5.315   7.603 -0.1396 -1.2403 -1.5181
 2623TIP3    H229505   1.988   5.451   7.569 -0.7230 -0.7016  1.4479
 2624TIP3   OH229506   6.041   6.493   5.806 -0.3286  0.1908 -0.0139
 2624TIP3    H129507   6.113   6.462   5.751 -1.9861 -0.2915 -1.9552
 2624TIP3    H229508   6.003   6.414   5.842 -0.3715  0.4007  0.4051
 2625TIP3   OH229509   0.349   5.746   7.720  0.4645  0.3270 -0.1306
 2625TIP3    H129510   0.405   5.669   7.728 -0.3056 -0.0785  1.6911
 2625TIP3    H229511   0.399   5.807   7.666  1.9003 -0.7100  0.0136
 2626TIP3   OH229512   4.152   5.584   7.927 -0.3951 -0.3166 -0.3601
 2626TIP3    H129513   4.179   5.528   7.855 -0.9410 -1.6745  0.4561
 2626TIP3    H229514   4.199   5.549   8.003 -2.1928 -0.8915  0.5140
 2627TIP3   OH229515   0.527   1.045   0.696  0.5734  0.2001  0.2267
 2627TIP3    H129516   0.465   1.030   0.625  1.4553 -0.8189 -0.3369
 2627TIP3    H229517   0.613   1.048   0.654  1.0858 -0.2012  1.2052
 2628TIP3   OH229518   1.409   4.527   6.650 -0.5411 -0.2191  0.0694
 2628TIP3    H129519   1.399   4.432   6.653 -0.4398 -0.1950  1.7792
 2628TIP3    H229520   1.491   4.544   6.697 -0.3200  0.6921 -0.6192
 2629TIP3   OH229521   6.344   6.364   0.195 -0.0958 -0.7619 -0.0119
 2629TIP3    H129522   6.273   6.300   0.182 -0.1234 -0.4104 -1.7550
 2629TIP3    H229523   6.375   6.384   0.106 -0.6774  2.3077  0.4056
 2630TIP3   OH229524   6.824   1.697   0.365  0.1752  0.1578  0.6991
 2630TIP3    H129525   6.918   1.677   0.361  0.1086  0.1948 -1.7880
 2630TIP3    H229526   6.784   1.617   0.398  0.6975 -1.3035 -2.0713
 2631TIP3   OH229527   3.201   0.130   5.978  0.5420  0.0703  0.2825
 2631TIP3    H129528   3.113   0.092   5.978 -0.0821  1.4902  0.3547
 2631TIP3    H229529   3.256   0.060   6.014 -0.2788 -1.4029 -1.2137
 2632TIP3   OH229530   0.969   6.632   1.429  0.4566  0.3587  0.0496
 2632TIP3    H129531   0.996   6.541   1.429  0.1712  0.2741  0.3923
 2632TIP3    H229532   0.983   6.661   1.339 -2.0058 -0.7773 -0.7339
 2633TIP3   OH229533   1.069   0.552   6.331  0.4106  0.5300 -0.3405
 2633TIP3    H129534   1.035   0.561   6.420  0.7671 -1.2061  0.0022
 2633TIP3    H229535   1.036   0.628   6.284  0.2716  1.5032  1.2991
 2634TIP3   OH229536   2.222   4.475   6.581  0.0543 -0.0381  0.3628
 2634TIP3    H129537   2.188   4.545   6.526  0.4796 -0.7924 -0.8759
 2634TIP3    H229538   2.170   4.398   6.557  2.4447 -1.1572 -1.3865
 2635TIP3   OH229539   6.614   6.187   6.278 -0.7209  0.1674 -0.0956
 2635TIP3    H129540   6.670   6.168   6.203 -1.0853  0.1195 -0.3578
 2635TIP3    H229541   6.627   6.112   6.337 -1.0305 -0.1815 -0.4633
 2636TIP3   OH229542   2.168   1.979   7.524  0.2103 -0.9455  0.5110
 2636TIP3    H129543   2.095   1.984   7.585  0.2476  0.3629  0.4591
 2636TIP3    H229544   2.236   2.034   7.564  0.4199 -0.4962 -0.4421
 2637TIP3   OH229545   1.756   0.758   6.360  0.0416 -0.5389 -0.4459
 2637TIP3    H129546   1.836   0.808   6.341 -1.0987  1.2667 -0.5767
 2637TIP3    H229547   1.711   0.752   6.276 -0.1124 -1.2992 -0.3132
 2638TIP3   OH229548   2.357   5.832   7.572 -0.3572  0.3825  0.1807
 2638TIP3    H129549   2.283   5.790   7.615 -0.7214 -0.9076 -1.6506
 2638TIP3    H229550   2.323   5.916   7.542 -0.7531  0.2913  0.3681
 2639TIP3   OH229551   6.364   0.024   7.042  0.5149 -0.2936  1.2918
 2639TIP3    H129552   6.444   0.002   6.994 -1.3469 -3.8017 -0.3618
 2639TIP3    H229553   6.336   0.108   7.004  2.1748 -0.1489  0.3410
 2640TIP3   OH229554   2.450   0.108   6.797 -0.0112  0.1613 -0.3101
 2640TIP3    H129555   2.479   0.032   6.746  0.7067 -1.5720  2.6017
 2640TIP3    H229556   2.497   0.182   6.757  0.7306 -1.1703 -1.9810
 2641TIP3   OH229557   6.750   3.622   0.963 -0.5469  0.0687 -0.4620
 2641TIP3    H129558   6.687   3.585   1.025 -2.3344 -0.1040 -2.3262
 2641TIP3    H229559   6.835   3.604   1.003 -1.4973 -2.9907  0.3715
 2642TIP3   OH229560   5.493   7.152   0.168  0.2225 -0.2153 -0.1933
 2642TIP3    H129561   5.550   7.196   0.231 -1.3932 -0.0783  1.2164
 2642TIP3    H229562   5.474   7.218   0.102 -1.0436  0.8142  1.1608
 2643TIP3   OH229563   2.867   5.059   2.109  0.0658  0.3988 -0.1884
 2643TIP3    H129564   2.954   5.020   2.117  0.6318  1.8996  1.3871
 2643TIP3    H229565   2.813   4.990   2.071  1.5996 -1.0513  0.1812
 2644TIP3   OH229566   0.886   3.960   0.658  0.0800 -0.3998  0.3936
 2644TIP3    H129567   0.901   3.887   0.597  0.3451  0.8006 -0.9887
 2644TIP3    H229568   0.940   3.937   0.734 -0.6446 -2.1576  0.4098
 2645TIP3   OH229569   4.023   0.124   7.501 -0.2055 -0.2260  0.1939
 2645TIP3    H129570   4.045   0.110   7.593  0.5872  0.3691  0.1003
 2645TIP3    H229571   3.931   0.099   7.495 -0.1106 -0.8084  1.0285
 2646TIP3   OH229572   1.781   6.930   0.006 -0.4724 -0.5669 -0.1706
 2646TIP3    H129573   1.794   6.962  -0.083  0.1341 -0.1940  0.0486
 2646TIP3    H229574   1.689   6.904   0.009 -0.7056  0.1857 -0.6620
 2647TIP3   OH229575   4.127   6.177   7.195  0.1391 -0.0333  0.6294
 2647TIP3    H129576   4.202   6.165   7.137 -1.1312 -0.6174 -0.9279
 2647TIP3    H229577   4.057   6.126   7.155 -0.0954 -2.6214  4.0642
 2648TIP3   OH229578   5.430   6.194   7.031 -0.0674 -0.4937 -0.0363
 2648TIP3    H129579   5.418   6.224   7.121 -0.9182 -1.6472  0.2543
 2648TIP3    H229580   5.436   6.099   7.039 -0.2526 -0.6076 -1.2053
 2649TIP3   OH229581   1.438   6.167   7.134  0.1811  0.2801 -0.2832
 2649TIP3    H129582   1.397   6.085   7.160  0.6058  0.5740  1.3493
 2649TIP3    H229583   1.467   6.207   7.216  2.7612  0.6005 -1.3061
 2650TIP3   OH229584   0.904   4.027   7.665  0.1943 -0.7955  0.2210
 2650TIP3    H129585   0.930   3.937   7.649  0.3289 -0.8874  0.9374
 2650TIP3    H229586   0.808   4.027   7.661  0.2499 -0.1687 -3.9980
 2651TIP3   OH229587   5.762   4.757   0.463  0.2630 -0.0822 -0.0231
 2651TIP3    H129588   5.825   4.688   0.447  0.5946  0.7868 -2.6162
 2651TIP3    H229589   5.715   4.768   0.380  0.4863  3.0520  0.1735
 2652TIP3   OH229590   4.701   5.315   6.786  0.2150  0.1400  0.0067
 2652TIP3    H129591   4.663   5.400   6.765 -2.4858 -1.2377 -0.9276
 2652TIP3    H229592   4.689   5.306   6.880  1.7590  1.3440  0.3417
 2653TIP3   OH229593   0.233   3.143   0.204 -0.0662  0.2196  0.0870
 2653TIP3    H129594   0.273   3.059   0.226 -0.9460 -0.8864 -2.3202
 2653TIP3    H229595   0.237   3.194   0.285  0.1668 -2.2578  1.6923
 2654TIP3   OH229596   1.150   1.326   6.949 -0.2478 -0.5983  0.1473
 2654TIP3    H129597   1.120   1.363   6.866  0.1185 -1.0073 -0.1712
 2654TIP3    H229598   1.230   1.374   6.969 -0.9867  0.3443  0.8877
 2655TIP3   OH229599   3.318   6.435   7.966 -0.0907  0.5236  0.0524
 2655TIP3    H129600   3.394   6.382   7.941 -2.5621 -3.6771  0.8861
 2655TIP3    H229601   3.324   6.442   8.061 -1.0737 -0.3957  0.1886
 2656TIP3   OH229602   3.696   6.424   0.119 -0.1151  0.3162 -0.1175
 2656TIP3    H129603   3.682   6.407   0.026 -1.1047  1.4675 -0.1921
 2656TIP3    H229604   3.791   6.431   0.129  0.0441 -0.7333 -0.8663
 2657TIP3   OH229605   3.252   0.222   6.354 -0.0130 -0.5278 -0.1826
 2657TIP3    H129606   3.215   0.256   6.436 -1.2831 -0.5133 -0.7519
 2657TIP3    H229607   3.257   0.128   6.367 -2.9765 -0.8912 -1.1246
 2658TIP3   OH229608   2.877   6.467   6.123 -0.2455 -0.1217  0.0493
 2658TIP3    H129609   2.828   6.439   6.046 -0.1688 -0.6536  0.1888
 2658TIP3    H229610   2.925   6.389   6.150 -0.1924  0.0913  0.5735
 2659TIP3   OH229611   0.895   6.408   7.476  0.0883  0.1877 -0.3464
 2659TIP3    H129612   0.955   6.334   7.465  0.7854  0.9413 -1.6947
 2659TIP3    H229613   0.843   6.409   7.396 -1.8730 -0.5731  0.8945
 2660TIP3   OH229614   0.668   5.333   5.651 -0.4872  0.1758 -0.0135
 2660TIP3    H129615   0.609   5.287   5.710  0.4695 -0.9984  0.0414
 2660TIP3    H229616   0.675   5.276   5.574 -0.1701  0.7427 -0.4099
 2661TIP3   OH229617   4.396   6.948   6.340 -0.0072  0.0075 -0.3801
 2661TIP3    H129618   4.468   6.893   6.310  0.2824  0.3797 -0.3746
 2661TIP3    H229619   4.317   6.904   6.309  0.2969  0.5714 -1.9821
 2662TIP3   OH229620   6.963   6.763   7.659  0.5568 -0.4313  0.0951
 2662TIP3    H129621   6.938   6.678   7.622  1.5211 -1.0697  0.8764
 2662TIP3    H229622   6.928   6.827   7.597 -2.6546 -1.2713  0.9242
 2663TIP3   OH229623   4.506   6.458   7.905 -0.1137  0.0818 -0.4460
 2663TIP3    H129624   4.540   6.480   7.992 -1.3149 -0.1435  0.0921
 2663TIP3    H229625   4.415   6.488   7.907 -0.0388  0.4274 -1.7672
 2664TIP3   OH229626   3.603   4.318   6.046 -0.3609 -0.1217 -0.5319
 2664TIP3    H129627   3.653   4.394   6.015 -0.9220  0.2205 -0.6027
 2664TIP3    H229628   3.670   4.256   6.074  0.0937  0.6657  0.1664
 2665TIP3   OH229629   0.788   3.290   0.827  0.1062  0.0883  0.1109
 2665TIP3    H129630   0.775   3.282   0.732  0.4734  0.4060  0.0335
 2665TIP3    H229631   0.879   3.265   0.842 -0.6584 -2.4862  0.7144
 2666TIP3   OH229632   6.072   4.678   7.728 -0.5586 -0.3512 -1.1733
 2666TIP3    H129633   6.109   4.732   7.798 -0.0135 -1.9970 -0.1784
 2666TIP3    H229634   6.135   4.608   7.715 -1.9143 -1.5529 -1.4732
 2667TIP3   OH229635   0.828   6.542   8.037 -0.1049 -0.0684  0.3328
 2667TIP3    H129636   0.842   6.624   7.991 -1.2307  0.8640  1.6162
 2667TIP3    H229637   0.871   6.476   7.982  1.0675  1.3957 -0.5558
 2668TIP3   OH229638   2.670   0.237   6.702  0.1033 -0.5197  0.1730
 2668TIP3    H129639   2.747   0.181   6.694 -0.3980 -1.2859  0.7372
 2668TIP3    H229640   2.683   0.285   6.784  0.2797 -0.1763 -0.0502
 2669TIP3   OH229641   3.588   0.196   6.736  0.1679  0.1651 -0.1449
 2669TIP3    H129642   3.564   0.278   6.779 -1.8462 -0.4502 -0.0294
 2669TIP3    H229643   3.505   0.149   6.727  0.8871 -0.6677 -2.7203
 2670TIP3   OH229644   3.613   0.215   6.439 -0.0547 -0.0382 -0.1201
 2670TIP3    H129645   3.650   0.214   6.528 -0.4631  2.3985  0.1180
 2670TIP3    H229646   3.538   0.274   6.446 -0.4950 -0.3684 -1.9458
 2671TIP3   OH229647   1.828   0.601   7.766  0.5384 -0.5986 -0.5562
 2671TIP3    H129648   1.793   0.542   7.833 -0.4976  0.3261 -0.2591
 2671TIP3    H229649   1.922   0.580   7.762  0.2481 -2.0092 -0.2182
 2672TIP3   OH229650   2.248   4.662   6.382 -0.7665 -0.4302 -0.3027
 2672TIP3    H129651   2.190   4.714   6.328  1.3018 -1.5073 -3.6818
 2672TIP3    H229652   2.252   4.576   6.340  1.2671 -1.1767  1.2656
 2673TIP3   OH229653   2.513   4.814   7.031  0.2635  0.3129 -0.1924
 2673TIP3    H129654   2.607   4.823   7.041  0.1831 -0.1842  1.2010
 2673TIP3    H229655   2.488   4.749   7.097 -0.9195 -0.2666 -1.1808
 2674TIP3   OH229656   6.078   6.230   0.085 -0.1238 -0.1845 -0.3610
 2674TIP3    H129657   6.131   6.177   0.026  0.0870  0.2526 -0.5710
 2674TIP3    H229658   5.995   6.241   0.038 -0.2777 -0.5802 -0.1840
 2675TIP3   OH229659   1.869   0.496   6.329  0.4624  0.0709  0.3744
 2675TIP3    H129660   1.872   0.588   6.357 -0.6843  0.3968 -0.5516
 2675TIP3    H229661   1.807   0.495   6.257 -0.4771 -1.6593  1.1904
 2676TIP3   OH229662   5.300   3.985   0.113 -0.1403 -0.3231 -0.1309
 2676TIP3    H129663   5.347   4.029   0.042 -2.2112  0.3380 -1.1345
 2676TIP3    H229664   5.347   4.011   0.192 -0.1379  2.1807 -0.8907
 2677TIP3   OH229665   3.852   6.672   8.082  0.2055  0.1854  0.2402
 2677TIP3    H129666   3.759   6.659   8.065 -0.0211  1.3860  0.5185
 2677TIP3    H229667   3.892   6.587   8.064 -1.0174 -0.4838  0.6257
 2678TIP3   OH229668   1.153   0.277   6.335  0.1292 -0.8171 -0.0040
 2678TIP3    H129669   1.132   0.370   6.340  1.8528 -0.4865  1.9482
 2678TIP3    H229670   1.076   0.232   6.370 -0.8594 -0.1638 -1.3226
 2679TIP3   OH229671   0.809   0.736   7.401 -0.4869 -0.0148  0.0394
 2679TIP3    H129672   0.882   0.771   7.452 -0.4782  0.9558 -0.6294
 2679TIP3    H229673   0.850   0.685   7.331 -0.4360  0.7887 -0.5223
 2680TIP3   OH229674   4.979   0.011   7.841 -0.1569  0.5740 -0.1576
 2680TIP3    H129675   4.916  -0.062   7.838 -0.4268  0.8559 -1.4044
 2680TIP3    H229676   4.925   0.088   7.860 -0.2076  0.8268 -1.2914
 2681TIP3   OH229677   2.570   4.503   6.695 -0.4747  0.1082  0.2872
 2681TIP3    H129678   2.628   4.472   6.626 -1.9802  0.3189 -1.1064
 2681TIP3    H229679   2.619   4.572   6.740  0.5269 -0.0638 -0.5369
 2682TIP3   OH229680   1.696   4.247   6.890 -0.6523 -0.0687 -0.1422
 2682TIP3    H129681   1.616   4.232   6.839 -0.2329 -2.0020 -0.2893
 2682TIP3    H229682   1.666   4.285   6.972 -1.5295  1.1710 -1.0217
 2683TIP3   OH229683   3.119   1.004   1.400  0.1132  0.2854  0.2172
 2683TIP3    H129684   3.173   0.928   1.377 -1.1484 -0.2084 -1.1945
 2683TIP3    H229685   3.101   0.993   1.493  1.1606 -0.3588  0.3557
 2684TIP3   OH229686   7.083   1.997   1.217  0.4641 -0.5882 -0.1424
 2684TIP3    H129687   6.992   1.977   1.239  0.2774  0.4940  0.0946
 2684TIP3    H229688   7.132   1.972   1.295  0.3224 -0.7339 -0.0980
 2685TIP3   OH229689   6.735   6.542   6.381 -0.8174  0.1787 -0.1874
 2685TIP3    H129690   6.646   6.531   6.349 -0.9821 -1.4050  0.7567
 2685TIP3    H229691   6.733   6.506   6.470  1.4139 -2.6038 -1.1652
 2686TIP3   OH229692   5.520   6.749   7.068  0.4149  0.8344  0.5488
 2686TIP3    H129693   5.597   6.797   7.037 -0.2332  0.9994 -0.8562
 2686TIP3    H229694   5.546   6.657   7.064  1.0449  0.9595  1.5270
 2687TIP3   OH229695   5.911   6.691   1.062  0.1618  0.2821 -0.0995
 2687TIP3    H129696   5.900   6.778   1.100 -0.1040  0.7458 -1.2393
 2687TIP3    H229697   5.859   6.634   1.119  0.4627  0.8357  0.7425
 2688TIP3   OH229698   5.543   3.841   6.375  0.1454  0.1851 -0.3813
 2688TIP3    H129699   5.583   3.926   6.358  0.6365 -0.1732 -1.0177
 2688TIP3    H229700   5.465   3.840   6.318  0.1997  0.1634 -0.4557
 2689TIP3   OH229701   4.940   3.972   7.172  0.2236 -0.3159  0.3962
 2689TIP3    H129702   4.878   4.045   7.171 -0.1652 -0.6385  0.8175
 2689TIP3    H229703   4.887   3.896   7.149  0.0597 -0.9108  2.6495
 2690TIP3   OH229704   5.064   0.218   0.448  0.3046  0.0401  0.1489
 2690TIP3    H129705   5.146   0.197   0.492  0.5236 -0.5268 -0.5115
 2690TIP3    H229706   5.003   0.238   0.519  0.3146 -2.0920  0.8094
 2691TIP3   OH229707   2.011   2.255   6.932  0.3176 -0.4414  0.1791
 2691TIP3    H129708   1.965   2.338   6.940 -1.3387 -1.4198  1.3835
 2691TIP3    H229709   2.001   2.231   6.840  1.5006  1.0491 -0.3554
 2692TIP3   OH229710   1.354   5.014   0.319 -0.3307 -0.0260  0.2130
 2692TIP3    H129711   1.391   4.926   0.327 -3.7053 -1.4556  1.1815
 2692TIP3    H229712   1.380   5.058   0.400 -0.7874 -1.0366  0.9254
 2693TIP3   OH229713   2.715   6.124   6.115  0.6182 -0.0528 -0.1179
 2693TIP3    H129714   2.795   6.168   6.144  0.6776  0.7868 -1.5384
 2693TIP3    H229715   2.664   6.192   6.072 -1.1835 -0.4248  1.3519
 2694TIP3   OH229716   0.426   0.428   7.357 -0.1303  0.1986 -0.0033
 2694TIP3    H129717   0.341   0.420   7.400 -0.5978 -1.3155 -1.1818
 2694TIP3    H229718   0.477   0.484   7.416 -1.3789 -0.2558  1.5519
 2695TIP3   OH229719   3.340   6.147   7.240 -0.1287  0.4680  0.2507
 2695TIP3    H129720   3.313   6.238   7.233 -1.4660  0.1763  1.5093
 2695TIP3    H229721   3.266   6.102   7.280  0.9069 -0.9879  0.6002
 2696TIP3   OH229722   1.975   7.046   6.333  0.0678 -0.7125  0.3557
 2696TIP3    H129723   1.907   6.978   6.337 -1.1651  0.5067  0.4452
 2696TIP3    H229724   1.932   7.119   6.289  0.9482  0.5138  1.5215
 2697TIP3   OH229725   4.758   6.281   8.029  0.3829 -0.2107 -0.1545
 2697TIP3    H129726   4.841   6.326   8.011  0.9862 -0.4814  1.8289
 2697TIP3    H229727   4.713   6.338   8.091  0.0321 -1.1254  0.4316
 2698TIP3   OH229728   6.926   4.501   0.939 -0.0141 -0.0057  0.5528
 2698TIP3    H129729   6.947   4.481   0.848 -0.6825 -0.6570  0.5366
 2698TIP3    H229730   7.007   4.486   0.987  0.1617 -0.3000  0.1607
 2699TIP3   OH229731   4.289   4.344   6.253 -0.2264  0.3669  0.1852
 2699TIP3    H129732   4.332   4.342   6.338  0.3435 -1.1344 -0.1234
 2699TIP3    H229733   4.349   4.394   6.197 -0.4413  1.0604  0.5616
 2700TIP3   OH229734   4.551   1.366   7.731  0.3221  0.1964 -0.3111
 2700TIP3    H129735   4.472   1.341   7.683  0.2232  0.3911 -0.2501
 2700TIP3    H229736   4.616   1.301   7.705  0.7314  1.2135 -1.9249
 2701TIP3   OH229737   2.827   2.578   0.804 -0.5827  0.1950  0.3924
 2701TIP3    H129738   2.755   2.610   0.750  0.4928  1.3102 -0.4006
 2701TIP3    H229739   2.864   2.656   0.844  0.9524 -0.2231 -0.1549
 2702TIP3   OH229740   0.227   6.835   1.236 -0.1667  0.3349  0.3358
 2702TIP3    H129741   0.248   6.917   1.282  0.8162 -0.7172  1.8100
 2702TIP3    H229742   0.167   6.789   1.295 -2.8332  1.1211 -1.6673
 2703TIP3   OH229743   4.950   7.152   1.233  0.0984 -0.1695 -0.3791
 2703TIP3    H129744   4.872   7.117   1.189 -0.3179 -0.0361  0.2392
 2703TIP3    H229745   4.979   7.080   1.289  0.3470 -0.1743 -0.5143
 2704TIP3   OH229746   1.001   6.696   7.470 -0.5045  0.3439 -0.2500
 2704TIP3    H129747   0.999   6.604   7.495 -0.9512  0.2514 -0.6358
 2704TIP3    H229748   0.945   6.702   7.393 -1.0812  1.0605  0.2074
 2705TIP3   OH229749   2.891   6.017   7.703  0.1983 -0.2643  0.4254
 2705TIP3    H129750   2.810   5.969   7.692  0.0789 -0.0119  0.1939
 2705TIP3    H229751   2.953   5.972   7.645 -0.3196  0.8050 -0.9871
 2706TIP3   OH229752   2.398   1.932   0.147  0.4027  0.3977  0.5284
 2706TIP3    H129753   2.306   1.960   0.139  0.3316 -0.1649 -0.7495
 2706TIP3    H229754   2.417   1.939   0.240 -1.7456 -1.9396  1.1872
 2707TIP3   OH229755   2.586   0.393   0.729  0.1665  0.1351 -0.1210
 2707TIP3    H129756   2.629   0.321   0.682 -0.6123 -0.3787 -0.0603
 2707TIP3    H229757   2.495   0.364   0.739  0.0704  0.7234  0.7375
 2708TIP3   OH229758   3.654   1.684   7.888  0.0435 -0.3750 -0.4157
 2708TIP3    H129759   3.737   1.636   7.899  0.2075  0.6846  3.7069
 2708TIP3    H229760   3.588   1.627   7.929 -0.5047  0.7744  0.3278
 2709TIP3   OH229761   1.543   4.598   0.085 -0.7810 -0.0209  0.3453
 2709TIP3    H129762   1.510   4.539   0.152  0.0692 -0.9636 -0.0538
 2709TIP3    H229763   1.607   4.653   0.130 -0.7759 -0.1300  0.4706
 2710TIP3   OH229764   2.024   6.865   5.955 -0.4755 -1.0606  0.3269
 2710TIP3    H129765   1.955   6.926   5.926 -0.2626 -0.2824  1.4293
 2710TIP3    H229766   1.978   6.783   5.971 -0.9326 -0.9157 -0.2253
 2711TIP3   OH229767   7.075   3.566   2.009  0.1902 -0.4948  0.2931
 2711TIP3    H129768   7.111   3.616   2.082 -0.6065  1.4586 -0.6176
 2711TIP3    H229769   6.989   3.606   1.993  0.7932 -0.1900 -2.3953
 2712TIP3   OH229770   1.724   6.388   6.925  0.4237 -0.0946  0.1032
 2712TIP3    H129771   1.637   6.424   6.939  0.6103  0.3229  0.1996
 2712TIP3    H229772   1.783   6.459   6.947  0.7605  0.0707 -1.2636
 2713TIP3   OH229773   6.533   5.982   1.574  0.1146 -0.2148 -0.1893
 2713TIP3    H129774   6.572   6.057   1.527  0.0380  0.5127  0.8848
 2713TIP3    H229775   6.607   5.942   1.619 -0.1789  0.4628  0.9063
 2714TIP3   OH229776   1.752   3.259   1.013 -0.5718  0.8512  0.3815
 2714TIP3    H129777   1.736   3.231   0.922  0.4147  1.3945  0.0350
 2714TIP3    H229778   1.705   3.195   1.066  0.9952 -1.0276 -0.4241
 2715TIP3   OH229779   1.863   5.464   6.521  0.4208  0.0957 -0.1540
 2715TIP3    H129780   1.896   5.425   6.602  3.0542  2.1902 -0.1661
 2715TIP3    H229781   1.800   5.530   6.549  0.0600 -0.3521  0.0969
 2716TIP3   OH229782   4.838   4.485   6.817 -0.2388  0.3292  0.3723
 2716TIP3    H129783   4.813   4.415   6.756 -0.0017  1.3673 -0.9538
 2716TIP3    H229784   4.909   4.448   6.869  0.4162 -0.1742 -0.8526
 2717TIP3   OH229785   0.303   5.363   0.647 -0.0660  0.0706 -0.4743
 2717TIP3    H129786   0.274   5.320   0.727  2.1330 -1.0667 -0.2426
 2717TIP3    H229787   0.234   5.344   0.583 -2.2649  1.7285  1.3439
 2718TIP3   OH229788   3.852   1.682   7.294  0.0802 -0.8480 -0.1619
 2718TIP3    H129789   3.811   1.649   7.214 -0.7653  1.0612 -0.5376
 2718TIP3    H229790   3.938   1.713   7.265 -0.9227  1.5330 -0.7317
 2719TIP3   OH229791   4.251   5.157   6.440 -0.1018 -0.0447 -0.1019
 2719TIP3    H129792   4.170   5.122   6.403 -1.7382  2.9999  0.4240
 2719TIP3    H229793   4.285   5.215   6.373  1.1391 -0.5480  0.0781
 2720TIP3   OH229794   4.099   2.678   7.135  0.3731 -0.4315  0.6937
 2720TIP3    H129795   4.029   2.684   7.070  0.7683  0.2700  0.3194
 2720TIP3    H229796   4.115   2.584   7.146 -0.3084 -0.5753  0.4433
 2721TIP3   OH229797   4.894   5.880   7.310  0.2087  0.0641 -0.5276
 2721TIP3    H129798   4.880   5.956   7.253 -0.3795  0.5268  0.2225
 2721TIP3    H229799   4.823   5.885   7.375 -0.3598 -1.6205 -0.9931
 2722TIP3   OH229800   6.402   0.713   1.632 -0.3056 -0.0840 -0.5122
 2722TIP3    H129801   6.386   0.665   1.551  1.7500 -1.2253 -0.2829
 2722TIP3    H229802   6.363   0.658   1.700 -0.0544 -0.2327 -0.4900
 2723TIP3   OH229803   3.234   1.302   6.609  0.0835  0.2191 -0.6788
 2723TIP3    H129804   3.290   1.340   6.541 -0.2202 -0.0872 -1.1107
 2723TIP3    H229805   3.241   1.207   6.595 -2.4157  0.2238 -2.2927
 2724TIP3   OH229806   0.215   2.929   8.085  0.0173  0.1286 -0.5317
 2724TIP3    H129807   0.205   3.003   8.145  0.6196 -0.5518  0.4368
 2724TIP3    H229808   0.141   2.872   8.106  0.8456 -0.6378  0.3596
 2725TIP3   OH229809   1.265   1.487   6.440  0.1179 -0.0999 -0.7175
 2725TIP3    H129810   1.191   1.540   6.411  2.1901  2.7683 -1.0133
 2725TIP3    H229811   1.302   1.451   6.360 -0.3067 -0.6496 -0.6677
 2726TIP3   OH229812   2.208   5.169   6.443 -0.7147  0.0801 -0.1775
 2726TIP3    H129813   2.218   5.210   6.358  3.0395 -0.7378 -0.2432
 2726TIP3    H229814   2.217   5.241   6.506 -0.0979  0.2074 -0.4120
 2727TIP3   OH229815   0.452   5.765   0.045  0.1956 -0.1859 -0.1950
 2727TIP3    H129816   0.408   5.781   0.129  0.9323  1.4197 -0.1044
 2727TIP3    H229817   0.392   5.708  -0.003  1.2676 -4.0501  2.7394
 2728TIP3   OH229818   0.759   5.045   6.848 -0.1272  0.4412 -0.7267
 2728TIP3    H129819   0.827   5.109   6.826 -0.1333  0.4169 -0.8173
 2728TIP3    H229820   0.785   5.010   6.933 -0.2544  0.7410 -0.5644
 2729TIP3   OH229821   0.867   0.284   6.040  0.2077 -0.6848  0.4847
 2729TIP3    H129822   0.885   0.190   6.040 -0.1907 -0.7716 -0.7144
 2729TIP3    H229823   0.903   0.316   6.123  1.1536 -1.7304  0.4758
 2730TIP3   OH229824   3.873   6.998   7.061 -0.1871  0.5359  0.0214
 2730TIP3    H129825   3.791   6.949   7.071 -0.4773  1.1597  0.8485
 2730TIP3    H229826   3.863   7.046   6.979  0.4345 -1.4043 -1.2073
 2731TIP3   OH229827   1.055   1.638   6.380  0.2310  0.8602  0.5286
 2731TIP3    H129828   1.054   1.727   6.343  0.3861  0.3760 -0.6672
 2731TIP3    H229829   0.987   1.639   6.447 -0.1876  1.7103  0.0961
 2732TIP3   OH229830   3.601   0.648   6.426  0.6963 -0.3224  0.0238
 2732TIP3    H129831   3.655   0.593   6.369  1.8286  2.2027 -1.4167
 2732TIP3    H229832   3.514   0.646   6.386  1.5018  1.4993 -1.8986
 2733TIP3   OH229833   3.748   0.510   1.344 -0.7168 -0.6265  0.0469
 2733TIP3    H129834   3.781   0.449   1.278  0.0785  0.2404 -0.3696
 2733TIP3    H229835   3.653   0.497   1.344 -0.6176 -1.3831 -0.5113
 2734TIP3   OH229836   2.604   0.675   6.348  0.0729 -0.2326 -0.2336
 2734TIP3    H129837   2.553   0.665   6.268 -1.4078  0.9723  0.5359
 2734TIP3    H229838   2.549   0.730   6.405 -0.2633 -3.4849  2.7509
 2735TIP3   OH229839   0.120   5.236   0.481  0.1852  0.1034 -0.1902
 2735TIP3    H129840   0.179   5.213   0.409 -1.4532 -1.3977 -1.1005
 2735TIP3    H229841   0.050   5.286   0.439  0.9104  2.0955  0.9221
 2736TIP3   OH229842   1.395   4.028   6.559 -0.1865  0.3865  0.3834
 2736TIP3    H129843   1.300   4.028   6.574 -0.1163 -0.6224  0.9028
 2736TIP3    H229844   1.414   3.939   6.527  0.5936  0.5471  0.3924
 2737TIP3   OH229845   2.072   5.661   0.644 -0.1608 -0.0505 -0.2285
 2737TIP3    H129846   2.146   5.608   0.674  0.1169  0.0575 -0.7159
 2737TIP3    H229847   2.057   5.631   0.554  0.0797  0.7867 -0.5486
 2738TIP3   OH229848   2.884   6.845   6.719  0.0186 -0.7741  0.6060
 2738TIP3    H129849   2.841   6.931   6.724  0.4524 -0.5218  0.0880
 2738TIP3    H229850   2.812   6.784   6.703 -0.2841 -0.4967  0.9038
 2739TIP3   OH229851   5.441   0.290   6.560 -0.2727 -0.0588  0.1676
 2739TIP3    H129852   5.446   0.361   6.495  0.2033  0.7542  1.0759
 2739TIP3    H229853   5.375   0.230   6.525 -0.7695  0.8991 -0.5602
 2740TIP3   OH229854   3.060   1.735   1.780 -0.2955 -0.4339  0.0297
 2740TIP3    H129855   2.977   1.726   1.732  0.5926 -0.5001 -1.5369
 2740TIP3    H229856   3.060   1.661   1.841 -1.3868 -0.4316  0.0520
 2741TIP3   OH229857   3.504   6.763   6.394 -0.3942  0.3743  0.4282
 2741TIP3    H129858   3.417   6.739   6.427 -0.1708 -2.0462 -0.6439
 2741TIP3    H229859   3.561   6.693   6.423  0.6591  0.5207 -1.2468
 2742TIP3   OH229860   0.685   2.115   0.602 -0.0226 -0.0809  0.0009
 2742TIP3    H129861   0.632   2.039   0.624 -1.6408  1.1068  0.3458
 2742TIP3    H229862   0.753   2.118   0.670  0.4105 -1.5423 -0.3666
 2743TIP3   OH229863   6.311   5.902   6.818 -0.7859 -0.6328  0.6405
 2743TIP3    H129864   6.226   5.945   6.830 -0.4406  0.0274  0.7454
 2743TIP3    H229865   6.310   5.829   6.880 -1.0425 -0.2735  1.0636
 2744TIP3   OH229866   5.225   5.859   6.172  0.6514 -0.2017  0.1020
 2744TIP3    H129867   5.311   5.873   6.212  0.6888  1.9256 -0.6737
 2744TIP3    H229868   5.207   5.940   6.124 -1.7233 -0.6755  0.1298
 2745TIP3   OH229869   4.497   6.118   0.065  0.3432  0.3395  0.5856
 2745TIP3    H129870   4.464   6.028   0.070 -0.4151  0.4994 -1.1974
 2745TIP3    H229871   4.592   6.109   0.059  0.3012 -0.3152  0.8801
 2746TIP3   OH229872   0.380   4.631   1.634  0.0127 -0.2052  0.3213
 2746TIP3    H129873   0.425   4.604   1.714  0.6460  0.7505  0.2913
 2746TIP3    H229874   0.450   4.662   1.576 -0.5202 -0.1641 -0.3109
 2747TIP3   OH229875   0.571   4.229   1.926 -0.5438 -0.4840  0.4501
 2747TIP3    H129876   0.658   4.256   1.895 -0.7317  1.0194  1.1765
 2747TIP3    H229877   0.545   4.299   1.986 -2.6317 -0.4653 -0.4468
 2748TIP3   OH229878   4.250   5.781   1.637  0.6475 -0.0753 -0.1049
 2748TIP3    H129879   4.181   5.721   1.665  2.3846 -1.4993  1.3266
 2748TIP3    H229880   4.221   5.867   1.667 -1.5461 -0.2812 -1.5287
 2749TIP3   OH229881   2.819   6.575   5.846 -0.2306  0.2211  0.1581
 2749TIP3    H129882   2.857   6.663   5.839  1.0135 -0.2514  0.8070
 2749TIP3    H229883   2.874   6.520   5.791 -0.9193 -0.1855 -0.1329
 2750TIP3   OH229884   0.248   2.063   0.799 -0.1033  0.2827  0.0591
 2750TIP3    H129885   0.218   2.112   0.876 -0.8226 -2.1021  1.3600
 2750TIP3    H229886   0.202   2.103   0.725  0.2362  2.3040  0.9256
 2751TIP3   OH229887   2.865   4.984   6.795 -0.4702 -0.1586  0.4417
 2751TIP3    H129888   2.919   5.063   6.792 -0.9024  0.0976 -0.9085
 2751TIP3    H229889   2.780   5.014   6.826 -0.0710 -0.4385  1.8476
 2752TIP3   OH229890   0.941   6.651   6.494  0.1233 -0.3911 -0.2349
 2752TIP3    H129891   0.847   6.666   6.493  0.1171 -0.4070  0.2510
 2752TIP3    H229892   0.950   6.557   6.511  0.1534 -1.0402 -3.5111
 2753TIP3   OH229893   2.446   7.101   6.317 -0.2087 -0.1272  0.5217
 2753TIP3    H129894   2.513   7.033   6.316  0.0144  0.0929 -0.5582
 2753TIP3    H229895   2.484   7.173   6.265 -0.1272  1.1308  2.2936
 2754TIP3   OH229896   2.281   6.119   6.006  0.2911  0.0573  0.0373
 2754TIP3    H129897   2.301   6.209   6.033  0.8667  0.3678 -1.3978
 2754TIP3    H229898   2.218   6.129   5.935 -0.8544 -0.7433  0.9262
 2755TIP3   OH229899   5.284   2.026   7.144 -0.4199  0.1927 -0.4186
 2755TIP3    H129900   5.373   2.029   7.180 -0.3341 -1.1609 -0.4895
 2755TIP3    H229901   5.292   2.065   7.057 -0.1949  1.4417  0.1471
 2756TIP3   OH229902   1.272   5.305   1.113 -0.3048  0.4312 -0.2078
 2756TIP3    H129903   1.307   5.362   1.182  0.2049  0.7557 -0.7339
 2756TIP3    H229904   1.291   5.216   1.145 -2.1811  0.5071  1.1763
 2757TIP3   OH229905   0.415   5.011   6.854  0.2850  0.0407 -0.2777
 2757TIP3    H129906   0.433   5.069   6.779  0.7173 -0.2238 -0.3799
 2757TIP3    H229907   0.463   5.050   6.926 -1.2087  1.0518  0.1993
 2758TIP3   OH229908   5.353   5.060   6.432 -0.5590  0.1234  0.5871
 2758TIP3    H129909   5.379   5.150   6.413  0.4054 -0.7492 -2.3834
 2758TIP3    H229910   5.261   5.067   6.461  0.2489  2.2751  2.8506
 2759TIP3   OH229911   2.056   6.330   5.710  0.9108 -0.5280 -0.3063
 2759TIP3    H129912   1.972   6.370   5.734  1.3291  0.9697 -1.2537
 2759TIP3    H229913   2.054   6.324   5.615  2.5428  1.1172 -0.4844
 2760TIP3   OH229914   0.519   5.339   6.702 -0.2624  0.2136 -0.7493
 2760TIP3    H129915   0.606   5.348   6.739 -0.5957 -0.9112  0.3549
 2760TIP3    H229916   0.463   5.390   6.760 -0.3369  0.9253 -1.4492
 2761TIP3   OH229917   1.313   3.739   0.014 -0.0309 -0.1655 -0.2983
 2761TIP3    H129918   1.332   3.646   0.000  1.6657  0.1863 -0.3567
 2761TIP3    H229919   1.398   3.783   0.008 -0.8535  1.4400 -0.6088
 2762TIP3   OH229920   0.627   3.048   6.395  0.1439  0.3613 -0.1690
 2762TIP3    H129921   0.545   3.098   6.392 -0.7972 -1.0792  0.5465
 2762TIP3    H229922   0.645   3.026   6.304 -1.9070 -1.8144 -0.1260
 2763TIP3   OH229923   3.572   4.564   7.457  0.1723 -0.7308  0.2388
 2763TIP3    H129924   3.530   4.594   7.538  0.2496  1.4946 -0.5029
 2763TIP3    H229925   3.513   4.592   7.387  0.8055 -1.3550 -0.5505
 2764TIP3   OH229926   1.248   4.651   7.730  0.5493 -0.2137  0.5895
 2764TIP3    H129927   1.164   4.670   7.771  0.9155 -0.1147  1.2999
 2764TIP3    H229928   1.285   4.581   7.783  1.1842  0.1597  0.6403
 2765TIP3   OH229929   2.218   2.639   0.914 -0.4111  0.6358  0.2001
 2765TIP3    H129930   2.229   2.722   0.961 -0.1012  0.6855  0.0432
 2765TIP3    H229931   2.193   2.665   0.826 -1.0630  0.5399  0.3587
 2766TIP3   OH229932   5.543   5.793   7.491  0.1272 -0.1949 -0.5387
 2766TIP3    H129933   5.583   5.804   7.405  1.1043  0.5402  0.0115
 2766TIP3    H229934   5.536   5.881   7.526  0.8960 -0.6013  0.6575
 2767TIP3   OH229935   4.765   1.482   6.310 -0.7657 -0.3073 -0.3337
 2767TIP3    H129936   4.828   1.423   6.269 -2.6184 -0.6288 -2.8321
 2767TIP3    H229937   4.697   1.424   6.343 -1.4140  0.2537 -0.6814
 2768TIP3   OH229938   0.178   6.820   6.747  0.7511 -1.1598  0.2714
 2768TIP3    H129939   0.263   6.833   6.705  1.0573 -0.1235  1.1809
 2768TIP3    H229940   0.179   6.729   6.775  1.9148 -0.9182  1.0405
 2769TIP3   OH229941   6.748   6.935   0.447 -0.8018 -0.4681 -0.0587
 2769TIP3    H129942   6.824   6.992   0.441 -0.9856 -0.0136  1.6399
 2769TIP3    H229943   6.777   6.852   0.412  1.1522 -0.9346  2.4942
 2770TIP3   OH229944   5.022   6.732   6.859 -0.5551 -0.0369 -0.5126
 2770TIP3    H129945   5.055   6.713   6.946  2.2699  0.3914 -1.4447
 2770TIP3    H229946   4.972   6.654   6.834  0.9843 -1.3318  0.3718
 2771TIP3   OH229947   3.389   1.056   7.626  0.1230  0.2938 -0.5807
 2771TIP3    H129948   3.431   1.011   7.698  0.7399 -0.3651 -1.3502
 2771TIP3    H229949   3.424   1.015   7.547  0.5306  1.9558 -1.2884
 2772TIP3   OH229950   1.170   5.143   6.439 -0.2003 -0.1720 -0.0215
 2772TIP3    H129951   1.123   5.060   6.430 -0.5485 -0.0408  0.5671
 2772TIP3    H229952   1.248   5.121   6.490  0.2842 -0.3533 -0.8352
 2773TIP3   OH229953   5.579   4.716   7.881 -0.3610  0.1831 -0.4625
 2773TIP3    H129954   5.515   4.665   7.831  0.8265  0.0774 -1.9076
 2773TIP3    H229955   5.551   4.807   7.872 -1.5976 -0.0539  0.8246
 2774TIP3   OH229956   5.212   4.925   6.711 -0.0892 -0.3038 -0.4499
 2774TIP3    H129957   5.118   4.941   6.696 -0.5428 -0.6354  1.9054
 2774TIP3    H229958   5.242   5.003   6.757  1.2035  0.5399 -2.6410
 2775TIP3   OH229959   5.372   0.728   7.679 -0.0850  0.3672 -0.0108
 2775TIP3    H129960   5.365   0.635   7.703  0.2416  0.3968  0.2056
 2775TIP3    H229961   5.349   0.731   7.586  3.1781 -0.4164 -0.9107
 2776TIP3   OH229962   3.473   6.363   6.109  0.2549  0.0549 -0.2999
 2776TIP3    H129963   3.541   6.370   6.041 -0.9739 -1.6923 -1.7500
 2776TIP3    H229964   3.510   6.302   6.173 -0.0766 -1.2127 -1.2911
 2777TIP3   OH229965   3.347   6.840   6.189  0.0972 -1.1237 -0.2954
 2777TIP3    H129966   3.423   6.825   6.244 -0.7154 -1.3021  0.7954
 2777TIP3    H229967   3.351   6.770   6.124  0.6045 -1.4125  0.0423
 2778TIP3   OH229968   3.810   6.884   1.743 -0.3841 -0.0342 -0.1558
 2778TIP3    H129969   3.749   6.915   1.676 -0.3326  1.2699  0.3904
 2778TIP3    H229970   3.777   6.920   1.825  0.3677 -0.4256  0.3282
 2779TIP3   OH229971   3.713   2.505   6.941  0.1362  0.2929 -0.4681
 2779TIP3    H129972   3.698   2.447   6.866 -0.7110  1.2345 -1.0314
 2779TIP3    H229973   3.701   2.448   7.018 -1.7549 -0.0310 -1.0008
 2780TIP3   OH229974   1.690   4.774   6.928  0.6270  0.3054  0.1223
 2780TIP3    H129975   1.603   4.776   6.889  1.0464 -0.8634 -0.9112
 2780TIP3    H229976   1.729   4.858   6.903  0.4335  0.0881 -0.9222
 2781TIP3   OH229977   1.618   2.077   0.088 -0.1198 -0.4448  0.2558
 2781TIP3    H129978   1.690   2.107   0.033 -0.6343 -0.3540 -0.3678
 2781TIP3    H229979   1.599   1.988   0.056  0.7995 -1.1091  1.5012
 2782TIP3   OH229980   1.209   0.982   0.152 -0.1194  0.3805  0.3058
 2782TIP3    H129981   1.282   0.976   0.213 -0.2683  2.4193  0.7256
 2782TIP3    H229982   1.250   1.002   0.068 -0.0793  0.0330  0.2448
 2783TIP3   OH229983   4.044   3.429   2.489 -0.6602  0.9097  0.7389
 2783TIP3    H129984   4.019   3.382   2.409  0.4426 -0.7352  1.3203
 2783TIP3    H229985   3.961   3.451   2.530 -1.2347 -2.0486  1.2779
 2784TIP3   OH229986   7.052   3.425   1.754 -0.2613  0.5651 -0.2092
 2784TIP3    H129987   7.016   3.337   1.761  1.2157 -0.2163 -1.7460
 2784TIP3    H229988   7.027   3.469   1.835 -1.3101 -1.1604  0.4230
 2785TIP3   OH229989   0.444   5.793   0.643 -0.1747  0.4350 -0.3098
 2785TIP3    H129990   0.465   5.699   0.648  0.8798  0.6911  0.2805
 2785TIP3    H229991   0.415   5.816   0.731  1.8325  1.1658  0.1848
 2786TIP3   OH229992   5.219   7.008   1.063  0.0277 -0.1846  0.5373
 2786TIP3    H129993   5.147   7.030   1.121  0.0769 -0.6059  0.7654
 2786TIP3    H229994   5.191   6.927   1.020 -0.3267  0.5313 -0.5889
 2787TIP3   OH229995   2.831   4.238   6.900  0.1811  0.0544 -0.4701
 2787TIP3    H129996   2.888   4.302   6.943  0.5289 -0.6216  0.0826
 2787TIP3    H229997   2.808   4.278   6.816  0.7453  0.7124 -0.3111
 2788TIP3   OH229998   3.473   6.108   7.011 -0.1461  0.3198 -0.1591
 2788TIP3    H129999   3.548   6.146   7.056  0.2350 -0.5812 -0.0081
 2788TIP3    H230000   3.397   6.137   7.060  0.2804 -0.8656  1.2474
 2789TIP3   OH230001   2.804   4.724   6.348  0.4251 -0.8717  0.2145
 2789TIP3    H130002   2.781   4.788   6.415  2.1394  0.6473 -0.5826
 2789TIP3    H230003   2.752   4.750   6.272  1.6971  0.0796 -0.3473
 2790TIP3   OH230004   1.901   0.828   5.914 -0.4638  0.0193  0.1354
 2790TIP3    H130005   1.991   0.855   5.898 -0.2106  0.4321  2.1477
 2790TIP3    H230006   1.890   0.749   5.861  0.1746  1.5323 -2.3457
 2791TIP3   OH230007   2.542   5.594   1.749  0.1663  0.0312 -0.0693
 2791TIP3    H130008   2.600   5.518   1.748 -0.1813 -0.2490 -1.7566
 2791TIP3    H230009   2.490   5.586   1.669 -2.0064  0.4337  1.2420
 2792TIP3   OH230010   2.865   6.094   0.513  0.2813 -0.0131  0.2002
 2792TIP3    H130011   2.948   6.060   0.545  0.8472  0.2271 -0.9552
 2792TIP3    H230012   2.890   6.164   0.452 -0.7240 -1.0322 -1.4129
 2793TIP3   OH230013   4.050   6.911   1.273 -0.2776  0.1458  0.1997
 2793TIP3    H130014   4.062   7.005   1.288  1.8492  0.0251 -0.5082
 2793TIP3    H230015   4.042   6.874   1.361  0.3626  0.8408  0.5619
 2794TIP3   OH230016   5.967   5.372   6.672  0.3538 -0.0927 -0.5052
 2794TIP3    H130017   5.872   5.359   6.677  0.4444 -0.7421 -0.4349
 2794TIP3    H230018   5.984   5.441   6.736 -0.0654 -0.0124 -0.4737
 2795TIP3   OH230019   3.438   1.511   7.951  0.4791 -0.3202  0.0696
 2795TIP3    H130020   3.368   1.573   7.974  0.7540  0.3907 -0.9570
 2795TIP3    H230021   3.416   1.431   7.999 -0.4548  0.2416  0.5963
 2796TIP3   OH230022   6.449   4.492   7.041 -0.3158  0.0632 -0.3183
 2796TIP3    H130023   6.403   4.574   7.059 -1.5318 -0.9905  1.4453
 2796TIP3    H230024   6.539   4.519   7.023 -0.8623  1.8466 -0.4816
 2797TIP3   OH230025   4.486   6.616   7.146  0.5048 -0.2586  0.0205
 2797TIP3    H130026   4.479   6.708   7.121  0.7869 -0.5310 -1.0755
 2797TIP3    H230027   4.410   6.600   7.203 -0.7265  0.0940 -1.5153
 2798TIP3   OH230028   6.700   5.690   0.035 -0.0882  0.4511  0.0839
 2798TIP3    H130029   6.678   5.617  -0.022 -2.0575  0.0542  1.3192
 2798TIP3    H230030   6.626   5.750   0.027 -1.0234 -0.2158  3.2005
 2799TIP3   OH230031   4.777   1.968   0.471  0.4230  0.0013  0.1459
 2799TIP3    H130032   4.846   1.985   0.535 -1.0948  1.6851  1.3710
 2799TIP3    H230033   4.824   1.942   0.391  2.4605  1.0691  0.9707
 2800TIP3   OH230034   2.676   6.134   5.784 -0.1307 -0.0812 -0.7229
 2800TIP3    H130035   2.595   6.122   5.736 -1.4179 -0.3089  1.4428
 2800TIP3    H230036   2.657   6.202   5.849  1.3045 -0.3386  0.0037
 2801TIP3   OH230037   1.171   5.563   6.559 -0.0878 -0.5702 -0.4176
 2801TIP3    H130038   1.084   5.575   6.598  0.9996 -1.1005  2.2750
 2801TIP3    H230039   1.163   5.484   6.507 -1.2846 -0.4719 -0.4115
 2802TIP3   OH230040   1.380   5.348   1.504  0.1862  0.0518 -0.3060
 2802TIP3    H130041   1.437   5.355   1.581  0.9819 -0.1952 -0.8671
 2802TIP3    H230042   1.360   5.254   1.498  1.5373 -0.1845 -1.4011
 2803TIP3   OH230043   3.217   0.945   5.667  0.1974  0.6062 -0.0570
 2803TIP3    H130044   3.171   0.874   5.622 -0.0767  0.3472  0.6213
 2803TIP3    H230045   3.279   0.979   5.603 -0.0593  0.1150 -0.5627
 2804TIP3   OH230046   2.691   6.823   0.389 -0.0579 -0.2139 -0.4522
 2804TIP3    H130047   2.749   6.887   0.431  0.9646 -0.7035 -1.0854
 2804TIP3    H230048   2.667   6.762   0.459  0.8239 -0.4462 -0.3374
 2805TIP3   OH230049   0.758   4.563   0.683 -0.0565  0.0305 -0.5272
 2805TIP3    H130050   0.760   4.654   0.655 -1.6621  0.0844 -0.4721
 2805TIP3    H230051   0.821   4.559   0.755  0.0944  1.0666 -0.5955
 2806TIP3   OH230052   2.130   6.716   7.185  0.2768  0.3547  0.0023
 2806TIP3    H130053   2.067   6.776   7.145 -0.8092  0.2388  1.4735
 2806TIP3    H230054   2.116   6.727   7.279  0.7806 -1.4596  0.3012
 2807TIP3   OH230055   1.648   2.678   7.349  0.0390 -0.0539  0.5786
 2807TIP3    H130056   1.622   2.600   7.399 -1.2991 -0.3316 -0.5081
 2807TIP3    H230057   1.665   2.745   7.415  1.0825 -1.2236  1.5293
 2808TIP3   OH230058   2.225   3.098   7.634  0.1563  0.2620  0.4384
 2808TIP3    H130059   2.255   3.120   7.722  0.2570 -0.2530  0.5354
 2808TIP3    H230060   2.275   3.156   7.576  0.3717  0.3283  0.6901
 2809TIP3   OH230061   2.650   1.190   7.926  0.0425  0.2660 -0.2796
 2809TIP3    H130062   2.569   1.168   7.880 -0.9772 -0.9716  2.0234
 2809TIP3    H230063   2.710   1.120   7.902 -1.2269 -1.7079  2.0237
 2810TIP3   OH230064   2.568   6.176   7.514  0.1496 -0.1429  0.2424
 2810TIP3    H130065   2.578   6.081   7.521  1.4152  0.1116  2.2016
 2810TIP3    H230066   2.636   6.203   7.454 -0.0522 -0.4336 -0.1240
 2811TIP3   OH230067   5.703   5.360   7.269 -0.2359 -0.1177  0.0066
 2811TIP3    H130068   5.710   5.398   7.182 -0.0649 -0.8107 -0.2865
 2811TIP3    H230069   5.786   5.313   7.281 -1.5950 -2.8469 -0.8278
 2812TIP3   OH230070   1.061   3.591   6.678 -0.0665 -0.5654  0.5764
 2812TIP3    H130071   0.999   3.528   6.716 -1.3153  1.2491  1.6145
 2812TIP3    H230072   1.142   3.578   6.728 -0.2549 -1.4933  0.6479
 2813TIP3   OH230073   6.600   1.742   7.168  0.2008  0.5537  0.5841
 2813TIP3    H130074   6.665   1.672   7.177 -1.6342 -1.1132  1.0116
 2813TIP3    H230075   6.538   1.726   7.239 -1.4513  1.3255 -0.6672
 2814TIP3   OH230076   3.099   0.415   7.042 -0.8525  0.8136  0.2516
 2814TIP3    H130077   3.017   0.462   7.029 -0.4158  1.4723 -0.1257
 2814TIP3    H230078   3.123   0.433   7.133  0.0622  2.5192 -0.3164
 2815TIP3   OH230079   4.981   4.660   1.926 -0.5396  0.1642  0.1856
 2815TIP3    H130080   4.961   4.599   1.997 -1.9627 -0.1238 -0.4282
 2815TIP3    H230081   5.075   4.650   1.911 -0.8086 -2.1666 -0.1316
 2816TIP3   OH230082   4.466   4.364   6.466 -0.0826  0.6605 -0.0489
 2816TIP3    H130083   4.530   4.293   6.468  0.0998  0.8282  0.1323
 2816TIP3    H230084   4.477   4.409   6.550 -0.5339  0.6075  0.0445
 2817TIP3   OH230085   5.942   0.128   6.657 -0.6210  0.4116  0.3816
 2817TIP3    H130086   5.866   0.166   6.701 -0.3025  1.7367 -0.2104
 2817TIP3    H230087   5.994   0.203   6.628  0.6440 -0.4740  0.2989
 2818TIP3   OH230088   5.415   6.339   6.202 -0.1643  0.1139 -0.2071
 2818TIP3    H130089   5.476   6.287   6.149  1.1965  0.3578  1.0898
 2818TIP3    H230090   5.427   6.428   6.171 -1.4022 -0.1237 -1.3943
 2819TIP3   OH230091   6.736   0.323   0.727 -0.4939  0.3058 -0.4097
 2819TIP3    H130092   6.710   0.407   0.689 -0.4509  0.3106 -0.4275
 2819TIP3    H230093   6.831   0.323   0.723 -0.5536 -0.6441 -2.3401
 2820TIP3   OH230094   6.242   3.583   7.388  0.6621 -0.4290 -0.0585
 2820TIP3    H130095   6.154   3.620   7.373  1.0141 -1.0800 -4.3130
 2820TIP3    H230096   6.300   3.660   7.387  0.3485 -0.1765  0.8875
 2821TIP3   OH230097   0.302   2.927   0.355  0.2144 -0.1690  0.2144
 2821TIP3    H130098   0.357   2.939   0.433 -0.8037  0.3571  0.8650
 2821TIP3    H230099   0.329   2.842   0.319  3.3636  1.2968 -1.0443
 2822TIP3   OH230100   0.422   0.286   8.001 -0.0866 -0.6042 -0.5507
 2822TIP3    H130101   0.352   0.320   7.944 -0.6842 -0.3516  0.3260
 2822TIP3    H230102   0.380   0.217   8.051 -0.0112  0.3124  0.8011
 2823TIP3   OH230103   5.410   5.961   6.709 -0.8997  0.3320 -0.4320
 2823TIP3    H130104   5.348   5.890   6.694  1.3604 -1.6576 -0.4871
 2823TIP3    H230105   5.432   5.955   6.802  0.7680 -0.2933 -0.8467
 2824TIP3   OH230106   0.448   5.867   7.245  0.4902 -0.9821  0.0792
 2824TIP3    H130107   0.499   5.795   7.209  3.0168  0.5365  0.5377
 2824TIP3    H230108   0.487   5.884   7.331  1.7047  2.6360 -1.0950
 2825TIP3   OH230109   4.296   4.539   6.998  0.4074  0.0671 -0.3780
 2825TIP3    H130110   4.295   4.456   7.045  0.3604 -0.1388 -0.7415
 2825TIP3    H230111   4.351   4.597   7.052  0.4590 -0.2075 -0.1392
 2826TIP3   OH230112   2.591   7.012   7.120  0.0445 -0.3179 -0.1412
 2826TIP3    H130113   2.595   7.002   7.215  1.4670 -2.1077 -0.3549
 2826TIP3    H230114   2.519   6.956   7.093  0.5875 -0.9701 -0.2482
 2827TIP3   OH230115   1.977   0.296   6.091  0.1187  0.4368 -0.3952
 2827TIP3    H130116   2.003   0.328   6.004 -0.4521  0.9679 -0.3722
 2827TIP3    H230117   1.903   0.352   6.116  0.2503  0.2558  0.4105
 2828TIP3   OH230118   0.082   5.403   6.955  0.2394 -0.5070 -0.4442
 2828TIP3    H130119   0.103   5.339   6.887 -0.2578 -0.4676 -0.6407
 2828TIP3    H230120   0.068   5.485   6.908 -1.6400 -0.8115 -0.4907
 2829TIP3   OH230121   2.712   1.987   7.480 -0.1328 -0.0521  0.0953
 2829TIP3    H130122   2.689   1.921   7.414 -3.5842  0.2551  0.9089
 2829TIP3    H230123   2.706   1.940   7.563  0.5868  0.4820  0.4496
 2830TIP3   OH230124   3.972   5.486   7.361 -0.0375  0.1216  0.2488
 2830TIP3    H130125   4.047   5.524   7.317 -0.1658 -0.0396 -0.1115
 2830TIP3    H230126   3.921   5.561   7.391 -1.6891  0.3106 -2.8125
 2831TIP3   OH230127   0.644   6.551   6.441  0.4075  0.3035  0.4924
 2831TIP3    H130128   0.556   6.589   6.451  0.4755  0.9684 -1.2097
 2831TIP3    H230129   0.631   6.473   6.387  0.7522 -0.0789  0.9590
 2832TIP3   OH230130   6.020   6.898   0.053 -0.0380  0.2672  0.6074
 2832TIP3    H130131   5.971   6.820   0.076  0.0027  0.5761  1.7495
 2832TIP3    H230132   5.973   6.970   0.095 -0.3077  0.9177 -0.7691
 2833TIP3   OH230133   3.625   5.650   1.896 -0.6170  0.0408 -0.3360
 2833TIP3    H130134   3.571   5.617   1.825  0.1468 -0.0367 -0.8930
 2833TIP3    H230135   3.592   5.737   1.914 -2.0915 -0.6810  0.5518
 2834TIP3   OH230136   0.362   5.545   6.868 -0.0398 -0.0845 -0.4957
 2834TIP3    H130137   0.414   5.625   6.869  0.6908 -0.5099 -1.6809
 2834TIP3    H230138   0.321   5.545   6.781 -0.9104 -0.4409 -0.0818
 2835TIP3   OH230139   5.571   6.518   7.908 -0.0097 -0.4637 -0.5012
 2835TIP3    H130140   5.582   6.471   7.990 -1.2503 -2.8059 -1.6240
 2835TIP3    H230141   5.655   6.509   7.863  0.3058 -0.1400  0.0246
 2836TIP3   OH230142   6.627   2.286   1.247  0.3017 -0.1291  0.9242
 2836TIP3    H130143   6.615   2.276   1.152  0.7665 -0.8288  0.9352
 2836TIP3    H230144   6.555   2.235   1.285  0.4135 -0.2688  0.9502
 2837TIP3   OH230145   7.070   2.305   0.422 -0.5009 -0.9011 -0.2379
 2837TIP3    H130146   7.049   2.365   0.350  0.6495 -0.4014 -0.1726
 2837TIP3    H230147   7.040   2.350   0.501 -0.4201 -0.7866 -0.2718
 2838TIP3   OH230148   4.648   6.823   6.791 -0.2255 -0.2163 -0.2510
 2838TIP3    H130149   4.655   6.792   6.881  0.0620  1.3924  0.2971
 2838TIP3    H230150   4.712   6.771   6.743  1.2585  0.5007  0.9218
 2839TIP3   OH230151   1.176   5.940   7.520 -0.2660  0.1591 -0.9204
 2839TIP3    H130152   1.101   5.926   7.579 -0.0678 -1.4720 -1.0348
 2839TIP3    H230153   1.253   5.934   7.576 -0.0940 -1.0297 -1.2634
 2840TIP3   OH230154   6.544   0.216   5.749  0.4674 -0.2045  0.1645
 2840TIP3    H130155   6.503   0.266   5.820 -0.2176 -0.1217 -0.2882
 2840TIP3    H230156   6.474   0.202   5.686  1.4018  0.9683 -1.1746
 2841TIP3   OH230157   2.037   0.702   0.969 -0.1233  0.2989 -1.2383
 2841TIP3    H130158   2.109   0.742   0.920  0.0624  0.8008 -0.5652
 2841TIP3    H230159   2.011   0.769   1.032 -0.1793 -0.4388 -0.4700
 2842TIP3   OH230160   5.039   0.345   6.074 -0.1666 -0.2218 -0.0023
 2842TIP3    H130161   4.998   0.394   6.003 -0.5476  0.5933  0.7577
 2842TIP3    H230162   4.984   0.268   6.085 -0.1998 -0.2686 -0.4782
 2843TIP3   OH230163   5.144   0.217   5.771 -0.0687  0.3730 -0.4006
 2843TIP3    H130164   5.205   0.198   5.699  0.0878 -1.5155  0.2066
 2843TIP3    H230165   5.064   0.170   5.747 -0.5662  1.0935 -0.1456
 2844TIP3   OH230166   4.671   1.140   7.645  0.3179 -0.0404  0.5949
 2844TIP3    H130167   4.591   1.096   7.613 -1.2943  3.1254  0.0957
 2844TIP3    H230168   4.689   1.098   7.729 -1.3444 -1.4522  0.2842
 2845TIP3   OH230169   3.348   3.632   7.257 -0.2629  0.0998  0.7483
 2845TIP3    H130170   3.280   3.622   7.191 -0.4196 -1.4470  1.1080
 2845TIP3    H230171   3.404   3.702   7.224 -0.4149 -0.5617 -0.9508
 2846TIP3   OH230172   3.321   6.401   6.817 -0.0304  0.2624 -0.4484
 2846TIP3    H130173   3.364   6.422   6.734 -1.9327 -0.2566 -1.5942
 2846TIP3    H230174   3.357   6.464   6.880  1.9233  0.2288 -1.4862
 2847TIP3   OH230175   4.280   6.077   5.598  0.5102  0.1264 -0.3205
 2847TIP3    H130176   4.290   6.051   5.689  0.7130  0.7322 -0.1688
 2847TIP3    H230177   4.351   6.032   5.552  0.0189 -0.6986 -0.2965
 2848TIP3   OH230178   3.143   4.172   0.681 -0.1735  0.6760  0.6147
 2848TIP3    H130179   3.081   4.182   0.608  0.6482  1.4478 -0.0022
 2848TIP3    H230180   3.111   4.232   0.748 -0.0476  1.1419  0.2611
 2849TIP3   OH230181   2.391   6.334   0.583  0.1669 -0.1953  0.1661
 2849TIP3    H130182   2.474   6.288   0.593  0.4431 -0.5034 -3.0058
 2849TIP3    H230183   2.326   6.277   0.623  0.9011 -2.0908 -1.2458
 2850TIP3   OH230184   2.897   1.352   0.785 -0.2161 -0.2327 -0.1235
 2850TIP3    H130185   2.851   1.432   0.761  0.0905  0.1388  0.5441
 2850TIP3    H230186   2.900   1.352   0.880  0.0593 -0.8822 -0.1255
 2851TIP3   OH230187   5.155   3.532   0.140  0.1582 -0.3418 -0.1421
 2851TIP3    H130188   5.195   3.591   0.076  1.3837 -0.6247  0.3425
 2851TIP3    H230189   5.150   3.583   0.221 -1.7391  0.1401 -0.5390
 2852TIP3   OH230190   3.021   1.884   6.713 -0.0583 -0.2033 -0.3155
 2852TIP3    H130191   2.963   1.892   6.637 -1.4345 -2.0923  0.4949
 2852TIP3    H230192   3.007   1.795   6.744  1.0660  0.3067  1.7104
 2853TIP3   OH230193   5.974   5.519   0.138 -0.6084 -0.5028 -0.2754
 2853TIP3    H130194   6.024   5.576   0.080 -1.8066 -0.1212 -0.9503
 2853TIP3    H230195   5.970   5.435   0.093  1.5494 -1.3008  0.9274
 2854TIP3   OH230196   5.849   4.688   7.139 -0.3400 -0.3017 -0.0458
 2854TIP3    H130197   5.775   4.641   7.101 -0.4360 -1.7801  1.8854
 2854TIP3    H230198   5.855   4.769   7.088 -1.8171 -1.2152 -1.7268
 2855TIP3   OH230199   0.463   3.013   0.581 -0.2265 -0.0589  0.1481
 2855TIP3    H130200   0.545   2.966   0.588 -0.5809 -0.6018  0.6476
 2855TIP3    H230201   0.486   3.096   0.538  0.5232 -0.3357  0.0190
 2856TIP3   OH230202   5.619   6.041   5.814 -0.3799 -0.1438  0.1002
 2856TIP3    H130203   5.613   5.957   5.767 -0.7992 -0.1880  0.2276
 2856TIP3    H230204   5.680   6.093   5.763 -2.6059  0.6715 -1.8111
 2857TIP3   OH230205   3.294   5.695   1.623  0.1358 -0.1326  0.1679
 2857TIP3    H130206   3.322   5.662   1.538  0.4632 -2.2414  1.0438
 2857TIP3    H230207   3.205   5.661   1.634  0.6934 -1.2454  1.3439
 2858TIP3   OH230208   4.888   6.500   6.351 -0.1449  0.5652  0.2849
 2858TIP3    H130209   4.934   6.423   6.317 -2.1614  0.2122 -1.8383
 2858TIP3    H230210   4.937   6.575   6.316 -1.6377  0.1990 -2.7687
 2859TIP3   OH230211   5.726   2.054   0.767 -0.1989  0.1437 -0.2490
 2859TIP3    H130212   5.791   2.038   0.698  0.1989  0.2636  0.0926
 2859TIP3    H230213   5.746   2.142   0.799 -0.1958 -0.0229  0.2154
 2860TIP3   OH230214   1.844   3.511   6.187 -0.2566  0.0493  0.2689
 2860TIP3    H130215   1.876   3.561   6.263  1.4938  0.8573 -0.9566
 2860TIP3    H230216   1.806   3.576   6.130  0.3602 -0.2634 -0.5064
 2861TIP3   OH230217   0.320   0.507   7.767  0.1248  0.8190  0.0346
 2861TIP3    H130218   0.404   0.461   7.773 -0.6435 -0.4169  1.5315
 2861TIP3    H230219   0.293   0.495   7.676  1.4872  1.0972 -0.4233
 2862TIP3   OH230220   4.628   4.552   0.331  0.2294  0.1422 -0.2570
 2862TIP3    H130221   4.611   4.500   0.409  0.7628 -1.2726 -1.0616
 2862TIP3    H230222   4.603   4.495   0.258  0.3601  1.1912 -1.1475
 2863TIP3   OH230223   0.299   6.760   7.950 -0.2618 -0.6133 -0.1928
 2863TIP3    H130224   0.287   6.833   8.011 -1.1027  1.1565 -2.4049
 2863TIP3    H230225   0.216   6.711   7.954 -0.2953 -0.5247  0.1443
 2864TIP3   OH230226   4.064   3.650   6.656 -0.1270 -0.0185 -0.3863
 2864TIP3    H130227   4.030   3.624   6.742 -1.3440 -1.2890 -1.2239
 2864TIP3    H230228   4.100   3.738   6.669 -0.7495 -0.0040  1.2980
 2865TIP3   OH230229   2.232   3.388   7.167 -0.6213  0.2246 -0.4376
 2865TIP3    H130230   2.311   3.437   7.193 -1.1597 -0.1359  1.9607
 2865TIP3    H230231   2.235   3.387   7.071  1.9663  0.7517 -0.3933
 2866TIP3   OH230232   2.998   2.578   0.369 -0.3566 -0.0922 -0.5896
 2866TIP3    H130233   2.965   2.661   0.404  1.0402  0.0412  0.4290
 2866TIP3    H230234   3.086   2.600   0.335 -0.8427 -0.6762 -2.3036
 2867TIP3   OH230235   3.703   6.255   7.191 -0.5363  0.5011  0.2374
 2867TIP3    H130236   3.670   6.278   7.278 -1.9697  0.5024 -0.2872
 2867TIP3    H230237   3.782   6.308   7.180  0.0053  0.0383  1.7784
 2868TIP3   OH230238   2.214   0.970   0.702  0.3679  0.2444 -0.0913
 2868TIP3    H130239   2.245   0.976   0.611  1.4319 -2.3975  0.0401
 2868TIP3    H230240   2.129   0.926   0.695  0.6302 -0.3173  0.1958
 2869TIP3   OH230241   3.734   0.802   8.068 -0.4835  0.0635  0.0859
 2869TIP3    H130242   3.712   0.893   8.045 -1.1807 -0.1026  0.0792
 2869TIP3    H230243   3.732   0.800   8.164  0.7791  0.3513  0.1351
 2870TIP3   OH230244   4.180   2.346   7.532  0.3997  0.1998 -0.6771
 2870TIP3    H130245   4.247   2.401   7.490  0.2636 -0.4148 -1.7162
 2870TIP3    H230246   4.199   2.258   7.501 -1.2559  0.1130 -1.4584
 2871TIP3   OH230247   6.377   1.441   6.725 -0.7111 -0.0184  0.4223
 2871TIP3    H130248   6.465   1.406   6.738  0.3849  2.7581  0.7685
 2871TIP3    H230249   6.332   1.423   6.808 -0.0006 -0.0913  0.7901
 2872TIP3   OH230250   1.494   1.113   7.542 -0.4007 -0.3662 -0.3344
 2872TIP3    H130251   1.515   1.019   7.541 -0.6896 -0.4408 -2.5579
 2872TIP3    H230252   1.564   1.153   7.593 -0.4872 -1.8333  0.9835
 2873TIP3   OH230253   4.711   6.712   7.335 -0.2437 -0.2548  0.0658
 2873TIP3    H130254   4.632   6.705   7.282  0.4742 -1.4517 -0.8931
 2873TIP3    H230255   4.754   6.792   7.303 -1.0950  0.4538  0.6609
 2874TIP3   OH230256   2.875   6.941   7.100  0.2999  0.1953  0.2816
 2874TIP3    H130257   2.914   6.974   7.181 -0.9066  2.4818 -0.0570
 2874TIP3    H230258   2.809   7.005   7.077 -0.6404 -1.3939 -1.5463
 2875TIP3   OH230259   2.212   0.369   0.480 -0.1156 -0.2577  0.1381
 2875TIP3    H130260   2.302   0.401   0.489  0.0188 -0.6274  0.1221
 2875TIP3    H230261   2.160   0.448   0.465 -0.1250  0.2329  2.5113
 2876TIP3   OH230262   0.604   3.613   6.563 -0.3649 -0.2022  0.3949
 2876TIP3    H130263   0.644   3.700   6.571  0.1554 -0.1918 -1.9355
 2876TIP3    H230264   0.661   3.566   6.501 -1.1778 -1.8822  0.8987
 2877TIP3   OH230265   1.973   6.435   1.563 -0.3841 -0.0458  0.6141
 2877TIP3    H130266   1.970   6.499   1.634  0.3058 -0.8764  1.3996
 2877TIP3    H230267   1.959   6.487   1.484  1.3552  1.2539  1.1309
 2878TIP3   OH230268   4.640   3.146   1.970  0.0280 -0.1169  0.3327
 2878TIP3    H130269   4.654   3.149   2.064 -0.4488  0.8489  0.3735
 2878TIP3    H230270   4.553   3.109   1.959  0.5297 -1.3001  0.2273
 2879TIP3   OH230271   6.985   5.723   6.136 -0.1540 -0.2655  0.0128
 2879TIP3    H130272   6.972   5.704   6.043 -0.6481 -0.8581  0.1999
 2879TIP3    H230273   6.984   5.637   6.179 -1.1472  0.0840  0.7112
 2880TIP3   OH230274   5.230   5.906   7.783  0.4904 -0.3324  0.3454
 2880TIP3    H130275   5.322   5.882   7.773  0.4994  0.1792 -0.9088
 2880TIP3    H230276   5.230   5.978   7.845  0.9404 -0.3091  0.3157
 2881TIP3   OH230277   4.927   4.377   1.777 -0.2318  0.2018 -0.2557
 2881TIP3    H130278   5.002   4.342   1.826 -0.0272  0.2993 -0.4982
 2881TIP3    H230279   4.854   4.320   1.801 -0.5164  1.2391  1.4644
 2882TIP3   OH230280   2.293   2.129   7.845 -0.2401  0.3531  0.4906
 2882TIP3    H130281   2.278   2.061   7.911 -2.0241  2.5629  2.4528
 2882TIP3    H230282   2.371   2.175   7.875  2.2806 -2.0541 -1.9951
 2883TIP3   OH230283   6.621   4.780   7.727  0.3030  0.3407 -0.0256
 2883TIP3    H130284   6.655   4.856   7.773  0.7215  0.3236 -0.2975
 2883TIP3    H230285   6.603   4.812   7.638  0.8337  0.0375 -0.2467
 2884TIP3   OH230286   4.515   2.764   7.237  0.3463 -0.4178  0.0544
 2884TIP3    H130287   4.571   2.734   7.308  0.9039 -0.8309 -0.5528
 2884TIP3    H230288   4.448   2.818   7.280  0.8118 -0.4747  0.8582
 2885TIP3   OH230289   2.417   1.147   1.055 -0.1185 -0.4239 -0.4797
 2885TIP3    H130290   2.502   1.103   1.051 -0.2060 -0.5125 -1.7143
 2885TIP3    H230291   2.432   1.230   1.010 -0.6089 -0.3124 -0.4308
 2886TIP3   OH230292   6.640   6.859   6.412 -0.2430 -0.4711 -0.4648
 2886TIP3    H130293   6.613   6.935   6.360 -0.0697 -0.4833 -0.5720
 2886TIP3    H230294   6.657   6.790   6.348  0.2942 -0.3867 -0.4177
 2887TIP3   OH230295   5.911   4.024   1.429  0.0760 -0.1106  0.0658
 2887TIP3    H130296   5.949   4.104   1.392 -0.2297 -0.2425 -0.5436
 2887TIP3    H230297   5.851   3.993   1.361 -2.0070  0.7306  1.4769
 2888TIP3   OH230298   3.621   6.675   7.653  0.0045  0.3974 -0.0748
 2888TIP3    H130299   3.676   6.693   7.577 -0.8295 -0.0278 -0.7998
 2888TIP3    H230300   3.553   6.742   7.650  0.2222  0.6444  0.5489
 2889TIP3   OH230301   4.608   6.204   6.672 -0.3507 -0.3876 -0.1336
 2889TIP3    H130302   4.666   6.210   6.596 -1.7145 -0.3950 -1.1847
 2889TIP3    H230303   4.522   6.232   6.639 -0.6444  0.9839  1.7533
 2890TIP3   OH230304   3.916   4.643   0.036 -0.1775  0.1629  0.0179
 2890TIP3    H130305   3.906   4.558   0.079  0.0721  0.2597  0.2682
 2890TIP3    H230306   3.859   4.702   0.086  1.3777  0.6484  1.2675
 2891TIP3   OH230307   2.636   1.637   0.525  0.5089 -0.2837  0.5020
 2891TIP3    H130308   2.624   1.608   0.435  1.2272 -0.7651  0.5593
 2891TIP3    H230309   2.621   1.732   0.522 -2.8147 -0.7492  0.4891
 2892TIP3   OH230310   0.813   1.757   0.449  0.2998 -0.3930  0.1308
 2892TIP3    H130311   0.778   1.770   0.537 -0.7636  1.5256 -0.5329
 2892TIP3    H230312   0.801   1.663   0.432 -0.0876 -0.6552  1.7622
 2893TIP3   OH230313   5.469   7.075   6.132 -0.0873 -0.6303 -0.5612
 2893TIP3    H130314   5.552   7.027   6.136 -0.1090 -0.8090 -2.0589
 2893TIP3    H230315   5.487   7.149   6.074 -0.1597  0.9891  1.4360
 2894TIP3   OH230316   7.101   1.267   6.622 -1.0905 -0.5304 -0.2632
 2894TIP3    H130317   7.051   1.255   6.542 -1.4853  0.1318 -0.1184
 2894TIP3    H230318   7.035   1.276   6.691 -0.8110  1.3691 -0.2209
 2895TIP3   OH230319   3.436   5.629   0.909  0.1855  0.0387  0.7806
 2895TIP3    H130320   3.473   5.715   0.888  1.7835 -0.3836  1.7646
 2895TIP3    H230321   3.378   5.646   0.984 -1.2037  0.6027 -0.3956
 2896TIP3   OH230322   1.622   0.979   0.770 -0.2438 -0.1252  0.3901
 2896TIP3    H130323   1.528   0.966   0.787 -0.3556 -0.3817 -0.3804
 2896TIP3    H230324   1.659   0.891   0.771 -0.0678 -0.0510  0.3940
 2897TIP3   OH230325   1.999   0.554   0.685  0.1897  0.5442 -0.5175
 2897TIP3    H130326   1.919   0.506   0.703  0.4559  0.5034  0.5838
 2897TIP3    H230327   1.984   0.640   0.724  1.6481 -0.2770  1.9920
 2898TIP3   OH230328   1.460   5.366   6.390  0.0575  0.5735  0.3389
 2898TIP3    H130329   1.413   5.358   6.307  1.1648 -1.8968 -0.1071
 2898TIP3    H230330   1.489   5.457   6.393  0.6430  0.5166 -2.3496
 2899TIP3   OH230331   5.006   0.035   7.365  0.0369 -0.1772  0.1167
 2899TIP3    H130332   4.996   0.031   7.269  3.5990  1.8129 -0.4198
 2899TIP3    H230333   4.935   0.092   7.394 -1.5507 -1.4249 -1.2328
 2900TIP3   OH230334   6.357   6.777   6.362  0.7588 -0.7242 -0.4002
 2900TIP3    H130335   6.431   6.783   6.301  1.2873 -2.2729  0.0613
 2900TIP3    H230336   6.380   6.705   6.421 -0.9052 -0.9143  0.0506
 2901TIP3   OH230337   2.523   0.361   7.389 -0.2039 -0.0673 -0.0282
 2901TIP3    H130338   2.551   0.387   7.301 -1.5001  0.7752 -0.2103
 2901TIP3    H230339   2.556   0.432   7.445 -0.8901  0.2971 -0.0799
 2902TIP3   OH230340   6.403   0.307   5.954 -0.3711  0.5092 -0.0649
 2902TIP3    H130341   6.420   0.217   5.980  0.3435  0.9483  1.0190
 2902TIP3    H230342   6.391   0.354   6.036  0.7225  1.6890 -0.5634
 2903TIP3   OH230343   3.287   6.519   6.350 -0.1928  0.5224 -0.3870
 2903TIP3    H130344   3.344   6.549   6.279  0.3771 -1.3120 -0.7139
 2903TIP3    H230345   3.240   6.444   6.314 -1.2478  0.7045  0.5874
 2904TIP3   OH230346   4.935   0.633   7.087 -0.0689  0.2258  0.0494
 2904TIP3    H130347   4.842   0.625   7.105 -0.1281 -0.2581 -0.4349
 2904TIP3    H230348   4.970   0.682   7.161 -0.6591  0.1562  0.3788
 2905TIP3   OH230349   5.118   0.983   1.379 -0.9185 -0.3705  0.2548
 2905TIP3    H130350   5.128   0.911   1.317 -0.9045 -1.5571  1.6055
 2905TIP3    H230351   5.171   0.957   1.454 -0.7688  1.1420  0.6871
 2906TIP3   OH230352   6.167   4.273   7.735  0.2061  0.7839  0.0152
 2906TIP3    H130353   6.191   4.365   7.741 -2.0693  1.5338 -1.6297
 2906TIP3    H230354   6.176   4.251   7.643 -1.0187 -0.1032  0.0812
 2907TIP3   OH230355   4.119   6.020   6.784 -0.3057  0.4446 -0.7064
 2907TIP3    H130356   4.210   6.013   6.814  0.0653 -1.1899 -2.1668
 2907TIP3    H230357   4.126   6.027   6.689 -1.6057  2.9446 -0.6525
 2908TIP3   OH230358   5.037   6.573   7.755  0.7482  0.4723  0.2019
 2908TIP3    H130359   5.087   6.495   7.779  0.2760  0.2905  0.6042
 2908TIP3    H230360   5.044   6.630   7.832  2.1572  1.3697 -0.5691
 2909TIP3   OH230361   3.319   4.312   0.066  0.2690  0.1618 -0.1771
 2909TIP3    H130362   3.281   4.228   0.090 -0.9434  0.1856 -1.9391
 2909TIP3    H230363   3.249   4.375   0.079  0.7760  0.7180 -0.1166
 2910TIP3   OH230364   4.399   6.051   5.845 -0.1787  0.6317 -0.2082
 2910TIP3    H130365   4.434   6.047   5.934 -1.1961  0.3430  0.1956
 2910TIP3    H230366   4.329   6.116   5.850 -1.4742 -0.7056 -0.3307
 2911TIP3   OH230367   4.563   0.191   0.368 -0.5379 -0.4203  0.6267
 2911TIP3    H130368   4.473   0.159   0.361 -0.4904 -0.0813 -1.9635
 2911TIP3    H230369   4.591   0.205   0.278  1.6476  0.8204  1.4478
 2912TIP3   OH230370   6.549   6.775   6.150 -0.6243 -0.1612  1.2638
 2912TIP3    H130371   6.560   6.710   6.079 -3.2209 -1.7009  2.1829
 2912TIP3    H230372   6.494   6.843   6.111 -1.1126 -0.4381  1.4764
 2913TIP3   OH230373   6.669   1.264   8.033  0.0432  0.3405  0.1438
 2913TIP3    H130374   6.708   1.242   8.117 -0.8453  0.9212  0.7168
 2913TIP3    H230375   6.684   1.357   8.023 -0.6022  0.4420  0.0656
 2914TIP3   OH230376   3.887   5.849   0.476  0.3960 -0.0771 -0.2352
 2914TIP3    H130377   3.947   5.818   0.408  0.0067  0.3080 -0.7529
 2914TIP3    H230378   3.917   5.937   0.497  0.5508 -0.2155  0.1407
 2915TIP3   OH230379   4.078   6.751   7.004 -0.3112 -0.0197  0.5204
 2915TIP3    H130380   4.147   6.706   6.956 -0.0760  0.8307  0.0604
 2915TIP3    H230381   4.027   6.795   6.937 -0.2378  0.8247  1.0163
 2916TIP3   OH230382   5.047   6.874   1.647  0.4497 -0.3440  0.0062
 2916TIP3    H130383   5.047   6.797   1.703 -0.1525  0.5786  1.3143
 2916TIP3    H230384   5.135   6.910   1.655  0.7540 -0.9284 -0.6662
 2917TIP3   OH230385   0.567   2.520   7.919 -0.4365 -0.0767 -0.5626
 2917TIP3    H130386   0.517   2.598   7.944 -1.4170 -1.2345  1.2154
 2917TIP3    H230387   0.649   2.527   7.967 -0.4460 -0.0221 -0.5549
 2918TIP3   OH230388   5.654   1.087   5.581  0.3596  0.5652 -0.2927
 2918TIP3    H130389   5.624   1.142   5.654 -1.8569 -0.5108 -0.3783
 2918TIP3    H230390   5.590   1.101   5.512  0.7770 -0.7713 -0.9592
 2919TIP3   OH230391   2.684   5.044   1.822  0.0504  0.3143  0.4371
 2919TIP3    H130392   2.779   5.030   1.823 -0.2170 -1.6087 -0.5931
 2919TIP3    H230393   2.650   4.982   1.887 -0.4696  1.3123  1.1309
 2920TIP3   OH230394   0.618   6.301   5.939  0.6228 -0.9246 -0.1575
 2920TIP3    H130395   0.709   6.311   5.911  0.2173 -1.0632 -1.5350
 2920TIP3    H230396   0.600   6.208   5.931 -0.4539 -0.5488 -2.4746
 2921TIP3   OH230397   2.988   2.226   6.769  0.5849 -0.0943  0.2120
 2921TIP3    H130398   3.037   2.179   6.702 -0.2830 -0.5613 -0.1048
 2921TIP3    H230399   3.055   2.274   6.819  1.3000 -0.2852 -0.5510
 2922TIP3   OH230400   5.236   5.267   1.212  0.0708  0.2520  0.3099
 2922TIP3    H130401   5.164   5.204   1.201  0.5002 -0.0204 -1.0748
 2922TIP3    H230402   5.306   5.232   1.157  1.2598  0.5272  1.6634
 2923TIP3   OH230403   0.403   4.252   7.570  0.6190  0.0081  0.1839
 2923TIP3    H130404   0.418   4.314   7.498  1.1974  0.2426  0.5018
 2923TIP3    H230405   0.342   4.298   7.628  0.7775  0.1435  0.2448
 2924TIP3   OH230406   5.894   6.348   7.406  0.4751  0.1286 -0.8389
 2924TIP3    H130407   5.859   6.280   7.464 -1.7280  0.9506 -1.1713
 2924TIP3    H230408   5.986   6.355   7.431 -0.0927 -0.5329  1.6154
 2925TIP3   OH230409   3.976   4.533   7.741  0.1874 -0.2379 -0.1493
 2925TIP3    H130410   3.941   4.621   7.759  1.1810  0.1353 -0.0172
 2925TIP3    H230411   4.069   4.547   7.726 -0.3864 -0.6233 -4.7618
 2926TIP3   OH230412   6.311   0.196   6.348  0.4526 -0.2885 -0.1095
 2926TIP3    H130413   6.238   0.257   6.348  0.6919 -0.0041  0.9823
 2926TIP3    H230414   6.337   0.191   6.256 -0.5789  0.0304 -0.4271
 2927TIP3   OH230415   2.682   6.228   0.657  0.3948  0.0368  0.4969
 2927TIP3    H130416   2.738   6.166   0.611 -0.6850  0.2862 -1.1773
 2927TIP3    H230417   2.648   6.179   0.732  0.7664 -0.9095  0.0521
 2928TIP3   OH230418   3.090   2.915   6.878 -0.2123 -0.5312 -0.2421
 2928TIP3    H130419   3.146   2.934   6.953  0.6988  1.4213 -1.3899
 2928TIP3    H230420   3.040   2.837   6.905  1.2006 -0.7857  1.7666
 2929TIP3   OH230421   4.367   2.034   7.554  0.2709 -0.0060  0.8166
 2929TIP3    H130422   4.317   2.005   7.631 -1.2766  0.6151  0.0498
 2929TIP3    H230423   4.302   2.045   7.485  1.4644  0.8402 -0.1970
 2930TIP3   OH230424   4.493   5.137   0.220 -0.3499  0.0843 -0.8849
 2930TIP3    H130425   4.547   5.059   0.231 -0.1235  0.3031 -0.4118
 2930TIP3    H230426   4.445   5.145   0.303  1.9948  2.2405  0.3670
 2931TIP3   OH230427   2.011   3.338   6.588 -0.6813  0.2001 -0.3987
 2931TIP3    H130428   2.038   3.246   6.593  0.6446  0.6133  0.2783
 2931TIP3    H230429   1.932   3.336   6.535  0.5005 -1.0955 -2.2022
 2932TIP3   OH230430   4.672   4.126   0.480 -0.1357  0.3019 -0.5089
 2932TIP3    H130431   4.761   4.108   0.511 -0.4761 -1.5082 -0.5381
 2932TIP3    H230432   4.650   4.211   0.519  0.8258 -0.2198  1.2182
 2933TIP3   OH230433   4.220   6.266   7.605 -0.0313  0.2355  0.2730
 2933TIP3    H130434   4.226   6.360   7.623 -0.2576  0.8242 -2.4411
 2933TIP3    H230435   4.134   6.254   7.566  0.4995 -0.8543 -0.6165
 2934TIP3   OH230436   6.459   5.979   7.538  0.3337 -0.0307 -0.3891
 2934TIP3    H130437   6.533   5.920   7.522 -0.6058 -1.9502  2.0552
 2934TIP3    H230438   6.457   5.990   7.633 -1.0162  2.0156 -0.6161
 2935TIP3   OH230439   0.602   0.806   0.131 -0.4548  0.5190  0.0337
 2935TIP3    H130440   0.647   0.818   0.214  0.7518  1.1976 -0.7033
 2935TIP3    H230441   0.512   0.785   0.155 -0.1022  0.6369  1.5011
 2936TIP3   OH230442   1.094   5.810   6.788  0.3637  0.4253 -0.6555
 2936TIP3    H130443   1.143   5.808   6.706 -0.2247  0.7471 -1.0227
 2936TIP3    H230444   1.147   5.760   6.850  1.1655  0.7986 -1.0343
 2937TIP3   OH230445   7.015   5.907   6.440  0.8519  0.0553  0.0313
 2937TIP3    H130446   7.035   5.980   6.498 -1.0602  1.0512 -0.5065
 2937TIP3    H230447   6.931   5.874   6.471  0.6180 -0.4700 -1.1352
 2938TIP3   OH230448   3.152   3.401   1.189 -0.1490 -0.6432 -0.0157
 2938TIP3    H130449   3.100   3.433   1.263  0.2009 -1.4103  0.5632
 2938TIP3    H230450   3.152   3.306   1.198  0.6678 -0.6956 -0.4806
 2939TIP3   OH230451   5.039   6.139   7.965  0.3115 -0.4647  0.0180
 2939TIP3    H130452   4.993   6.136   7.881  1.7005 -2.6937 -0.7155
 2939TIP3    H230453   5.041   6.048   7.995 -1.5753  0.5024  3.2945
 2940TIP3   OH230454   2.376   6.612   7.441 -0.0498 -0.5811 -0.4305
 2940TIP3    H130455   2.384   6.687   7.500  1.1530  0.1638 -1.5034
 2940TIP3    H230456   2.466   6.578   7.434 -0.4986 -1.7900 -0.3642
 2941TIP3   OH230457   2.028   6.336   6.743  0.2137  0.0921  0.4157
 2941TIP3    H130458   1.997   6.324   6.833  1.4011 -1.6139  0.6172
 2941TIP3    H230459   2.036   6.247   6.708  1.8953  0.6225 -0.6262
 2942TIP3   OH230460   1.003   0.645   7.201  0.3464  0.2304 -0.4941
 2942TIP3    H130461   1.027   0.734   7.173 -0.1161 -0.1805 -2.2340
 2942TIP3    H230462   1.086   0.606   7.228  0.6181  1.0612 -0.0865
 2943TIP3   OH230463   7.111   5.271   7.635 -0.1049 -0.1415  0.2204
 2943TIP3    H130464   7.121   5.291   7.542 -0.1394 -0.2341  0.1969
 2943TIP3    H230465   7.198   5.244   7.663 -0.1360 -0.2950  0.1713
 2944TIP3   OH230466   6.852   6.466   7.148 -0.2824  0.0611  0.1310
 2944TIP3    H130467   6.940   6.434   7.128 -0.2099  0.6129 -0.4429
 2944TIP3    H230468   6.821   6.503   7.065 -0.6948  0.6970  0.5669
 2945TIP3   OH230469   6.020   3.108   7.817 -0.1087  0.5544 -0.2307
 2945TIP3    H130470   6.071   3.146   7.745  1.1343  2.3417  1.5426
 2945TIP3    H230471   6.085   3.058   7.867 -0.5799  0.9335  0.7505
 2946TIP3   OH230472   2.710   7.066   7.732  0.5642  0.4652 -0.3740
 2946TIP3    H130473   2.759   7.120   7.669 -0.1088 -0.5709 -1.8243
 2946TIP3    H230474   2.712   6.978   7.694 -0.3516 -0.0606  0.7801
 2947TIP3   OH230475   5.864   5.311   5.724  0.0282  0.5326  0.1394
 2947TIP3    H130476   5.768   5.315   5.733 -0.0634 -2.1550  0.9140
 2947TIP3    H230477   5.894   5.269   5.805  1.8043  0.6675 -0.4301
 2948TIP3   OH230478   1.386   1.663   7.604 -0.2374 -0.3318  0.1527
 2948TIP3    H130479   1.394   1.690   7.512 -2.3473 -1.0555 -0.2592
 2948TIP3    H230480   1.381   1.568   7.600 -0.7449 -0.3411  0.9905
 2949TIP3   OH230481   5.930   6.497   6.600  0.3318  0.1868 -0.4466
 2949TIP3    H130482   5.946   6.459   6.686 -0.1808  0.9619  0.0033
 2949TIP3    H230483   6.006   6.471   6.548  1.3970  0.9504  0.6685
 2950TIP3   OH230484   4.387   4.833   6.184 -0.1124  0.2807  0.4811
 2950TIP3    H130485   4.302   4.812   6.222  0.8158 -1.1419  1.8193
 2950TIP3    H230486   4.439   4.754   6.196  0.8648  0.5014 -1.9426
 2951TIP3   OH230487   7.148   1.639   7.574  0.1164 -0.3019  0.0509
 2951TIP3    H130488   7.062   1.639   7.616  0.0552  0.5680 -0.0585
 2951TIP3    H230489   7.205   1.596   7.637 -0.3499 -0.6940  0.2159
 2952TIP3   OH230490   1.982   3.719   8.033 -0.1444  0.2703  0.5481
 2952TIP3    H130491   2.030   3.651   7.985  0.9148 -0.2625  2.2866
 2952TIP3    H230492   1.895   3.681   8.047  0.2326 -0.4834  0.9235
 2953TIP3   OH230493   4.360   3.983   6.413 -0.4363  0.2231 -0.2045
 2953TIP3    H130494   4.424   3.928   6.458 -0.1650  0.3565 -0.4293
 2953TIP3    H230495   4.413   4.045   6.362 -0.7467  0.1470 -0.6177
 2954TIP3   OH230496   5.051   4.393   6.966  0.3259 -0.3008 -0.4261
 2954TIP3    H130497   5.098   4.318   7.003  0.0020 -0.2696  0.0392
 2954TIP3    H230498   5.043   4.455   7.038 -0.5644 -0.3639 -0.4720
 2955TIP3   OH230499   3.793   0.272   7.285  0.1767  0.3547  0.2586
 2955TIP3    H130500   3.819   0.317   7.365 -3.2539  1.0506  1.0368
 2955TIP3    H230501   3.761   0.342   7.228  1.1959 -0.3250 -1.1858
 2956TIP3   OH230502   6.302   6.888   1.078  0.1374 -0.2264  0.0693
 2956TIP3    H130503   6.382   6.875   1.028 -1.8057 -3.1154 -2.4806
 2956TIP3    H230504   6.261   6.801   1.081 -1.2313  0.4186  4.3457
 2957TIP3   OH230505   5.832   0.770   6.335 -0.1167  0.2333  0.4787
 2957TIP3    H130506   5.740   0.745   6.328 -0.5875  1.3203  2.3729
 2957TIP3    H230507   5.833   0.864   6.315  0.3522  0.5332  1.8631
 2958TIP3   OH230508   2.682   4.285   1.243  0.0340  0.1902 -0.0000
 2958TIP3    H130509   2.718   4.274   1.331  0.8688 -0.8224 -0.4547
 2958TIP3    H230510   2.744   4.240   1.186 -0.0725  1.5310 -1.2067
 2959TIP3   OH230511   0.232   3.514   6.663 -0.6797 -0.0546  0.0361
 2959TIP3    H130512   0.162   3.472   6.614 -1.6259  2.7425 -1.1074
 2959TIP3    H230513   0.254   3.451   6.731 -3.2772 -1.6237 -0.4889
 2960TIP3   OH230514   0.951   6.899   7.689  0.1489 -0.0727 -0.0199
 2960TIP3    H130515   0.901   6.938   7.617 -0.8433 -2.0480 -0.4220
 2960TIP3    H230516   1.028   6.861   7.646  0.6628  0.6528  0.2532
 2961TIP3   OH230517   4.793   4.462   8.029 -0.1282  0.0484 -0.0543
 2961TIP3    H130518   4.757   4.384   7.987 -0.8245  0.3891 -0.0910
 2961TIP3    H230519   4.864   4.491   7.971  1.0907 -1.3869  0.6816
 2962TIP3   OH230520   3.732   5.906   7.335 -0.6957  0.0933 -0.1563
 2962TIP3    H130521   3.665   5.926   7.401 -0.2150 -0.1386  0.4020
 2962TIP3    H230522   3.809   5.879   7.386 -0.1223  0.5229 -0.7882
 2963TIP3   OH230523   0.702   6.588   0.156  0.2493 -0.8500  0.0446
 2963TIP3    H130524   0.750   6.525   0.210  2.0460  0.0482 -0.4730
 2963TIP3    H230525   0.746   6.585   0.071 -0.0775  0.5730 -0.1928
 2964TIP3   OH230526   4.298   3.671   6.183 -0.3095  0.3153 -0.5776
 2964TIP3    H130527   4.232   3.735   6.157 -1.0879 -0.9930 -1.8989
 2964TIP3    H230528   4.340   3.646   6.100 -0.8158 -1.7499 -0.2193
 2965TIP3   OH230529   2.871   5.600   0.598 -0.1989  0.4288  0.4754
 2965TIP3    H130530   2.840   5.691   0.599 -0.8658  0.2593 -1.7821
 2965TIP3    H230531   2.965   5.606   0.583  0.0225  0.7620  1.8569
 2966TIP3   OH230532   4.180   6.014   6.525  0.6604  0.3419  0.4714
 2966TIP3    H130533   4.180   6.033   6.432  1.7084  0.8191  0.5673
 2966TIP3    H230534   4.189   5.918   6.530 -3.5602 -0.1660  0.0212
 2967TIP3   OH230535   5.792   4.399   7.729 -0.5880  0.5340  0.4255
 2967TIP3    H130536   5.853   4.369   7.662 -1.0096  0.2745  0.1513
 2967TIP3    H230537   5.775   4.491   7.706 -1.6902  0.0923 -0.5574
 2968TIP3   OH230538   6.202   6.661   6.842 -0.3315 -0.0824 -0.3459
 2968TIP3    H130539   6.133   6.594   6.836  0.2395 -0.5934 -1.3966
 2968TIP3    H230540   6.282   6.611   6.856 -0.2391  0.5484  1.5083
 2969TIP3   OH230541   3.626   0.852   7.656  0.2890  0.1305 -0.4034
 2969TIP3    H130542   3.572   0.791   7.605  0.7201  1.1723 -2.1442
 2969TIP3    H230543   3.716   0.831   7.631  0.4489  1.3672 -0.9015
 2970TIP3   OH230544   4.055   5.208   0.532  0.1374  0.6256  0.2612
 2970TIP3    H130545   4.054   5.283   0.474 -1.9834 -0.0504 -0.6370
 2970TIP3    H230546   4.118   5.230   0.600  0.1455  2.8456 -0.4496
 2971TIP3   OH230547   3.806   6.428   7.717 -0.0575 -0.1789  0.3958
 2971TIP3    H130548   3.745   6.374   7.768 -1.2027 -1.3153 -2.0994
 2971TIP3    H230549   3.778   6.518   7.735 -1.8347 -0.6546  0.1036
 2972TIP3   OH230550   5.621   5.531   1.930  0.5785  0.1228 -0.7472
 2972TIP3    H130551   5.562   5.474   1.881  0.2832 -3.0636  3.1467
 2972TIP3    H230552   5.563   5.587   1.981  0.9050 -0.3043  0.0926
 2973TIP3   OH230553   5.316   0.112   5.588 -0.9353 -0.0432  0.0567
 2973TIP3    H130554   5.354   0.040   5.639  1.9075  2.1962  1.2147
 2973TIP3    H230555   5.385   0.137   5.526 -2.1067  1.3147 -0.7300
 2974TIP3   OH230556   2.308   6.943   7.045  0.0752  0.1023 -1.0541
 2974TIP3    H130557   2.303   6.906   6.957 -1.5189 -1.5894 -0.2931
 2974TIP3    H230558   2.225   6.917   7.087  1.6986 -0.9770  1.6280
 2975TIP3   OH230559   1.077   0.020   5.857 -0.5355  0.2606  0.0276
 2975TIP3    H130560   0.998   0.061   5.819 -0.9130 -0.3553  0.1458
 2975TIP3    H230561   1.146   0.084   5.841 -1.1977  1.1208  0.5376
 2976TIP3   OH230562   3.457   5.636   1.174  0.0476  0.2107  0.0043
 2976TIP3    H130563   3.538   5.585   1.173  1.2424  2.0414  1.4520
 2976TIP3    H230564   3.407   5.600   1.247 -0.2921 -0.6350 -0.6273
 2977TIP3   OH230565   3.817   6.735   0.429  0.2727  0.4229 -0.6641
 2977TIP3    H130566   3.899   6.727   0.381  1.3135 -3.1358  1.6218
 2977TIP3    H230567   3.750   6.714   0.364  1.5206 -2.1102 -1.1608
 2978TIP3   OH230568   3.350   3.399   6.366  0.0250  0.3323 -1.0084
 2978TIP3    H130569   3.337   3.357   6.451 -1.0991  2.2103 -0.2234
 2978TIP3    H230570   3.304   3.342   6.304  0.8590 -1.0481 -0.3799
 2979TIP3   OH230571   0.029   5.534   7.416 -0.0555  0.1101 -0.6601
 2979TIP3    H130572   0.029   5.526   7.512 -0.0191 -1.1750 -0.7678
 2979TIP3    H230573   0.086   5.609   7.399  2.6567 -1.6763  0.1652
 2980TIP3   OH230574   6.780   1.825   0.667 -0.0673 -0.3957 -0.0574
 2980TIP3    H130575   6.837   1.876   0.608 -0.8001  0.9659  0.3834
 2980TIP3    H230576   6.795   1.734   0.642  0.2696  0.1095 -1.7996
 2981TIP3   OH230577   6.544   5.548   7.327 -0.2406 -0.4292 -0.4633
 2981TIP3    H130578   6.620   5.490   7.323  0.2110  0.1761 -0.8188
 2981TIP3    H230579   6.499   5.534   7.244 -1.3094 -1.8339  0.3298
 2982TIP3   OH230580   1.297   4.714   7.016 -0.8747 -0.4555 -0.2407
 2982TIP3    H130581   1.365   4.717   7.083 -1.9007 -0.4748  0.8109
 2982TIP3    H230582   1.333   4.765   6.944  0.7253 -1.4007 -0.1462
 2983TIP3   OH230583   0.200   5.762   5.713 -0.0369  0.0724  0.1298
 2983TIP3    H130584   0.164   5.815   5.784 -0.4768 -0.8280  0.5793
 2983TIP3    H230585   0.293   5.755   5.732 -0.0440  0.3650  0.2708
 2984TIP3   OH230586   6.319   6.004   5.525 -0.4174  0.5011 -0.3306
 2984TIP3    H130587   6.238   6.052   5.546 -0.4029  0.2682  0.2712
 2984TIP3    H230588   6.386   6.072   5.518 -0.6601  0.6917 -0.7915
 2985TIP3   OH230589   5.873   2.360   7.407 -0.2813  0.4926 -0.0147
 2985TIP3    H130590   5.937   2.290   7.390  0.3006  1.0443 -0.1093
 2985TIP3    H230591   5.888   2.383   7.499 -1.5733 -0.6133  0.4876
 2986TIP3   OH230592   0.141   7.117   8.001 -0.0366  0.3977 -0.1005
 2986TIP3    H130593   0.114   7.038   8.047 -0.6446  0.5739 -0.1560
 2986TIP3    H230594   0.072   7.133   7.937 -0.1422  1.2212  0.2097
 2987TIP3   OH230595   6.716   4.426   6.277  0.2077  0.2789  0.9190
 2987TIP3    H130596   6.775   4.497   6.301  0.7251  0.5953 -1.1747
 2987TIP3    H230597   6.772   4.348   6.277  0.6267  0.5594 -0.9416
 2988TIP3   OH230598   6.221   1.612   6.579  0.0965  0.1512  0.4330
 2988TIP3    H130599   6.243   1.547   6.646  0.3851  0.2987  0.4811
 2988TIP3    H230600   6.303   1.625   6.531 -0.1061  0.0522  0.0587
 2989TIP3   OH230601   1.282   0.053   7.542 -0.0910  0.3774  0.2456
 2989TIP3    H130602   1.335  -0.023   7.567 -0.1194  0.4662  0.5879
 2989TIP3    H230603   1.192   0.029   7.567 -0.0994  0.5254  0.3594
 2990TIP3   OH230604   0.312   0.324   0.212  0.4372  0.1846  0.0040
 2990TIP3    H130605   0.305   0.390   0.142  2.4208  0.2598 -0.1568
 2990TIP3    H230606   0.318   0.241   0.165 -0.2847  0.0553  0.1476
 2991TIP3   OH230607   6.081   3.372   6.378 -0.2564  0.2648  0.1557
 2991TIP3    H130608   6.172   3.352   6.357  0.0319  1.0148  0.6433
 2991TIP3    H230609   6.032   3.293   6.354  0.6197 -0.4025  0.5326
 2992TIP3   OH230610   0.049   2.558   6.934 -0.4473  0.8179  0.3922
 2992TIP3    H130611  -0.033   2.545   6.887  0.0778  0.4550 -0.4216
 2992TIP3    H230612   0.037   2.641   6.980 -1.2096  0.8479  0.1449
 2993TIP3   OH230613   4.594   3.844   6.363  0.2890  0.0964  0.2613
 2993TIP3    H130614   4.601   3.751   6.343 -1.4869 -0.0093 -0.0278
 2993TIP3    H230615   4.673   3.865   6.411  2.0783 -0.9127 -2.1450
 2994TIP3   OH230616   1.277   3.728   7.853  0.0826  0.2217 -0.4325
 2994TIP3    H130617   1.239   3.752   7.937 -2.6663  0.2777 -1.6251
 2994TIP3    H230618   1.315   3.809   7.819  0.0505  0.4871  0.1717
 2995TIP3   OH230619   0.674   0.542   6.422 -0.1900 -0.3656  0.1400
 2995TIP3    H130620   0.638   0.518   6.508 -3.1277  1.5111 -0.5194
 2995TIP3    H230621   0.646   0.471   6.364  0.5153 -0.8680  0.4028
 2996TIP3   OH230622   4.334   0.785   7.882  0.0637  0.8663  0.0388
 2996TIP3    H130623   4.363   0.788   7.791  1.0957  0.2674  0.3452
 2996TIP3    H230624   4.319   0.692   7.899  0.0519  0.9623  0.5448
 2997TIP3   OH230625   3.205   1.798   6.984  0.0996  0.5319 -0.1761
 2997TIP3    H130626   3.287   1.829   7.021  0.6821  0.5549 -1.4629
 2997TIP3    H230627   3.222   1.789   6.891 -0.2262 -3.0768  0.0229
 2998TIP3   OH230628   0.039   0.953   6.510 -0.5526  0.3193 -0.2236
 2998TIP3    H130629  -0.049   0.987   6.495 -0.6100 -0.2238 -1.1389
 2998TIP3    H230630   0.033   0.860   6.489  0.2801  0.3135 -0.4551
 2999TIP3   OH230631   1.048   6.579   7.064  0.4505  0.1067  0.5449
 2999TIP3    H130632   1.139   6.608   7.072  0.9623 -1.1437 -0.5248
 2999TIP3    H230633   1.047   6.492   7.103 -0.0809 -0.2669 -0.2787
 3000TIP3   OH230634   4.231   6.780   5.882 -0.3430 -0.4395 -0.0522
 3000TIP3    H130635   4.140   6.804   5.865 -0.3406 -1.0179 -0.8800
 3000TIP3    H230636   4.280   6.861   5.866 -0.5659 -0.4580 -0.8323
 3001TIP3   OH230637   5.208   4.237   7.389 -0.1265 -0.0279  0.3641
 3001TIP3    H130638   5.264   4.256   7.313  1.7831 -2.2520  1.1224
 3001TIP3    H230639   5.174   4.149   7.371 -1.4400  0.3247  1.0801
 3002TIP3   OH230640   5.298   1.724   6.443  0.2711  0.0114  0.1885
 3002TIP3    H130641   5.371   1.706   6.503  1.4935  0.7019 -1.0549
 3002TIP3    H230642   5.273   1.638   6.409  1.1738 -0.1218 -0.1423
 3003TIP3   OH230643   6.374   0.058   7.709 -0.2087  0.1604  0.0667
 3003TIP3    H130644   6.394   0.089   7.797 -1.8072  0.8749  0.1870
 3003TIP3    H230645   6.452   0.079   7.658  1.0545 -0.9970  1.4807
 3004TIP3   OH230646   5.165   6.663   5.802 -0.0792 -0.0546  0.2409
 3004TIP3    H130647   5.113   6.648   5.723  0.5363  1.9052 -0.5523
 3004TIP3    H230648   5.099   6.674   5.871 -0.7935  2.4373 -0.7620
 3005TIP3   OH230649   3.948   1.379   7.379 -0.6140 -0.0050  0.2764
 3005TIP3    H130650   4.013   1.420   7.320 -1.0875  0.1415 -0.1491
 3005TIP3    H230651   3.873   1.361   7.322 -1.0678  0.1186  0.8377
 3006TIP3   OH230652   4.565   6.179   7.859 -0.6712 -0.0992 -0.2225
 3006TIP3    H130653   4.562   6.213   7.769  1.2527 -0.8315 -0.5932
 3006TIP3    H230654   4.592   6.254   7.912 -0.4787  0.0005 -0.4576
 3007TIP3   OH230655   0.576   0.307   5.972 -0.5691  0.1758  0.0608
 3007TIP3    H130656   0.666   0.329   5.997 -0.6579  0.1437  0.4233
 3007TIP3    H230657   0.586   0.233   5.911 -0.3171  0.6501 -0.4748
 3008TIP3   OH230658   3.430   6.890   0.426  0.7978  0.6143  0.1862
 3008TIP3    H130659   3.513   6.934   0.442  0.4113  1.8147 -1.0775
 3008TIP3    H230660   3.382   6.897   0.509  1.5852  0.6964  0.6371
 3009TIP3   OH230661   5.498   0.173   6.828  0.4066 -0.0912 -0.0103
 3009TIP3    H130662   5.470   0.214   6.746  2.4621  2.1613  0.3719
 3009TIP3    H230663   5.449   0.219   6.896  0.8943  0.0632  0.2388
 3010TIP3   OH230664   4.872   6.641   6.631 -0.1416 -0.3651 -0.0950
 3010TIP3    H130665   4.902   6.726   6.599  0.1211 -0.3802  0.1032
 3010TIP3    H230666   4.797   6.619   6.577 -0.6128  0.3019  0.2888
 3011TIP3   OH230667   3.261   6.654   6.587  1.2526  0.1683  0.1219
 3011TIP3    H130668   3.263   6.604   6.506  1.1655  0.0433  0.1974
 3011TIP3    H230669   3.237   6.590   6.654  0.5225  0.4393  0.1252
 3012TIP3   OH230670   5.376   0.332   0.374 -0.2640 -0.0813 -0.6248
 3012TIP3    H130671   5.374   0.288   0.459 -3.0577  2.8364  0.9240
 3012TIP3    H230672   5.295   0.305   0.331  0.1304  0.1041 -1.5032
 3013TIP3   OH230673   0.128   3.119   7.080 -0.5956 -0.3132 -0.0681
 3013TIP3    H130674   0.222   3.131   7.069 -0.4973  1.0672  2.1530
 3013TIP3    H230675   0.118   3.086   7.169 -2.1161 -1.9849 -0.8299
 3014TIP3   OH230676   4.700   1.627   1.918  0.0730 -0.4437 -0.4985
 3014TIP3    H130677   4.662   1.648   2.003 -1.2526 -0.6556 -1.0205
 3014TIP3    H230678   4.779   1.681   1.913 -1.5436  2.0329 -0.4679
 3015TIP3   OH230679   0.109   6.250   7.480 -0.3142  0.1040  0.1359
 3015TIP3    H130680   0.096   6.157   7.462 -0.4450  0.3010 -0.8009
 3015TIP3    H230681   0.192   6.271   7.437  0.1357  0.2396  1.0432
 3016TIP3   OH230682   4.931   6.126   6.575 -0.1563 -0.1122  0.1774
 3016TIP3    H130683   4.922   6.207   6.525  0.3870 -0.1032  0.0831
 3016TIP3    H230684   5.019   6.132   6.613  0.3420 -1.1664 -0.7722
 3017TIP3   OH230685   2.314   7.142   0.846 -0.0562 -0.5293  0.0402
 3017TIP3    H130686   2.355   7.087   0.779  0.5603  2.4962 -2.1291
 3017TIP3    H230687   2.221   7.128   0.834  0.0590 -0.2061 -1.2876
 3018TIP3   OH230688   0.752   0.030   6.304  0.1286  0.1398  0.1574
 3018TIP3    H130689   0.673  -0.004   6.261  1.2791 -1.2723 -0.8834
 3018TIP3    H230690   0.821   0.023   6.238  1.4959 -0.1446  1.5770
 3019TIP3   OH230691   6.971   5.641   7.035 -0.4856 -0.0875 -0.2735
 3019TIP3    H130692   6.897   5.610   6.983 -0.1685 -0.4295 -0.5210
 3019TIP3    H230693   7.006   5.563   7.077 -1.2522  0.2996  1.1312
 3020TIP3   OH230694   2.058   0.463   7.683  0.0127 -0.0250 -0.0892
 3020TIP3    H130695   2.034   0.378   7.647 -1.2897  0.9118 -1.5601
 3020TIP3    H230696   2.138   0.487   7.637 -0.0861 -0.0953 -0.2991
 3021TIP3   OH230697   3.735   5.403   7.232  0.4663 -1.0061 -0.0376
 3021TIP3    H130698   3.828   5.416   7.251  0.5030 -0.5660 -0.4919
 3021TIP3    H230699   3.697   5.490   7.241  0.0751 -1.2077  0.2613
 3022TIP3   OH230700   6.966   0.754   0.173  0.0434  0.4120  0.5452
 3022TIP3    H130701   6.972   0.660   0.193  0.2227 -0.1528 -1.9937
 3022TIP3    H230702   6.889   0.761   0.116 -1.1094  2.1123  2.2541
 3023TIP3   OH230703   0.624   6.933   7.251 -0.3102 -0.1616 -0.6189
 3023TIP3    H130704   0.650   6.926   7.160  1.1369  1.0107 -0.3066
 3023TIP3    H230705   0.533   6.965   7.247  0.4639  2.0660 -1.6467
 3024TIP3   OH230706   4.979   0.395   7.255  0.4712 -0.1704 -0.5767
 3024TIP3    H130707   4.916   0.329   7.229  1.0175  0.1259 -2.7159
 3024TIP3    H230708   5.013   0.364   7.339 -1.0926 -1.3025 -0.3383
 3025TIP3   OH230709   6.613   4.950   6.647  0.2879 -0.1516 -0.6608
 3025TIP3    H130710   6.663   4.895   6.587  0.8203 -0.3606 -0.0261
 3025TIP3    H230711   6.609   5.035   6.603  2.0250  0.1414 -0.2893
 3026TIP3   OH230712   5.465   2.088   7.440  0.1480 -0.2405  0.2960
 3026TIP3    H130713   5.489   2.170   7.397  0.9300 -0.7356 -0.2208
 3026TIP3    H230714   5.418   2.115   7.518  2.7075  0.7930  1.5540
 3027TIP3   OH230715   1.908   4.337   0.422 -0.8180  0.1879  0.5498
 3027TIP3    H130716   1.994   4.324   0.380 -1.8174  1.2758 -1.9088
 3027TIP3    H230717   1.916   4.291   0.506  1.8424 -0.5615 -0.0495
 3028TIP3   OH230718   4.733   6.978   7.261  0.5668 -0.0636 -0.5077
 3028TIP3    H130719   4.825   7.005   7.264 -0.6010  4.1513  0.7582
 3028TIP3    H230720   4.707   6.989   7.170  1.0716 -0.4068 -0.6949
 3029TIP3   OH230721   0.812   4.452   0.977 -0.0164  0.0948  0.4355
 3029TIP3    H130722   0.730   4.450   1.026  0.2518 -0.8107  0.8505
 3029TIP3    H230723   0.805   4.378   0.916  0.2081  0.4217  0.0104
 3030TIP3   OH230724   0.431   5.841   0.366 -0.5750 -0.1651 -0.2823
 3030TIP3    H130725   0.337   5.842   0.351 -0.5312 -1.4127 -0.6544
 3030TIP3    H230726   0.440   5.830   0.461 -0.8102  3.8613  0.3130
 3031TIP3   OH230727   6.422   5.726   1.795 -0.0011  0.2858  0.2846
 3031TIP3    H130728   6.505   5.770   1.813 -0.1539  0.0339  1.6568
 3031TIP3    H230729   6.435   5.637   1.827 -0.3739 -0.1087 -0.6503
 3032TIP3   OH230730   4.626   5.073   0.537  0.4462 -0.3367  0.2917
 3032TIP3    H130731   4.604   5.135   0.467  0.2222  0.7034  1.2641
 3032TIP3    H230732   4.657   4.995   0.492 -0.3274  0.0834 -0.9807
 3033TIP3   OH230733   3.294   5.879   7.736 -0.3186 -0.4648  0.2861
 3033TIP3    H130734   3.228   5.847   7.675 -0.7644  0.0694  0.4834
 3033TIP3    H230735   3.299   5.973   7.719  0.5617 -0.5386  0.1138
 3034TIP3   OH230736   6.868   4.609   6.619  0.1432  0.8251 -0.0964
 3034TIP3    H130737   6.866   4.658   6.537 -3.6276 -1.7018 -1.6609
 3034TIP3    H230738   6.879   4.518   6.591 -1.2225 -0.0719  2.2026
 3035TIP3   OH230739   5.490   5.601   7.163 -0.4907  0.5916 -0.0664
 3035TIP3    H130740   5.486   5.680   7.109 -0.7987 -0.7295 -2.0509
 3035TIP3    H230741   5.574   5.561   7.141 -0.1515  0.5737  1.2390
 3036TIP3   OH230742   6.128   3.024   0.720  0.4371 -0.0683  0.0931
 3036TIP3    H130743   6.039   2.992   0.733  0.6909 -0.1797  1.6781
 3036TIP3    H230744   6.164   2.967   0.652 -0.5408 -0.3331 -0.2159
 3037TIP3   OH230745   0.744   3.909   7.282 -0.2911  0.1271 -0.2244
 3037TIP3    H130746   0.741   3.925   7.188 -0.8148  1.3810 -0.0035
 3037TIP3    H230747   0.792   3.827   7.291  2.8045  1.7417 -1.3680
 3038TIP3   OH230748   5.091   5.841   6.425  0.1020 -0.9905 -0.6497
 3038TIP3    H130749   5.152   5.829   6.351  0.9884  1.5858 -0.4163
 3038TIP3    H230750   5.018   5.890   6.387 -0.0755 -0.8414 -0.1121
 3039TIP3   OH230751   6.847   5.062   6.939  0.5943 -0.6232  0.2947
 3039TIP3    H130752   6.908   5.135   6.928  0.9138 -0.7098  1.4622
 3039TIP3    H230753   6.903   4.985   6.948  0.3149 -0.7022  1.3680
 3040TIP3   OH230754   1.059   5.640   1.526  0.0397  0.0704 -1.2626
 3040TIP3    H130755   1.079   5.600   1.611  0.2376  1.8451 -0.4349
 3040TIP3    H230756   1.108   5.589   1.462  0.8324 -0.5596 -0.1601
 3041TIP3   OH230757   0.628   0.061   0.177 -0.2808  0.1499  0.6208
 3041TIP3    H130758   0.670   0.146   0.184  1.2535 -0.5911  0.5205
 3041TIP3    H230759   0.565   0.071   0.105 -1.5630  1.7779  1.9453
 3042TIP3   OH230760   4.931   2.151   7.927 -0.2416  0.0612 -0.2502
 3042TIP3    H130761   4.944   2.246   7.919 -2.9400  0.5122  0.2580
 3042TIP3    H230762   4.921   2.121   7.837  0.6383  0.2429 -0.4171
 3043TIP3   OH230763   4.451   0.685   7.317 -0.1673  0.0609 -0.3022
 3043TIP3    H130764   4.493   0.759   7.362  0.0027 -0.3540  0.2233
 3043TIP3    H230765   4.360   0.689   7.346 -0.0416 -0.2504  0.1434
 3044TIP3   OH230766   6.875   5.910   0.496  0.1105  0.2844 -0.6223
 3044TIP3    H130767   6.805   5.886   0.556 -0.4996  0.0825 -1.4017
 3044TIP3    H230768   6.912   5.990   0.533  0.6718 -0.6074  0.7685
 3045TIP3   OH230769   1.322   5.578   7.594 -0.0619  0.3487 -0.1451
 3045TIP3    H130770   1.382   5.603   7.664 -0.1121 -1.7159  0.6662
 3045TIP3    H230771   1.239   5.560   7.638 -0.0716 -1.0562 -0.7074
 3046TIP3   OH230772   4.519   6.732   1.509  0.3210 -0.3740 -0.0833
 3046TIP3    H130773   4.437   6.773   1.539  1.3659  2.0274 -0.4083
 3046TIP3    H230774   4.547   6.679   1.583 -0.8064 -0.1146  0.5514
 3047TIP3   OH230775   3.369   6.614   6.029 -0.2663  0.0546  0.5456
 3047TIP3    H130776   3.284   6.606   5.985 -0.3388 -0.1670  0.7256
 3047TIP3    H230777   3.380   6.531   6.074 -0.7837  0.7593  1.9884
 3048TIP3   OH230778   6.007   4.544   1.618 -0.6284  0.3444 -0.0376
 3048TIP3    H130779   6.049   4.566   1.702  0.7612  1.1211 -0.9240
 3048TIP3    H230780   6.022   4.621   1.563 -1.3844 -0.2367 -1.0568
 3049TIP3   OH230781   0.858   0.020   6.048  0.0484  0.2216  0.0572
 3049TIP3    H130782   0.782   0.021   5.989  0.8599  1.5627 -0.9837
 3049TIP3    H230783   0.915  -0.048   6.012 -0.2077 -0.1030  0.2632
 3050TIP3   OH230784   6.536   5.783   6.657  0.2487  0.0003  0.0722
 3050TIP3    H130785   6.442   5.796   6.668  0.3735  0.3969  0.6850
 3050TIP3    H230786   6.546   5.688   6.643  0.0367 -0.5075  3.0375
 3051TIP3   OH230787   5.394   7.070   1.258 -0.7046  0.4184 -0.2910
 3051TIP3    H130788   5.383   7.165   1.260  1.1812  0.7303 -2.6530
 3051TIP3    H230789   5.314   7.038   1.216 -0.4709  1.1387 -1.3048
 3052TIP3   OH230790   6.835   6.842   6.199 -0.1557  0.7539 -0.5202
 3052TIP3    H130791   6.882   6.915   6.159 -0.4438  0.7279 -0.9009
 3052TIP3    H230792   6.757   6.830   6.145  0.0538 -0.0441 -0.6598
 3053TIP3   OH230793   6.933   1.408   7.612 -0.2814 -0.0037 -0.1915
 3053TIP3    H130794   6.910   1.373   7.698  1.1069  0.3831  0.3526
 3053TIP3    H230795   7.005   1.352   7.582  0.6317  1.1557 -0.1772
 3054TIP3   OH230796   1.488   5.482   1.006 -0.5830  0.1768  0.6640
 3054TIP3    H130797   1.436   5.556   1.038 -1.5386 -0.9534  1.7703
 3054TIP3    H230798   1.557   5.471   1.072 -0.6943 -0.1854  0.7188
 3055TIP3   OH230799   1.224   6.790   7.336 -0.7395  0.1826  0.3775
 3055TIP3    H130800   1.271   6.857   7.386 -0.3360 -0.4971  0.9261
 3055TIP3    H230801   1.151   6.764   7.394  0.1758 -1.1587  0.9618
 3056TIP3   OH230802   3.786   1.791   6.984  0.1876 -0.1771  0.5359
 3056TIP3    H130803   3.790   1.829   6.896  0.6547 -0.1981  0.5484
 3056TIP3    H230804   3.750   1.860   7.039 -0.6390 -0.3463  0.2277
 3057TIP3   OH230805   1.013   7.134   7.332 -0.4703  0.3976  0.1688
 3057TIP3    H130806   0.940   7.080   7.361 -1.8810  1.2487 -1.6559
 3057TIP3    H230807   1.058   7.082   7.266  0.3381  0.0344  1.0014
 3058TIP3   OH230808   6.411   2.936   5.811 -0.4240  0.5398 -0.0817
 3058TIP3    H130809   6.364   2.879   5.751 -0.3096 -0.1310  0.4568
 3058TIP3    H230810   6.461   2.876   5.866 -0.4125  1.1571  0.5841
 3059TIP3   OH230811   5.617   5.927   0.448  0.0372  0.1171 -0.0535
 3059TIP3    H130812   5.649   6.014   0.426 -0.7656  0.1197 -1.2443
 3059TIP3    H230813   5.525   5.939   0.471  0.1543 -0.2945  0.6651
 3060TIP3   OH230814   1.527   4.550   7.468 -0.0694  0.2346 -0.1821
 3060TIP3    H130815   1.621   4.557   7.452 -0.2057  1.5370 -0.4777
 3060TIP3    H230816   1.521   4.500   7.549  0.8768  0.0190 -0.2345
 3061TIP3   OH230817   3.222   6.139   6.838 -0.1851  0.1421  0.1322
 3061TIP3    H130818   3.290   6.074   6.824 -2.0668 -2.1895  1.4349
 3061TIP3    H230819   3.268   6.223   6.838  2.6249 -1.3541  0.7453
 3062TIP3   OH230820   0.225   0.619   8.017 -0.3357 -0.1990  0.2439
 3062TIP3    H130821   0.292   0.595   7.952 -2.2297 -0.1034 -1.8053
 3062TIP3    H230822   0.191   0.535   8.048 -0.9991 -0.2359 -0.5725
 3063TIP3   OH230823   6.624   5.161   6.495 -0.1177 -0.4441  0.2209
 3063TIP3    H130824   6.582   5.234   6.540 -2.8411 -0.5505 -1.9664
 3063TIP3    H230825   6.645   5.195   6.408  0.2101 -1.7548 -0.2240
 3064TIP3   OH230826   5.358   1.138   7.696  0.3737 -0.5206  0.6776
 3064TIP3    H130827   5.378   1.229   7.717 -1.3577 -0.1798  0.8829
 3064TIP3    H230828   5.364   1.092   7.780  0.0983 -0.3794  0.7757
 3065TIP3   OH230829   0.280   0.056   6.274 -0.8554  0.7871 -0.3999
 3065TIP3    H130830   0.265   0.106   6.355 -1.7949  0.7006 -0.5244
 3065TIP3    H230831   0.195   0.019   6.252 -0.3095 -0.2822 -0.7136
 3066TIP3   OH230832   1.348   3.035   7.016 -0.6394  0.2012  0.4492
 3066TIP3    H130833   1.279   2.982   6.977  0.5947 -0.8690 -0.3564
 3066TIP3    H230834   1.427   2.982   7.005  0.3288  1.4524  1.2319
 3067TIP3   OH230835   0.042   5.634   6.431  0.3340  0.0813 -0.2655
 3067TIP3    H130836  -0.002   5.564   6.381 -0.2602 -0.6897  1.3091
 3067TIP3    H230837   0.013   5.714   6.388  0.1961 -0.5916 -1.4620
 3068TIP3   OH230838   1.911   6.297   0.318  0.1136  0.7982  0.6150
 3068TIP3    H130839   1.843   6.363   0.304  0.7082  1.1750 -0.5966
 3068TIP3    H230840   1.887   6.225   0.259  0.0390  0.3712  1.1615
 3069TIP3   OH230841   0.578   5.944   6.198  0.8233  0.2237  0.2118
 3069TIP3    H130842   0.663   5.987   6.203  0.7431  0.3363  0.6400
 3069TIP3    H230843   0.585   5.886   6.123  0.6929  1.4963 -0.8072
 3070TIP3   OH230844   0.591   2.579   0.411  0.0984 -0.1248  0.9597
 3070TIP3    H130845   0.533   2.537   0.476 -1.6042 -0.2693 -0.6014
 3070TIP3    H230846   0.605   2.511   0.345  1.0052  0.3421  0.6774
 3071TIP3   OH230847   0.725   1.613   1.000 -0.1620  0.2298  0.5611
 3071TIP3    H130848   0.630   1.629   0.996 -0.1161  0.1425 -1.0738
 3071TIP3    H230849   0.734   1.521   0.973  0.5370  0.7428 -0.9643
 3072TIP3   OH230850   0.739   6.062   6.798  0.3596  0.2462 -0.1750
 3072TIP3    H130851   0.791   6.106   6.731 -0.1729  0.5922 -0.3672
 3072TIP3    H230852   0.783   5.978   6.813  0.2589  0.0039 -1.2316
 3073TIP3   OH230853   5.344   1.450   0.580 -0.7898  0.4993 -0.2430
 3073TIP3    H130854   5.278   1.455   0.511 -0.8136  2.2752 -0.1238
 3073TIP3    H230855   5.377   1.540   0.588  2.1542 -0.4741 -0.7994
 3074TIP3   OH230856   4.881   0.276   6.365 -0.1440  0.0857 -0.0193
 3074TIP3    H130857   4.902   0.271   6.272 -1.3108  1.7858 -0.4174
 3074TIP3    H230858   4.960   0.311   6.406 -0.4561  1.6853 -0.7501
 3075TIP3   OH230859   5.782   3.233   7.966 -0.4107  0.3878 -0.2301
 3075TIP3    H130860   5.847   3.200   7.905 -0.2196  0.1369  0.1111
 3075TIP3    H230861   5.715   3.273   7.910 -0.6668 -0.6002 -0.6453
 3076TIP3   OH230862   4.591   5.827   1.893 -0.2845  0.4808 -0.4845
 3076TIP3    H130863   4.560   5.897   1.951 -0.1089  0.9287 -0.9331
 3076TIP3    H230864   4.684   5.844   1.882  0.5676 -1.8527  2.2557
 3077TIP3   OH230865   2.142   6.636   1.968 -0.0551  0.1209 -0.4328
 3077TIP3    H130866   2.144   6.665   2.059 -0.0584 -1.1440 -0.0264
 3077TIP3    H230867   2.219   6.677   1.929 -0.0980  0.7335  0.1183
 3078TIP3   OH230868   5.484   6.674   6.737 -0.3663  0.1532 -0.4802
 3078TIP3    H130869   5.479   6.635   6.649  1.5259 -0.2711 -0.4270
 3078TIP3    H230870   5.445   6.609   6.794 -0.5281 -0.0853 -0.8579
 3079TIP3   OH230871   7.108   3.209   0.233  0.2270 -0.4762  0.0970
 3079TIP3    H130872   7.115   3.281   0.171  0.3726 -0.6763 -0.1168
 3079TIP3    H230873   7.198   3.183   0.251  0.3513  1.4095  2.5359
 3080TIP3   OH230874   3.935   6.994   0.755  0.1395  0.1946  0.1005
 3080TIP3    H130875   3.945   6.961   0.844  1.6995 -0.4848 -0.3005
 3080TIP3    H230876   4.012   7.049   0.741 -0.7087  1.2709 -0.4240
 3081TIP3   OH230877   4.983   5.198   0.075 -0.0110 -0.8781 -0.0743
 3081TIP3    H130878   5.062   5.186   0.022 -1.3858 -0.5837 -2.2558
 3081TIP3    H230879   4.961   5.110   0.105 -0.8359 -1.5195 -2.4424
 3082TIP3   OH230880   5.449   4.075   7.983  0.3952  0.2213 -0.0406
 3082TIP3    H130881   5.400   4.128   7.920  0.3432 -0.4411 -0.5708
 3082TIP3    H230882   5.500   4.138   8.033  0.9275  0.7149 -1.1803
 3083TIP3   OH230883   1.035   4.718   7.110  0.0858  0.4852  0.2446
 3083TIP3    H130884   1.114   4.718   7.055 -0.8686 -1.0060 -1.1822
 3083TIP3    H230885   0.981   4.648   7.073 -1.1140  0.2752  2.3494
 3084TIP3   OH230886   1.055   6.838   6.738 -0.2301 -0.1486 -0.4986
 3084TIP3    H130887   1.001   6.891   6.798 -0.0204  1.7098 -1.8999
 3084TIP3    H230888   1.006   6.758   6.725  0.0087 -0.8714  2.6610
 3085TIP3   OH230889   0.055   3.700   6.801  0.1588 -0.4333  0.8973
 3085TIP3    H130890   0.125   3.686   6.737 -0.7502 -3.1046  0.4298
 3085TIP3    H230891   0.035   3.613   6.835 -2.1827  0.4215  1.8355
 3086TIP3   OH230892   5.084   6.736   7.997  0.0396  0.1909 -0.3942
 3086TIP3    H130893   5.049   6.825   8.003 -1.6441 -0.4470 -0.6346
 3086TIP3    H230894   5.178   6.749   7.984 -0.2106  1.9377 -0.6692
 3087TIP3   OH230895   6.130   5.058   7.772 -0.3368  0.4354  0.3070
 3087TIP3    H130896   6.044   5.038   7.735 -0.0786 -0.7187  0.2871
 3087TIP3    H230897   6.129   5.015   7.857  1.3108 -2.2609 -0.9462
 3088TIP3   OH230898   0.525   6.379   0.989 -0.6345  0.3684 -0.0541
 3088TIP3    H130899   0.519   6.470   1.018 -0.4565  0.4452 -0.2564
 3088TIP3    H230900   0.505   6.327   1.067 -2.0482  0.5944 -0.2408
 3089TIP3   OH230901   4.670   4.203   6.472  0.0869  0.0511 -0.0134
 3089TIP3    H130902   4.762   4.225   6.454  0.3642  1.0978  2.4825
 3089TIP3    H230903   4.674   4.151   6.552 -1.4252 -0.7977 -0.4871
 3090TIP3   OH230904   0.500   6.863   0.804 -0.3101 -0.6551  0.4249
 3090TIP3    H130905   0.585   6.835   0.838 -0.5562 -1.9181  0.0301
 3090TIP3    H230906   0.516   6.948   0.765  0.3743 -0.0061  2.0569
 3091TIP3   OH230907   6.151   5.513   1.012  0.5258 -0.0791 -0.2725
 3091TIP3    H130908   6.126   5.602   1.036  1.9569  0.7944 -1.9175
 3091TIP3    H230909   6.215   5.488   1.078 -1.1243 -0.5608  1.1926
 3092TIP3   OH230910   5.827   4.683   1.011  0.2547  0.0608  0.8105
 3092TIP3    H130911   5.830   4.769   1.054  1.8315 -0.5281  1.9476
 3092TIP3    H230912   5.919   4.658   1.002 -0.1919 -1.4265  0.3127
 3093TIP3   OH230913   1.506   0.567   7.055  0.1479  0.0397 -0.3668
 3093TIP3    H130914   1.420   0.594   7.023  0.2038  0.7781  0.0971
 3093TIP3    H230915   1.489   0.522   7.137  0.0427 -1.4938 -1.2089
 3094TIP3   OH230916   5.981   4.929   7.430 -0.2245 -0.2357 -0.4480
 3094TIP3    H130917   5.996   4.913   7.336 -1.3465 -0.4525 -0.5944
 3094TIP3    H230918   6.056   4.888   7.473  1.7102  2.1901 -1.4097
 3095TIP3   OH230919   0.412   2.905   1.249  0.2156 -0.4408  0.1791
 3095TIP3    H130920   0.324   2.880   1.277  0.4885 -2.6342 -0.7841
 3095TIP3    H230921   0.470   2.845   1.297  1.1941  1.1033  0.9449
 3096TIP3   OH230922   0.468   5.187   0.444  0.0338  0.1789  0.0114
 3096TIP3    H130923   0.408   5.219   0.376 -0.3089  0.1484  0.2943
 3096TIP3    H230924   0.439   5.232   0.524 -0.1070 -0.4204  0.3025
 3097TIP3   OH230925   0.003   3.557   7.136 -0.2540  0.4401 -0.3037
 3097TIP3    H130926   0.063   3.630   7.123 -0.0641  0.2045 -0.7677
 3097TIP3    H230927   0.016   3.501   7.060  0.4818 -0.6847  0.6154
 3098TIP3   OH230928   0.667   5.209   0.261 -0.1760 -0.2732  0.4484
 3098TIP3    H130929   0.720   5.274   0.307  0.8191 -1.7690  1.4763
 3098TIP3    H230930   0.608   5.174   0.328 -0.1966 -0.9267  0.0995
 3099TIP3   OH230931   0.348   6.294   7.043  0.2447 -0.0635  0.3101
 3099TIP3    H130932   0.254   6.296   7.023 -0.2979 -0.2507  2.6505
 3099TIP3    H230933   0.387   6.248   6.969 -1.0832  2.6190 -2.1923
 3100TIP3   OH230934   3.017   0.248   0.594  0.2608  0.4398  0.5699
 3100TIP3    H130935   3.053   0.181   0.652 -0.9835 -0.1665  0.6667
 3100TIP3    H230936   3.046   0.222   0.506  0.4029  0.1835  0.6929
 3101TIP3   OH230937   5.962   5.419   5.492  0.2307 -0.5121 -0.2679
 3101TIP3    H130938   5.964   5.511   5.521 -2.0711 -0.5893  0.1965
 3101TIP3    H230939   5.917   5.373   5.563 -0.6378 -1.6362 -1.5378
 3102TIP3   OH230940   6.529   5.537   1.484  0.7101 -0.2018  0.2200
 3102TIP3    H130941   6.496   5.616   1.528  1.2415  1.1136 -1.6732
 3102TIP3    H230942   6.614   5.521   1.526  0.6479  0.3052  0.5467
 3103TIP3   OH230943   6.174   6.348   7.914  0.1586 -0.4398 -0.1638
 3103TIP3    H130944   6.146   6.420   7.972  1.4304 -0.4657  0.5062
 3103TIP3    H230945   6.119   6.274   7.939 -0.5882  0.0815 -0.2734
 3104TIP3   OH230946   5.062   1.736   0.431 -0.5111  0.9362 -0.2247
 3104TIP3    H130947   5.136   1.795   0.447  0.1149  0.0906  0.0380
 3104TIP3    H230948   5.059   1.726   0.336  2.0159 -1.8891 -0.0889
 3105TIP3   OH230949   0.314   0.593   6.513 -0.1972  0.1098  0.2458
 3105TIP3    H130950   0.386   0.655   6.524  1.3295 -1.4634 -0.4930
 3105TIP3    H230951   0.261   0.629   6.443  0.3982  0.8400  0.1661
 3106TIP3   OH230952   1.086   1.542   7.592  0.2592  0.1493 -0.4654
 3106TIP3    H130953   1.159   1.481   7.603  0.6755 -0.1414 -4.3092
 3106TIP3    H230954   1.110   1.619   7.643  1.7355 -1.1992  0.9048
 3107TIP3   OH230955   1.120   0.239   7.406  0.0209  0.6975 -0.2675
 3107TIP3    H130956   1.180   0.167   7.427  0.2647  1.1555  0.6535
 3107TIP3    H230957   1.042   0.196   7.371 -0.4637 -0.1488  1.7479
 3108TIP3   OH230958   5.326   5.674   0.509  0.4042 -0.3425  0.1180
 3108TIP3    H130959   5.281   5.592   0.526 -0.0782  0.3877  2.5396
 3108TIP3    H230960   5.263   5.742   0.533  0.2423  0.7834 -3.2573
 3109TIP3   OH230961   7.094   2.357   7.773  0.6913 -0.3455 -0.1949
 3109TIP3    H130962   7.177   2.405   7.771  1.6826 -2.0298 -1.0528
 3109TIP3    H230963   7.104   2.294   7.844  0.2584 -0.7308 -0.4728
 3110TIP3   OH230964   7.156   5.106   0.703  0.2094 -0.2843  0.3746
 3110TIP3    H130965   7.239   5.060   0.710  1.3429  1.6738  0.2882
 3110TIP3    H230966   7.174   5.180   0.644 -1.7518 -0.1969 -0.1602
 3111TIP3   OH230967   0.584   4.039   7.784  0.5670  0.0411 -0.4154
 3111TIP3    H130968   0.631   3.961   7.814 -1.8847 -1.3410 -0.0333
 3111TIP3    H230969   0.587   4.033   7.689  0.8644 -0.2103 -0.3928
 3112TIP3   OH230970   6.511   5.571   5.820  0.2603 -0.2977  0.2489
 3112TIP3    H130971   6.475   5.576   5.731  0.7248  0.2866  0.0956
 3112TIP3    H230972   6.433   5.571   5.876 -0.0226  0.0017 -0.1312
 3113TIP3   OH230973   5.940   5.657   6.613 -0.0736 -0.3531 -0.0338
 3113TIP3    H130974   5.950   5.689   6.523 -0.1867 -0.5861 -0.1302
 3113TIP3    H230975   6.029   5.647   6.645 -0.0030 -1.6167 -0.5968
 3114TIP3   OH230976   2.055   4.341   7.128 -0.5156 -0.0580  0.2915
 3114TIP3    H130977   2.010   4.312   7.207 -2.0696  0.8174 -0.2394
 3114TIP3    H230978   2.018   4.288   7.058  0.8087 -0.7866  0.1193
 3115TIP3   OH230979   6.120   6.810   0.299 -0.2067 -0.4658 -0.2042
 3115TIP3    H130980   6.113   6.718   0.277  0.5914  0.0276 -2.7342
 3115TIP3    H230981   6.089   6.856   0.221  1.3031  1.3962  0.2382
 3116TIP3   OH230982   0.193   3.096   0.594 -0.3397  0.3525  0.3301
 3116TIP3    H130983   0.271   3.073   0.543 -0.5957 -0.3148  0.2341
 3116TIP3    H230984   0.211   3.062   0.682 -0.4356  0.3913  0.3647
 3117TIP3   OH230985   0.141   3.778   7.080 -0.2602  0.0248 -0.2304
 3117TIP3    H130986   0.159   3.758   6.988 -1.2822 -1.3849 -0.1516
 3117TIP3    H230987   0.115   3.870   7.080  1.3019  0.4843 -1.1229
 3118TIP3   OH230988   5.359   1.615   8.117 -0.2032 -0.0054 -0.0929
 3118TIP3    H130989   5.454   1.604   8.125 -0.1040  0.6584 -0.2923
 3118TIP3    H230990   5.344   1.617   8.022 -0.6335 -1.8681 -0.0850
 3119TIP3   OH230991   5.475   1.303   0.772  1.0453 -0.4152  0.0095
 3119TIP3    H130992   5.430   1.373   0.724  2.5560  0.3928 -0.2709
 3119TIP3    H230993   5.419   1.286   0.848  0.6384  1.0562  0.0532
 3120TIP3   OH230994   4.040   2.214   7.868  0.1469 -0.1768 -0.1386
 3120TIP3    H130995   3.967   2.152   7.866 -0.8063  0.9082  0.3331
 3120TIP3    H230996   4.112   2.166   7.910 -0.5790 -0.9652  0.2122
 3121TIP3   OH230997   0.982   5.428   6.728 -0.2754 -0.7058  0.3354
 3121TIP3    H130998   0.950   5.506   6.774  0.1845 -1.7095  2.4352
 3121TIP3    H230999   0.911   5.405   6.668 -0.9594  0.5516  0.6297
 3122TIP3   OH231000   2.742   3.691   2.053 -0.3359 -0.2718  0.1694
 3122TIP3    H131001   2.714   3.599   2.056 -0.5801 -0.2683 -1.6803
 3122TIP3    H231002   2.821   3.694   2.108 -1.9762 -0.9727  2.6389
 3123TIP3   OH231003   2.466   2.684   6.762 -0.1064 -0.2517  0.0015
 3123TIP3    H131004   2.445   2.597   6.729 -2.0493 -0.2351  1.1595
 3123TIP3    H231005   2.479   2.737   6.684 -0.3033 -1.2476 -0.7162
 3124TIP3   OH231006   0.294   5.265   0.243  0.0151 -0.6146 -0.4483
 3124TIP3    H131007   0.362   5.317   0.202 -0.7512  1.2329  0.5677
 3124TIP3    H231008   0.239   5.236   0.170 -1.0189  2.1744 -0.8464
 3125TIP3   OH231009   6.919   1.429   0.546  0.5528 -0.3596 -0.1379
 3125TIP3    H131010   6.994   1.383   0.509  0.7814  1.9730 -2.7202
 3125TIP3    H231011   6.957   1.499   0.599  0.2503  0.3308 -0.8091
 3126TIP3   OH231012   5.076   5.030   6.999 -0.2446 -0.2118 -0.3347
 3126TIP3    H131013   5.073   5.073   6.914 -0.9152  2.0461  0.8072
 3126TIP3    H231014   5.016   5.080   7.054 -0.6884 -2.3192  1.1864
 3127TIP3   OH231015   6.868   3.567   7.823 -0.1220  0.0103  0.0074
 3127TIP3    H131016   6.845   3.612   7.904  0.2282 -1.2199  0.8018
 3127TIP3    H231017   6.959   3.541   7.834 -0.2163 -0.5960 -0.5693
 3128TIP3   OH231018   0.694   5.890   0.089 -0.3503  0.1776 -0.3609
 3128TIP3    H131019   0.606   5.855   0.074 -0.1090 -0.9014  0.6974
 3128TIP3    H231020   0.738   5.881   0.005  0.3714 -3.9972  0.3798
 3129TIP3   OH231021   1.957   0.579   1.296 -0.0355 -0.2057 -0.3669
 3129TIP3    H131022   2.005   0.534   1.226  0.0127 -1.5500  0.5237
 3129TIP3    H231023   2.024   0.605   1.358 -0.2432 -0.3523 -0.0800
 3130TIP3   OH231024   3.475   0.758   6.146  0.3371 -0.0136  0.0009
 3130TIP3    H131025   3.502   0.723   6.062 -0.0656  3.1982 -1.5499
 3130TIP3    H231026   3.555   0.795   6.183  0.3395 -0.6615  0.6628
 3131TIP3   OH231027   0.926   6.543   6.797  0.3151 -1.0608 -0.0155
 3131TIP3    H131028   0.951   6.490   6.721  1.0253 -1.6040  0.5890
 3131TIP3    H231029   0.995   6.527   6.861 -0.1767 -0.4488  0.6787
 3132TIP3   OH231030   2.055   3.552   1.994  0.1288 -0.2191 -0.0380
 3132TIP3    H131031   1.973   3.593   1.966  0.6795  1.2242  0.4083
 3132TIP3    H231032   2.031   3.498   2.069 -0.5562 -0.4793 -0.4391
 3133TIP3   OH231033   1.775   6.103   7.447 -0.1215  0.4962  0.2627
 3133TIP3    H131034   1.760   6.010   7.465 -1.8237  0.9861  1.6403
 3133TIP3    H231035   1.790   6.141   7.534  0.3008  1.5334 -0.2654
 3134TIP3   OH231036   2.837   0.637   0.230 -0.5489  0.6173 -0.6519
 3134TIP3    H131037   2.860   0.682   0.149 -1.3094  1.6806 -0.2928
 3134TIP3    H231038   2.816   0.708   0.291 -0.9414 -0.2055  0.1733
 3135TIP3   OH231039   0.651   0.840   1.207 -0.2773 -0.4043  0.5794
 3135TIP3    H131040   0.592   0.866   1.278  0.3387  0.0062  0.9370
 3135TIP3    H231041   0.651   0.915   1.147  2.1950  0.8074  2.0531
 3136TIP3   OH231042   2.460   0.787   1.156  0.8668 -0.4852 -0.0180
 3136TIP3    H131043   2.514   0.836   1.218  1.1022 -1.4013  0.5204
 3136TIP3    H231044   2.521   0.757   1.089  0.7677 -0.2430 -0.2148
 3137TIP3   OH231045   0.942   7.084   1.469 -0.1113 -0.2646 -0.2304
 3137TIP3    H131046   0.948   7.045   1.556 -1.3933 -0.8054 -0.3852
 3137TIP3    H231047   0.944   7.178   1.485 -2.9082 -0.3092  0.5969
 3138TIP3   OH231048   2.342   6.130   6.563 -0.5341  0.2330  0.3080
 3138TIP3    H131049   2.385   6.215   6.561 -0.1748  0.0698  0.8099
 3138TIP3    H231050   2.270   6.137   6.500  0.7438  0.2321 -1.1788
 3139TIP3   OH231051   6.410   2.785   8.047 -0.2685 -0.2447  0.0785
 3139TIP3    H131052   6.484   2.725   8.044  0.3625  0.5720 -1.9204
 3139TIP3    H231053   6.334   2.730   8.030  0.1001 -0.8019  0.2361
 3140TIP3   OH231054   0.985   3.579   1.095 -0.2269  0.6335  0.2113
 3140TIP3    H131055   0.938   3.655   1.061 -2.4554 -0.3086  1.0740
 3140TIP3    H231056   0.931   3.550   1.169  0.3715 -2.0232 -0.3776
 3141TIP3   OH231057   2.040   1.232   6.682 -0.0243 -0.1385 -0.3879
 3141TIP3    H131058   2.045   1.153   6.736  1.9412  0.7939  0.8549
 3141TIP3    H231059   1.997   1.204   6.602 -1.9948 -1.8209  1.1947
 3142TIP3   OH231060   1.042   2.919   7.959 -0.3201 -0.0036 -0.4455
 3142TIP3    H131061   0.980   2.908   8.031  1.3910  1.1250  1.2232
 3142TIP3    H231062   1.127   2.929   8.001  0.9476 -0.9289 -2.6841
 3143TIP3   OH231063   0.811   5.237   7.288  0.3526  0.4007 -0.4652
 3143TIP3    H131064   0.899   5.267   7.264  0.3637 -0.6638 -1.8057
 3143TIP3    H231065   0.826   5.161   7.344  0.2887  0.7080 -0.0294
 3144TIP3   OH231066   4.972   4.873   1.631 -0.0007  0.2388 -0.3481
 3144TIP3    H131067   4.889   4.826   1.617 -0.2032  0.4701  0.0933
 3144TIP3    H231068   4.974   4.892   1.724  0.5487  0.2470 -0.3591
 3145TIP3   OH231069   4.643   0.328   6.613 -0.1298 -0.5173  0.1898
 3145TIP3    H131070   4.626   0.412   6.655  3.3268  0.4732 -0.2679
 3145TIP3    H231071   4.616   0.340   6.522 -1.2211 -0.4963  0.4995
 3146TIP3   OH231072   6.317   5.848   0.907  1.0514  0.0180  0.3505
 3146TIP3    H131073   6.293   5.940   0.901  0.2924 -0.1086  1.3912
 3146TIP3    H231074   6.270   5.815   0.983 -0.7197 -1.8699 -1.5018
 3147TIP3   OH231075   4.520   3.097   1.401  0.2935 -0.1109  0.5120
 3147TIP3    H131076   4.613   3.074   1.404  0.2502 -0.2068  1.2235
 3147TIP3    H231077   4.520   3.193   1.406  0.4309  0.0254 -1.5097
 3148TIP3   OH231078   3.745   3.538   7.927 -0.0955 -0.4428 -0.0653
 3148TIP3    H131079   3.805   3.466   7.907  1.6317  0.5184  1.5340
 3148TIP3    H231080   3.663   3.494   7.951  0.2569 -1.7974 -1.2420
 3149TIP3   OH231081   6.764   0.346   6.644  0.4090 -0.1531 -0.5349
 3149TIP3    H131082   6.842   0.311   6.687  1.6053 -1.8798 -3.9261
 3149TIP3    H231083   6.715   0.269   6.616 -0.1819  0.9170 -2.5230
 3150TIP3   OH231084   2.452   3.332   6.781  0.4939  0.0056  0.1155
 3150TIP3    H131085   2.499   3.300   6.858  0.7854  1.9575  0.7713
 3150TIP3    H231086   2.360   3.328   6.805  0.6412  1.8374  1.0875
 3151TIP3   OH231087   0.297   2.959   1.787 -0.8230  0.1496 -0.6712
 3151TIP3    H131088   0.341   2.934   1.868  0.2389  2.3953 -0.5202
 3151TIP3    H231089   0.211   2.918   1.792 -0.3062 -0.7412  1.0254
 3152TIP3   OH231090   2.175   4.957   7.403  0.3892 -0.0547 -0.8875
 3152TIP3    H131091   2.155   4.951   7.309 -0.0431  0.9304 -0.8693
 3152TIP3    H231092   2.208   5.046   7.414 -1.8388  0.6638  0.3071
 3153TIP3   OH231093   4.099   0.989   7.254 -0.3559 -0.0323 -0.1598
 3153TIP3    H131094   4.063   1.020   7.338  0.0987 -0.4661  0.1937
 3153TIP3    H231095   4.155   0.915   7.277 -1.1979 -0.9430 -0.9776
 3154TIP3   OH231096   3.626   0.637   7.900  0.2859  0.2622  0.1891
 3154TIP3    H131097   3.685   0.698   7.945 -0.2566 -0.2940  1.6879
 3154TIP3    H231098   3.567   0.606   7.968  0.8564 -2.3356 -0.4403
 3155TIP3   OH231099   2.261   2.542   7.649  0.3785 -1.0156 -0.4061
 3155TIP3    H131100   2.176   2.575   7.620  0.0418 -1.7408 -0.2578
 3155TIP3    H231101   2.325   2.597   7.605 -0.1580 -1.0929 -1.2861
 3156TIP3   OH231102   2.871   0.700   6.683  0.2405 -0.3959  0.6560
 3156TIP3    H131103   2.885   0.793   6.663  0.5199 -0.3094  1.2311
 3156TIP3    H231104   2.850   0.660   6.599  3.0934 -0.3636 -0.1222
 3157TIP3   OH231105   3.728   6.705   6.116  0.5630 -0.5386 -0.1470
 3157TIP3    H131106   3.705   6.796   6.132  1.5692 -0.7221  2.6702
 3157TIP3    H231107   3.645   6.657   6.120 -0.1070  0.3282 -2.6550
 3158TIP3   OH231108   2.259   0.943   8.074  0.0437 -0.3060  0.2324
 3158TIP3    H131109   2.173   0.901   8.078  0.0832 -0.3077  1.0925
 3158TIP3    H231110   2.262   1.001   8.150  1.8642 -2.3610  1.8111
 3159TIP3   OH231111   1.655   6.882   0.871 -0.1484  0.4792 -0.4044
 3159TIP3    H131112   1.585   6.921   0.818 -1.2947 -2.6806 -1.3071
 3159TIP3    H231113   1.715   6.843   0.807  0.8394  0.5317  0.4767
 3160TIP3   OH231114   3.925   2.693   7.722 -0.7530 -0.2172  0.2138
 3160TIP3    H131115   3.847   2.643   7.746 -1.3735  0.4766 -0.3367
 3160TIP3    H231116   3.996   2.628   7.722 -1.1132 -0.6304  1.8389
 3161TIP3   OH231117   3.771   2.264   0.559  0.0287  0.0942 -0.4766
 3161TIP3    H131118   3.744   2.234   0.472 -0.6390  0.1615 -0.3002
 3161TIP3    H231119   3.734   2.352   0.566 -1.5630 -0.6356  0.6159
 3162TIP3   OH231120   4.080   1.009   1.296  0.1434 -0.6965  0.2316
 3162TIP3    H131121   4.046   0.941   1.354 -2.1545  1.3449  1.3736
 3162TIP3    H231122   4.118   1.074   1.354 -1.7119  1.1277 -0.5359
 3163TIP3   OH231123   3.831   2.389   1.171 -0.2870  0.0087  1.4130
 3163TIP3    H131124   3.795   2.345   1.094  0.0660 -0.5414  1.5621
 3163TIP3    H231125   3.830   2.323   1.240 -0.2028  0.3735  1.7688
 3164TIP3   OH231126   3.065   2.498   7.565  0.4972 -0.4180 -0.6833
 3164TIP3    H131127   3.147   2.457   7.595  1.1454  0.8219 -0.7248
 3164TIP3    H231128   2.996   2.446   7.607  1.3177 -1.1292 -0.1867
 3165TIP3   OH231129   1.250   3.498   1.560 -0.5038 -0.9629 -0.4012
 3165TIP3    H131130   1.276   3.509   1.469 -0.7958  0.2350 -0.3548
 3165TIP3    H231131   1.276   3.409   1.583  2.2521 -0.2968 -0.7869
 3166TIP3   OH231132   0.621   0.678   6.920  0.0023  0.4277 -0.2830
 3166TIP3    H131133   0.551   0.625   6.959  1.2860 -0.2300  1.1900
 3166TIP3    H231134   0.701   0.643   6.958  1.1919  0.8666 -2.2862
 3167TIP3   OH231135   0.377   4.745   6.816  0.2840 -0.4365  0.0856
 3167TIP3    H131136   0.387   4.840   6.827 -2.4182 -0.0423 -0.5219
 3167TIP3    H231137   0.330   4.717   6.895 -0.3675 -0.9795 -0.4897
 3168TIP3   OH231138   3.175   2.813   1.588 -0.0267 -0.0808 -0.0705
 3168TIP3    H131139   3.227   2.828   1.667  0.1290  1.4941 -0.4615
 3168TIP3    H231140   3.237   2.776   1.525  0.0558 -0.4829  0.2432
 3169TIP3   OH231141   4.429   1.053   7.533  0.1509 -0.0001  0.2327
 3169TIP3    H131142   4.432   0.957   7.539  0.1353  0.0515  1.2278
 3169TIP3    H231143   4.346   1.076   7.574  0.3917  0.4696  0.4564
 3170TIP3   OH231144   2.677   1.699   5.706  0.3769  0.4660  1.1956
 3170TIP3    H131145   2.693   1.728   5.795  0.8916  1.4712  0.7858
 3170TIP3    H231146   2.585   1.723   5.689  0.0334 -0.4505  1.7174
 3171TIP3   OH231147   3.929   0.571   0.097  0.1098 -0.0810 -0.1060
 3171TIP3    H131148   3.954   0.644   0.040 -1.6954  1.3335  0.8580
 3171TIP3    H231149   3.864   0.523   0.047 -0.8926  0.7060  0.4229
 3172TIP3   OH231150   2.105   1.477   5.891 -1.3799  0.0086 -0.5937
 3172TIP3    H131151   2.126   1.498   5.982 -1.4949 -0.4216 -0.4676
 3172TIP3    H231152   2.010   1.474   5.888 -1.3531 -3.3750  0.0673
 3173TIP3   OH231153   5.955   2.547   8.125  0.3955  0.1239  0.0959
 3173TIP3    H131154   5.950   2.452   8.132 -0.4906  0.0445 -1.5157
 3173TIP3    H231155   5.864   2.576   8.133  0.3643  0.6503 -1.9105
 3174TIP3   OH231156   4.070   0.305   7.977  0.2272 -0.4067  0.4478
 3174TIP3    H131157   3.989   0.352   7.958  0.1975 -0.2238  1.0328
 3174TIP3    H231158   4.060   0.274   8.067  1.0377  0.1016  0.7228
 3175TIP3   OH231159   1.160   1.093   7.559  0.0426  0.4312 -0.3942
 3175TIP3    H131160   1.189   1.148   7.487 -0.4429 -0.2422 -1.1057
 3175TIP3    H231161   1.123   1.155   7.623 -1.8993  0.7983 -1.8474
 3176TIP3   OH231162   5.398   2.606   1.263  0.2216  0.4108  0.2327
 3176TIP3    H131163   5.437   2.564   1.185 -0.5122  0.7339 -0.3126
 3176TIP3    H231164   5.401   2.538   1.330  1.5230  0.3551  0.1364
 3177TIP3   OH231165   6.432   5.433   6.350 -0.0859  0.2044 -0.1748
 3177TIP3    H131166   6.397   5.520   6.367 -2.0711 -0.7207  0.6463
 3177TIP3    H231167   6.379   5.400   6.277  2.6990  0.8477 -2.5428
 3178TIP3   OH231168   0.135   0.532   7.127 -0.0613 -0.2008  0.0085
 3178TIP3    H131169   0.163   0.493   7.044  2.9068  0.3079  0.7165
 3178TIP3    H231170   0.128   0.458   7.187  0.1170 -0.2818 -0.0712
 3179TIP3   OH231171   1.916   1.409   7.404 -0.0763  0.1947  0.4507
 3179TIP3    H131172   1.883   1.440   7.320  1.7581  1.2856  0.1172
 3179TIP3    H231173   1.886   1.474   7.468 -1.0745 -0.3877  0.5797
 3180TIP3   OH231174   0.341   0.179   1.836 -0.3422 -0.2069  0.4121
 3180TIP3    H131175   0.355   0.270   1.812  0.6212 -0.7142 -1.0290
 3180TIP3    H231176   0.326   0.181   1.931 -0.8365  1.4880  0.3115
 3181TIP3   OH231177   2.156   2.197   0.367  1.2405 -0.0322 -0.2766
 3181TIP3    H131178   2.123   2.118   0.323 -0.8872 -1.6300  3.7908
 3181TIP3    H231179   2.098   2.267   0.337 -1.6673 -1.5243  1.5689
 3182TIP3   OH231180   3.601   3.698   7.722  0.8285  0.4349  0.1555
 3182TIP3    H131181   3.518   3.699   7.771  0.8653  0.4268  0.2179
 3182TIP3    H231182   3.661   3.648   7.778  0.9869  0.7761  0.2912
 3183TIP3   OH231183   4.355   1.775   7.259  0.1455 -0.5778 -0.1897
 3183TIP3    H131184   4.359   1.743   7.168  3.1634  3.0101 -1.4512
 3183TIP3    H231185   4.409   1.713   7.308  0.1678 -1.3881 -1.2021
 3184TIP3   OH231186   2.571   0.443   1.272  0.6752  0.0485  0.0440
 3184TIP3    H131187   2.547   0.367   1.326 -0.6154  1.2672  1.2201
 3184TIP3    H231188   2.570   0.517   1.333  0.8078  1.1999 -1.3290
 3185TIP3   OH231189   0.940   1.557   6.873 -0.3525  0.3902 -0.2296
 3185TIP3    H131190   0.994   1.530   6.799  0.5469  1.1765  0.1202
 3185TIP3    H231191   0.868   1.607   6.834 -1.3020 -1.3724 -0.7656
 3186TIP3   OH231192   1.317   2.682   7.140 -0.2496  0.4664  0.4918
 3186TIP3    H131193   1.282   2.756   7.189  0.9225  1.9224 -0.8283
 3186TIP3    H231194   1.251   2.663   7.074  0.0744  1.2758 -0.0771
 3187TIP3   OH231195   3.988   4.757   7.901 -0.8521  0.7191 -0.9720
 3187TIP3    H131196   3.931   4.832   7.915 -0.6704  0.6613  0.0906
 3187TIP3    H231197   3.973   4.701   7.977  0.9265  0.8881 -0.4802
 3188TIP3   OH231198   5.006   0.590   7.958  0.1505  0.3684  0.0045
 3188TIP3    H131199   4.913   0.604   7.973  0.2246 -1.2286  2.1369
 3188TIP3    H231200   5.047   0.672   7.985 -0.5131  0.5796  0.3765
 3189TIP3   OH231201   0.014   6.648   6.109  0.6461  0.0068  0.1282
 3189TIP3    H131202   0.052   6.720   6.158 -2.3130  2.0186 -0.3795
 3189TIP3    H231203   0.077   6.630   6.039  2.4129  0.6281  1.5207
 3190TIP3   OH231204   3.221   0.032   1.245 -0.1556 -0.3446 -0.0560
 3190TIP3    H131205   3.255  -0.051   1.278 -2.1929 -1.1463  0.1150
 3190TIP3    H231206   3.156   0.007   1.179 -0.2169  1.1373 -0.5864
 3191TIP3   OH231207   2.579   0.533   7.139  0.2324  0.2850 -0.1480
 3191TIP3    H131208   2.484   0.537   7.135  0.0568 -2.8105  0.4006
 3191TIP3    H231209   2.608   0.602   7.079 -2.3156  2.5244  1.1091
 3192TIP3   OH231210   4.715   7.058   6.174 -0.4208  0.2732  0.0959
 3192TIP3    H131211   4.755   6.973   6.156 -0.7209 -0.2076  1.6265
 3192TIP3    H231212   4.640   7.061   6.115 -1.0762 -1.0396  0.8293
 3193TIP3   OH231213   0.761   1.871   1.097  0.3910 -0.4419  0.3956
 3193TIP3    H131214   0.788   1.785   1.065 -0.8760 -1.1802  1.2327
 3193TIP3    H231215   0.698   1.902   1.032  0.3390 -0.4473  0.4435
 3194TIP3   OH231216   4.709   2.856   6.111  0.1405  0.1850  0.1558
 3194TIP3    H131217   4.740   2.947   6.108  0.3973  0.2067  2.8416
 3194TIP3    H231218   4.749   2.814   6.035  0.0084  2.3059 -1.1306
 3195TIP3   OH231219   4.197   0.344   0.517 -0.4806 -0.4321  0.5044
 3195TIP3    H131220   4.172   0.364   0.427 -2.5685  0.8834  1.3320
 3195TIP3    H231221   4.128   0.384   0.570  1.3953 -0.0849  2.7517
 3196TIP3   OH231222   0.713   4.815   6.664 -0.1033  0.2201 -0.1502
 3196TIP3    H131223   0.648   4.831   6.596 -0.0592  0.2791 -0.1775
 3196TIP3    H231224   0.696   4.883   6.730  0.5641  0.8279 -0.6078
 3197TIP3   OH231225   3.563   0.888   1.786  0.1399  0.1231  0.2245
 3197TIP3    H131226   3.497   0.821   1.771  1.1246 -0.8042 -0.0296
 3197TIP3    H231227   3.646   0.840   1.791  0.7770  1.2452  0.7166
 3198TIP3   OH231228   4.152   5.714   7.590 -0.7308  0.1817 -0.8070
 3198TIP3    H131229   4.118   5.795   7.551  0.5805  0.3209 -1.7067
 3198TIP3    H231230   4.089   5.647   7.564 -0.5182  0.4882 -2.1476
 3199TIP3   OH231231   0.170   1.249   7.797 -0.4820 -0.8826  0.0069
 3199TIP3    H131232   0.186   1.207   7.881  0.6991 -0.1993  0.1346
 3199TIP3    H231233   0.248   1.229   7.745 -0.6113 -0.1797 -0.4708
 3200TIP3   OH231234   5.301   1.866   0.497  0.1200  0.3081 -0.0560
 3200TIP3    H131235   5.311   1.947   0.447  1.9254  0.2191  0.1358
 3200TIP3    H231236   5.371   1.809   0.465 -0.8243 -1.0102  0.1700
 3201TIP3   OH231237   5.151   1.756   7.202 -0.0196 -0.2075 -0.3071
 3201TIP3    H131238   5.071   1.798   7.234 -0.6126 -0.2201 -1.7466
 3201TIP3    H231239   5.216   1.826   7.199 -0.0745 -0.1117  0.4589
 3202TIP3   OH231240   2.311   2.227   1.815  0.2608 -0.4758 -0.6400
 3202TIP3    H131241   2.237   2.259   1.764  0.8524  0.5491 -0.8664
 3202TIP3    H231242   2.313   2.283   1.892  0.6653 -0.6519 -0.5196
 3203TIP3   OH231243   2.197   6.512   6.587  0.2242  0.5015 -0.1878
 3203TIP3    H131244   2.160   6.590   6.628  0.1791 -0.3971  1.5552
 3203TIP3    H231245   2.156   6.439   6.635  1.7905 -0.5509 -0.4106
 3204TIP3   OH231246   5.249   6.681   1.689  0.2647  0.4322 -0.0570
 3204TIP3    H131247   5.268   6.753   1.749  0.3386  0.7779 -0.4969
 3204TIP3    H231248   5.316   6.615   1.709 -1.0399 -0.3757  1.7505
 3205TIP3   OH231249   4.017   3.181   1.210 -0.2916  0.6874 -0.2012
 3205TIP3    H131250   3.986   3.228   1.133 -3.1166 -0.0335  0.4233
 3205TIP3    H231251   3.994   3.090   1.194 -0.2211  0.4171  1.1519
 3206TIP3   OH231252   0.199   0.075   0.784  0.9802  0.1840  0.0081
 3206TIP3    H131253   0.106   0.051   0.787  0.0304  3.5207  0.1093
 3206TIP3    H231254   0.217   0.111   0.870  2.0440  0.6144 -0.3918
 3207TIP3   OH231255   3.678   6.316   1.706  0.3013  0.0694  0.2774
 3207TIP3    H131256   3.774   6.311   1.701  0.2927 -0.0345  0.2232
 3207TIP3    H231257   3.661   6.401   1.746  0.3758  0.6022 -0.8352
 3208TIP3   OH231258   5.894   6.294   8.028  0.2524 -0.0496 -0.0452
 3208TIP3    H131259   5.855   6.370   7.984 -0.2500  0.5713  1.4370
 3208TIP3    H231260   5.835   6.222   8.009  0.7856 -0.1086 -1.5485
 3209TIP3   OH231261   5.351   0.475   7.815  0.1757 -0.3144 -0.0560
 3209TIP3    H131262   5.346   0.380   7.798  0.0241 -0.2056 -0.6296
 3209TIP3    H231263   5.344   0.482   7.910  0.1466 -0.8813 -0.0116
 3210TIP3   OH231264   0.292   5.294   0.908 -0.0744 -0.1611 -0.3376
 3210TIP3    H131265   0.211   5.249   0.931  0.2134  0.0605  1.1095
 3210TIP3    H231266   0.338   5.306   0.991  1.6341 -0.6391 -1.1846
 3211TIP3   OH231267   4.966   1.092   0.671 -0.0488 -0.2733  0.1759
 3211TIP3    H131268   4.999   1.124   0.755  0.7065 -2.6860  0.8631
 3211TIP3    H231269   4.872   1.111   0.672 -0.0792 -0.4765  1.6743
 3212TIP3   OH231270   3.904   0.772   6.724 -0.6560  0.7527 -0.2802
 3212TIP3    H131271   3.818   0.734   6.744  0.0480 -0.1747  1.0413
 3212TIP3    H231272   3.955   0.698   6.691 -0.2037  1.1951 -0.5651
 3213TIP3   OH231273   1.676   0.786   7.081 -0.0855 -0.8306 -0.1002
 3213TIP3    H131274   1.637   0.700   7.092  0.8483 -1.1531  0.7688
 3213TIP3    H231275   1.620   0.845   7.130 -0.8683 -0.8934 -0.9020
 3214TIP3   OH231276   2.457   5.972   8.032  0.6015 -0.2972 -0.1424
 3214TIP3    H131277   2.394   5.934   7.969  1.3263 -1.0539 -0.4237
 3214TIP3    H231278   2.408   6.041   8.076  0.0639  0.2214 -1.5259
 3215TIP3   OH231279   5.772   1.541   1.291 -0.4775  0.0458  0.2501
 3215TIP3    H131280   5.756   1.634   1.271  1.4566  0.0012 -1.6461
 3215TIP3    H231281   5.693   1.496   1.260  0.0589  0.6731 -2.1789
 3216TIP3   OH231282   5.682   5.907   0.708 -0.4129  0.0282 -0.1800
 3216TIP3    H131283   5.686   5.898   0.613  1.8192 -0.4846 -0.0568
 3216TIP3    H231284   5.730   5.831   0.741  1.5024  1.8285  1.2720
 3217TIP3   OH231285   4.517   1.121   1.193  0.1719 -0.0543  0.0692
 3217TIP3    H131286   4.524   1.098   1.286 -0.5806  2.1134  0.6899
 3217TIP3    H231287   4.593   1.079   1.153 -0.9406 -3.2613  1.1568
 3218TIP3   OH231288   3.707   1.385   0.525 -0.2635 -0.3763  0.4581
 3218TIP3    H131289   3.615   1.364   0.512 -0.1475 -0.8915  0.4629
 3218TIP3    H231290   3.723   1.461   0.469 -0.5795 -0.5582  0.1240
 3219TIP3   OH231291   0.019   0.621   7.386  0.0174 -0.3540 -0.6253
 3219TIP3    H131292   0.031   0.585   7.298  0.3043  3.2919 -2.1727
 3219TIP3    H231293  -0.057   0.576   7.421 -0.7985 -1.0481 -3.2103
 3220TIP3   OH231294   4.079   6.552   1.575 -0.3280 -0.4119 -0.0640
 3220TIP3    H131295   4.104   6.528   1.486 -0.0679  0.5662 -0.2534
 3220TIP3    H231296   4.160   6.547   1.625 -0.0245  1.2538 -0.3600
 3221TIP3   OH231297   4.256   0.255   0.209 -0.5038  0.1615 -0.3668
 3221TIP3    H131298   4.177   0.245   0.155 -0.4105  0.4448 -0.5552
 3221TIP3    H231299   4.258   0.175   0.262 -1.7650  0.8725  0.7606
 3222TIP3   OH231300   3.896   1.142   7.815 -0.3061 -0.1198 -0.0844
 3222TIP3    H131301   3.987   1.150   7.786 -0.5017 -0.7615 -0.8941
 3222TIP3    H231302   3.902   1.104   7.902  0.1924 -0.5686 -0.3092
 3223TIP3   OH231303   2.045   6.902   7.850  0.2877  0.0524  0.1143
 3223TIP3    H131304   2.107   6.975   7.851  1.6308 -1.0213 -1.4411
 3223TIP3    H231305   2.097   6.827   7.822 -1.8692 -0.7350 -1.9455
 3224TIP3   OH231306   6.235   6.965   8.010  0.1233  0.0567 -0.5290
 3224TIP3    H131307   6.306   6.930   8.064 -0.1974  1.7536  1.0513
 3224TIP3    H231308   6.155   6.936   8.054 -0.1418  1.0592 -0.3270
 3225TIP3   OH231309   3.463   5.882   1.918 -0.5437  0.2056  0.3308
 3225TIP3    H131310   3.388   5.899   1.974 -0.8425 -1.5575  0.4951
 3225TIP3    H231311   3.504   5.968   1.904 -1.5502  0.9044  1.6913
 3226TIP3   OH231312   2.141   4.291   0.280 -0.0837 -0.0651 -0.3138
 3226TIP3    H131313   2.146   4.198   0.256  1.5025 -0.2615  0.7622
 3226TIP3    H231314   2.171   4.337   0.201  1.3843 -0.5627 -0.0587
 3227TIP3   OH231315   5.137   6.074   6.756 -0.4471 -0.0711  0.3305
 3227TIP3    H131316   5.139   5.981   6.778 -0.0545  0.1923  1.4154
 3227TIP3    H231317   5.212   6.086   6.698  0.5816 -0.0721  1.6449
 3228TIP3   OH231318   5.812   1.161   1.302 -0.0185 -0.2619  0.0899
 3228TIP3    H131319   5.834   1.186   1.392 -0.3388 -0.7223  0.3028
 3228TIP3    H231320   5.797   1.066   1.307 -0.8373 -0.1607 -0.2838
 3229TIP3   OH231321   3.241   3.375   0.412 -0.0663  0.3132  0.6703
 3229TIP3    H131322   3.215   3.290   0.446  0.1209 -0.6624 -1.5143
 3229TIP3    H231323   3.337   3.373   0.413 -0.0427 -0.2242 -1.0325
 3230TIP3   OH231324   4.319   6.991   8.063  0.3299  0.1493 -0.2284
 3230TIP3    H131325   4.231   7.014   8.033  0.7298 -0.1105 -1.6747
 3230TIP3    H231326   4.353   7.070   8.103 -0.4836  0.3205  0.1277
 3231TIP3   OH231327   2.788   7.007   0.549 -0.3337 -0.3122 -0.3649
 3231TIP3    H131328   2.765   6.988   0.640 -3.5817 -0.5334 -1.1698
 3231TIP3    H231329   2.864   7.065   0.555 -1.2832  0.7421  2.5361
 3232TIP3   OH231330   5.552   4.966   7.774 -0.3336  0.0926 -0.4403
 3232TIP3    H131331   5.486   4.976   7.705 -0.5937  1.4421 -0.0047
 3232TIP3    H231332   5.633   4.999   7.734 -0.2537 -0.1270 -0.4585
 3233TIP3   OH231333   3.780   3.106   6.417  0.2068 -0.4790 -0.3951
 3233TIP3    H131334   3.781   3.103   6.513  0.7111 -0.2383 -0.3920
 3233TIP3    H231335   3.730   3.184   6.395  0.6690 -0.1593 -0.3183
 3234TIP3   OH231336   2.849   1.753   6.320 -0.3756 -0.4265  0.0334
 3234TIP3    H131337   2.755   1.771   6.322 -0.6606 -1.8813  0.9021
 3234TIP3    H231338   2.873   1.742   6.412  0.2933 -1.6860 -0.2725
 3235TIP3   OH231339   5.670   2.858   0.207 -0.2706 -0.7545  0.0371
 3235TIP3    H131340   5.685   2.913   0.130 -0.6429  0.1529  0.6080
 3235TIP3    H231341   5.720   2.900   0.277 -0.1430 -1.4329  0.3571
 3236TIP3   OH231342   0.043   5.963   0.573  0.3307  0.1848 -0.3214
 3236TIP3    H131343  -0.027   6.028   0.577 -0.5648 -0.8438  0.8303
 3236TIP3    H231344   0.015   5.902   0.505  0.9120  0.6781 -1.0175
 3237TIP3   OH231345   5.077   6.078   1.101 -0.9626  0.2078  0.0101
 3237TIP3    H131346   4.993   6.124   1.100  0.6905  3.3435  0.6300
 3237TIP3    H231347   5.129   6.121   1.033  1.7517  1.5203  2.7907
 3238TIP3   OH231348   4.517   2.189   6.273 -0.3055  0.3436 -0.1042
 3238TIP3    H131349   4.492   2.247   6.345 -0.7326  0.3251 -0.2322
 3238TIP3    H231350   4.601   2.223   6.242  1.1234 -1.1379  2.0114
 3239TIP3   OH231351   1.119   0.052   1.781 -1.1358  0.2023 -0.5047
 3239TIP3    H131352   1.053   0.102   1.734 -1.2024  1.8106  1.2439
 3239TIP3    H231353   1.084   0.043   1.870  0.9991  1.2029  0.4924
 3240TIP3   OH231354   5.785   1.605   1.563 -0.0610 -0.9459 -0.1928
 3240TIP3    H131355   5.818   1.572   1.480  1.7398  0.7625 -0.2071
 3240TIP3    H231356   5.857   1.590   1.625 -0.9348 -1.1342  0.7854
 3241TIP3   OH231357   5.289   6.113   6.403  0.4322  0.0328  0.4362
 3241TIP3    H131358   5.295   6.020   6.384 -1.1149 -0.1005  0.5014
 3241TIP3    H231359   5.244   6.150   6.327 -0.9284  0.3556  1.3834
 3242TIP3   OH231360   4.263   0.103   7.354  0.2944 -0.5806  0.3129
 3242TIP3    H131361   4.190   0.084   7.412 -1.5624 -0.5492 -1.9473
 3242TIP3    H231362   4.231   0.080   7.267  1.9130  2.2640 -1.1107
 3243TIP3   OH231363   5.024   0.661   6.001 -0.1659 -0.1733 -0.1442
 3243TIP3    H131364   5.088   0.731   6.006  0.3381 -0.6607  0.2830
 3243TIP3    H231365   5.057   0.602   5.933 -1.2241  0.6301 -1.3825
 3244TIP3   OH231366   2.825   3.239   6.821  0.3255 -0.1357  0.3197
 3244TIP3    H131367   2.867   3.193   6.894 -0.1939  0.0226  0.7215
 3244TIP3    H231368   2.735   3.252   6.849  0.0244 -0.3976 -0.5081
 3245TIP3   OH231369   3.670   6.873   6.680 -0.4912 -0.1022  0.2121
 3245TIP3    H131370   3.674   6.912   6.592  0.1250 -1.3246 -0.3147
 3245TIP3    H231371   3.578   6.878   6.704 -0.8102 -0.5415 -0.8745
 3246TIP3   OH231372   6.768   2.072   2.098  0.1368  0.3558  0.1747
 3246TIP3    H131373   6.710   2.094   2.171 -0.8504 -1.0348 -0.1537
 3246TIP3    H231374   6.850   2.115   2.119  0.8540 -2.4248  3.6567
 3247TIP3   OH231375   2.072   1.896   7.056 -0.2242 -0.1504 -0.2203
 3247TIP3    H131376   2.098   1.845   6.979  1.0343  0.1550 -0.0086
 3247TIP3    H231377   2.091   1.838   7.130 -1.6765 -0.5439 -0.1437
 3248TIP3   OH231378   5.771   0.451   0.744 -0.4885  0.2241  0.9810
 3248TIP3    H131379   5.833   0.408   0.802  2.7833  0.5333 -2.1256
 3248TIP3    H231380   5.782   0.545   0.761 -1.2330  0.2296  1.4772
 3249TIP3   OH231381   6.107   5.950   1.379 -0.0134  0.2452 -0.0635
 3249TIP3    H131382   6.152   5.953   1.464 -2.0668 -0.5461  1.0890
 3249TIP3    H231383   6.178   5.942   1.315  1.4998 -0.9591  1.6895
 3250TIP3   OH231384   4.705   0.229   1.269 -0.2044 -0.1580  0.0317
 3250TIP3    H131385   4.643   0.287   1.314 -0.6704  0.3637 -1.2339
 3250TIP3    H231386   4.736   0.281   1.195  0.7718 -0.8849 -0.0780
 3251TIP3   OH231387   5.013   1.773   6.375 -0.1505  0.6698 -0.0867
 3251TIP3    H131388   5.069   1.747   6.449 -0.5099  2.5318  0.8743
 3251TIP3    H231389   5.034   1.865   6.361 -2.7888  1.3241  0.1265
 3252TIP3   OH231390   1.853   4.031   0.676  0.2637 -0.0028 -0.0958
 3252TIP3    H131391   1.856   3.974   0.752  0.5315  0.0351 -0.0792
 3252TIP3    H231392   1.778   4.000   0.626 -0.6469  0.7289  0.7830
 3253TIP3   OH231393   6.652   4.111   6.446 -0.0679  0.2487 -0.1082
 3253TIP3    H131394   6.600   4.082   6.371 -0.2854  0.5367 -0.0713
 3253TIP3    H231395   6.737   4.136   6.408  0.4483 -1.3424 -0.0056
 3254TIP3   OH231396   6.930   3.688   6.069 -0.0326 -0.0152  0.0033
 3254TIP3    H131397   6.912   3.604   6.113  0.5696  0.5122  1.2859
 3254TIP3    H231398   6.954   3.663   5.980 -3.7156 -0.9567 -0.8026
 3255TIP3   OH231399   4.777   0.434   0.817 -0.5392  0.7978  0.1553
 3255TIP3    H131400   4.855   0.485   0.837  1.2276 -2.1310  1.1067
 3255TIP3    H231401   4.797   0.346   0.850 -2.0612 -1.4332 -4.4223
 3256TIP3   OH231402   2.112   6.353   7.054  0.1403  0.3001 -0.0387
 3256TIP3    H131403   2.148   6.266   7.034 -1.3175 -0.6216  1.2102
 3256TIP3    H231404   2.051   6.337   7.126  1.4170  2.7022  1.6244
 3257TIP3   OH231405   6.575   5.509   7.994  0.2526 -0.0116  0.7291
 3257TIP3    H131406   6.530   5.427   8.015 -1.8061  0.6999 -0.7240
 3257TIP3    H231407   6.543   5.532   7.907 -0.8514  3.4032  1.9475
 3258TIP3   OH231408   5.024   0.298   2.077 -0.2129  0.4898 -0.4588
 3258TIP3    H131409   5.006   0.390   2.100  1.5070  1.0811 -1.3285
 3258TIP3    H231410   5.054   0.258   2.159 -0.4762  0.8516 -0.1852
 3259TIP3   OH231411   5.885   7.062   7.307 -0.1172 -0.0483  0.3285
 3259TIP3    H131412   5.807   7.119   7.303  0.8746  1.2525 -0.9669
 3259TIP3    H231413   5.935   7.095   7.381  0.0628  0.2628  0.0707
 3260TIP3   OH231414   5.173   0.238   0.997 -0.1087 -0.5038 -0.0162
 3260TIP3    H131415   5.206   0.306   1.057  0.1411 -0.1883 -0.5022
 3260TIP3    H231416   5.078   0.244   1.004 -0.0894 -0.0316 -0.1358
 3261TIP3   OH231417   1.286   6.814   0.611 -0.1968  0.2108  0.3075
 3261TIP3    H131418   1.338   6.854   0.680  1.0017 -0.1683 -0.3699
 3261TIP3    H231419   1.342   6.816   0.534 -1.8231  1.3540 -0.8648
 3262TIP3   OH231420   0.055   0.941   7.032  0.2958  0.7191  0.3161
 3262TIP3    H131421   0.122   1.002   7.064  1.2362 -0.2183  0.1297
 3262TIP3    H231422   0.068   0.938   6.937  2.2485 -2.1017  0.6238
 3263TIP3   OH231423   1.134   0.323   1.427 -0.0552 -0.4924  0.1368
 3263TIP3    H131424   1.172   0.410   1.421 -0.7234 -0.0979  1.2554
 3263TIP3    H231425   1.177   0.272   1.359  1.4522  0.3032  0.4852
 3264TIP3   OH231426   2.142   1.023   6.830  0.2724 -0.2543 -0.0559
 3264TIP3    H131427   2.236   1.020   6.812  0.3503  0.3319  0.2739
 3264TIP3    H231428   2.135   1.060   6.918 -0.2044 -1.4664  0.4305
 3265TIP3   OH231429   7.138   1.233   1.588 -0.2116  0.8748 -0.6229
 3265TIP3    H131430   7.146   1.207   1.497 -0.5354  0.3546 -0.5074
 3265TIP3    H231431   7.214   1.288   1.605  1.0606 -0.8297 -0.5865
 3266TIP3   OH231432   2.718   5.860   0.500 -0.3131 -0.1889  0.1521
 3266TIP3    H131433   2.767   5.942   0.501 -0.1380 -0.2811 -0.4525
 3266TIP3    H231434   2.631   5.882   0.533  0.3799 -0.1744  2.0040
 3267TIP3   OH231435   1.958   2.073   1.328  0.1151  0.7047  0.3910
 3267TIP3    H131436   1.907   1.995   1.346  0.4556  0.1850 -0.7863
 3267TIP3    H231437   1.895   2.145   1.328 -0.5804  0.1139 -0.7214
 3268TIP3   OH231438   1.216   2.024   0.082 -0.2418 -0.2701 -0.1549
 3268TIP3    H131439   1.269   2.086   0.032 -0.7227  0.5270  0.3154
 3268TIP3    H231440   1.259   2.020   0.168 -0.8060  0.2038  0.1529
 3269TIP3   OH231441   1.754   1.542   7.567 -0.1073 -0.2995 -0.2109
 3269TIP3    H131442   1.682   1.573   7.622 -0.4335  0.3040 -0.9806
 3269TIP3    H231443   1.833   1.557   7.620 -0.3969  0.5115 -0.0046
 3270TIP3   OH231444   0.521   0.717   6.088 -0.3171  0.1401 -0.2902
 3270TIP3    H131445   0.602   0.727   6.038  0.3546 -0.6434  0.6240
 3270TIP3    H231446   0.471   0.650   6.041  0.0996 -0.2444 -0.1869
 3271TIP3   OH231447   6.961   4.554   6.329 -0.1706 -0.0310  0.1587
 3271TIP3    H131448   7.046   4.581   6.364 -0.2423  1.0272 -0.4604
 3271TIP3    H231449   6.980   4.520   6.242 -0.5790  1.8813 -0.7108
 3272TIP3   OH231450   0.787   0.963   7.239 -0.9236 -0.2210 -0.0304
 3272TIP3    H131451   0.730   0.915   7.178  0.4035 -2.7020  0.6032
 3272TIP3    H231452   0.808   0.899   7.307  2.3888  0.7082 -0.0985
 3273TIP3   OH231453   0.341   0.692   1.848  0.3135  0.3067 -0.2980
 3273TIP3    H131454   0.333   0.599   1.825  0.0667  0.1195  0.4999
 3273TIP3    H231455   0.309   0.696   1.938  1.5398  0.9455  0.1256
 3274TIP3   OH231456   4.947   6.906   6.551 -0.4259  0.5468 -0.3417
 3274TIP3    H131457   5.031   6.860   6.561 -1.3314 -1.7202 -2.7254
 3274TIP3    H231458   4.961   6.965   6.477 -0.4146  1.4277  0.3577
 3275TIP3   OH231459   1.695   5.625   6.701  0.0105 -0.7567 -0.0784
 3275TIP3    H131460   1.618   5.595   6.749 -0.1220  2.3877  1.8036
 3275TIP3    H231461   1.760   5.644   6.769  2.0123 -2.0886 -1.5562
 3276TIP3   OH231462   6.574   0.966   1.040 -0.4531  0.2286 -0.0824
 3276TIP3    H131463   6.622   1.035   0.996 -0.7381  0.3383 -0.2203
 3276TIP3    H231464   6.509   1.012   1.094  0.1081  0.1072  0.6987
 3277TIP3   OH231465   7.152   0.686   1.931 -0.2240  0.1601 -0.1909
 3277TIP3    H131466   7.174   0.600   1.895 -0.6696  0.3854 -1.0084
 3277TIP3    H231467   7.233   0.716   1.972  0.2187 -0.2056 -0.7872
 3278TIP3   OH231468   1.197   2.313   0.308  0.2113  0.3883 -0.2876
 3278TIP3    H131469   1.248   2.391   0.331  0.9268  0.1379 -1.0073
 3278TIP3    H231470   1.180   2.270   0.392  0.9120  0.6521 -0.0105
 3279TIP3   OH231471   4.691   6.497   0.021  0.9249  0.1591 -0.2336
 3279TIP3    H131472   4.784   6.514   0.009  1.8692 -2.1505  3.0473
 3279TIP3    H231473   4.666   6.553   0.096 -0.4681  1.1140 -1.3789
 3280TIP3   OH231474   6.257   0.815   6.162  0.9301  0.4073 -0.1315
 3280TIP3    H131475   6.213   0.864   6.092  0.3889  0.8589  0.5161
 3280TIP3    H231476   6.320   0.878   6.198  0.6498  0.4382  0.3081
 3281TIP3   OH231477   4.383   3.125   0.801  0.7124  0.1170  0.2474
 3281TIP3    H131478   4.377   3.100   0.709  0.8144  1.7278 -0.2106
 3281TIP3    H231479   4.292   3.136   0.829  0.5908 -2.1427  0.8695
 3282TIP3   OH231480   6.883   6.529   0.008 -0.1227 -0.6605  0.0956
 3282TIP3    H131481   6.825   6.471  -0.040 -1.3841 -0.6155  1.5256
 3282TIP3    H231482   6.940   6.567  -0.059  0.6857 -3.4692 -0.8828
 3283TIP3   OH231483   0.668   1.616   7.329 -0.3356 -0.8158  0.4744
 3283TIP3    H131484   0.716   1.638   7.408  3.0018 -1.1672 -1.3738
 3283TIP3    H231485   0.588   1.669   7.335  2.3648  3.4818  1.4599
 3284TIP3   OH231486   1.527   2.251   7.429  0.4997 -0.0674  0.1910
 3284TIP3    H131487   1.453   2.288   7.381  1.7991  1.5334 -0.6011
 3284TIP3    H231488   1.525   2.295   7.514  0.6573  0.1111  0.1018
 3285TIP3   OH231489   2.388   2.160   2.208 -0.8453 -0.2623 -0.4251
 3285TIP3    H131490   2.315   2.215   2.179 -1.5493 -1.4314 -0.8915
 3285TIP3    H231491   2.358   2.121   2.290 -0.3401  0.0667 -0.0813
 3286TIP3   OH231492   3.716   6.561   0.781  0.6349 -0.7301  0.0375
 3286TIP3    H131493   3.665   6.637   0.807  0.0549 -1.1479  0.1272
 3286TIP3    H231494   3.787   6.596   0.728  1.2560  0.0409  1.3515
 3287TIP3   OH231495   3.075   3.849   2.038 -0.5721  0.3963 -0.0060
 3287TIP3    H131496   3.019   3.896   1.975  0.5125  2.1288  0.2785
 3287TIP3    H231497   3.014   3.809   2.099 -1.5379  1.5317 -0.2027
 3288TIP3   OH231498   1.213   4.163   0.527  0.0680 -0.1715 -0.1214
 3288TIP3    H131499   1.249   4.132   0.444  3.0885  0.0573  1.0359
 3288TIP3    H231500   1.224   4.089   0.588 -1.1501  0.0279  0.3774
 3289TIP3   OH231501   6.556   4.304   7.882 -0.2091  0.2328 -0.0882
 3289TIP3    H131502   6.579   4.227   7.830  0.6991 -0.3629  1.1721
 3289TIP3    H231503   6.477   4.278   7.931  0.5754 -0.1994  0.9648
 3290TIP3   OH231504   6.341   0.550   6.126 -0.4630 -0.2083  0.0051
 3290TIP3    H131505   6.418   0.564   6.181  0.6509 -1.1704 -1.2826
 3290TIP3    H231506   6.302   0.637   6.117  0.6617  0.3498  0.3846
 3291TIP3   OH231507   6.120   2.946   7.445  0.4448  0.0479 -0.0178
 3291TIP3    H131508   6.133   3.017   7.383 -0.2900 -0.0011 -0.2426
 3291TIP3    H231509   6.060   2.886   7.400  0.2163 -0.1819  0.5882
 3292TIP3   OH231510   4.959   4.938   0.095  0.1305 -0.2703 -0.1526
 3292TIP3    H131511   5.036   4.892   0.062 -1.2329 -2.7018 -0.0780
 3292TIP3    H231512   4.967   4.933   0.190 -0.3339 -0.9703 -0.1409
 3293TIP3   OH231513   4.306   3.259   7.033  0.6323  0.2846 -0.3379
 3293TIP3    H131514   4.272   3.170   7.037  0.7772  0.3192  3.9770
 3293TIP3    H231515   4.370   3.258   6.962 -0.4948 -2.6237 -1.3533
 3294TIP3   OH231516   1.981   0.346   7.133 -0.4731 -0.6079  0.1784
 3294TIP3    H131517   2.050   0.392   7.085 -2.2205 -0.9902 -2.8175
 3294TIP3    H231518   1.919   0.415   7.157 -0.3564 -0.6446  0.6023
 3295TIP3   OH231519   4.343   5.142   0.444  0.9241  0.0457  0.6638
 3295TIP3    H131520   4.247   5.151   0.444  1.0541  1.6620 -0.8392
 3295TIP3    H231521   4.366   5.130   0.536 -0.6455  0.6878  1.1548
 3296TIP3   OH231522   5.372   3.966   7.326 -0.4015 -0.5687 -0.4264
 3296TIP3    H131523   5.396   4.054   7.295 -0.6102 -0.8139 -1.3119
 3296TIP3    H231524   5.410   3.907   7.261 -1.9591 -1.0353 -0.9302
 3297TIP3   OH231525   3.708   2.602   0.112  0.0835 -0.0730 -0.2323
 3297TIP3    H131526   3.666   2.659   0.049 -0.0528 -0.6370 -0.6538
 3297TIP3    H231527   3.660   2.616   0.194  0.2348  0.6234 -0.2592
 3298TIP3   OH231528   3.764   2.920   7.703 -0.5542  0.2583  0.6652
 3298TIP3    H131529   3.675   2.938   7.675 -0.1290  0.1402 -0.7773
 3298TIP3    H231530   3.771   2.824   7.699 -0.3505  0.2709  0.7340
 3299TIP3   OH231531   0.749   3.873   0.206  0.3039 -0.9659  0.1223
 3299TIP3    H131532   0.750   3.936   0.278  0.3361 -0.3710 -0.3950
 3299TIP3    H231533   0.825   3.896   0.152 -0.8129 -0.1597 -1.1486
 3300TIP3   OH231534   0.443   3.266   1.740  0.6108 -0.0672 -0.7467
 3300TIP3    H131535   0.394   3.219   1.807 -1.1069  0.2621 -1.7566
 3300TIP3    H231536   0.460   3.202   1.672  0.6489  0.0929 -0.8896
 3301TIP3   OH231537   2.957   2.679   6.896 -0.1782 -0.1756 -0.0121
 3301TIP3    H131538   2.863   2.676   6.878 -0.0596 -0.9827 -0.4921
 3301TIP3    H231539   2.999   2.656   6.813  0.4166 -1.2225  0.5725
 3302TIP3   OH231540   4.010   3.544   7.652  0.1875 -0.2858  0.1245
 3302TIP3    H131541   4.018   3.631   7.691  0.5965 -0.0688 -0.4352
 3302TIP3    H231542   3.940   3.554   7.587  0.7044 -0.1957 -0.4203
 3303TIP3   OH231543   2.858   2.517   1.381  0.4497 -0.1874  0.1895
 3303TIP3    H131544   2.883   2.600   1.422  2.1315 -1.1370  1.1624
 3303TIP3    H231545   2.824   2.542   1.295 -0.4813  1.6098  1.0554
 3304TIP3   OH231546   6.930   2.704   8.102 -0.0898  0.2073 -0.1865
 3304TIP3    H131547   6.934   2.614   8.135  0.6981  1.2694  2.7908
 3304TIP3    H231548   6.992   2.706   8.029 -0.5860 -1.8071 -0.6871
 3305TIP3   OH231549   6.061   0.340   2.276 -0.5948 -0.1104  0.4383
 3305TIP3    H131550   5.984   0.292   2.243 -1.9509  1.4810  1.2354
 3305TIP3    H231551   6.060   0.422   2.228 -0.2828  0.5577  1.5573
 3306TIP3   OH231552   1.758   3.258   6.215  0.3434 -0.0570  0.2334
 3306TIP3    H131553   1.774   3.352   6.215 -2.9794  0.5917 -1.4143
 3306TIP3    H231554   1.766   3.232   6.123  1.2517 -1.4170  0.6711
 3307TIP3   OH231555   4.476   1.002   7.089  0.3156  0.0748 -0.4564
 3307TIP3    H131556   4.558   0.973   7.048  0.0683 -1.4206  0.0863
 3307TIP3    H231557   4.412   0.935   7.066 -0.9868  1.6388 -1.5454
 3308TIP3   OH231558   1.440   4.242   6.733  0.0825 -0.7691  0.4873
 3308TIP3    H131559   1.440   4.161   6.682 -1.5921 -1.1585  1.0812
 3308TIP3    H231560   1.373   4.229   6.799  0.0357  0.9743  0.8105
 3309TIP3   OH231561   5.147   1.144   6.412 -0.3039  0.6890  0.5674
 3309TIP3    H131562   5.111   1.179   6.330  0.5178 -0.3787 -0.2704
 3309TIP3    H231563   5.087   1.073   6.436  1.2683 -1.2408 -0.9489
 3310TIP3   OH231564   1.708   2.858   8.100  0.2501  0.1754  0.3531
 3310TIP3    H131565   1.642   2.851   8.169 -0.2548 -1.6573 -0.2762
 3310TIP3    H231566   1.781   2.905   8.141 -0.7776  0.7640  1.5535
 3311TIP3   OH231567   2.147   6.452   7.385  0.5767  0.1486 -0.3881
 3311TIP3    H131568   2.162   6.505   7.306  0.4642 -1.0334 -1.2169
 3311TIP3    H231569   2.184   6.504   7.456  1.8444  0.6475 -1.3911
 3312TIP3   OH231570   2.664   5.179   7.835  0.1874  0.4149 -0.0496
 3312TIP3    H131571   2.584   5.185   7.886 -1.2675 -1.0693 -2.0558
 3312TIP3    H231572   2.722   5.124   7.888 -1.8069 -2.2916 -0.5343
 3313TIP3   OH231573   4.336   2.960   6.660  0.5165  0.2951 -0.5667
 3313TIP3    H131574   4.351   2.913   6.578  1.1637 -2.3860  1.0463
 3313TIP3    H231575   4.423   2.987   6.688  0.3472  0.7553 -0.4827
 3314TIP3   OH231576   2.070   3.184   5.744  0.0549 -0.7289  0.4414
 3314TIP3    H131577   2.055   3.199   5.651 -0.5888  0.0163  0.6636
 3314TIP3    H231578   2.040   3.264   5.787 -0.5372 -1.4405  1.3753
 3315TIP3   OH231579   0.861   6.046   1.828  0.0341 -0.5867  0.1918
 3315TIP3    H131580   0.833   6.000   1.748 -0.4181 -0.0567  0.0459
 3315TIP3    H231581   0.818   5.999   1.899 -1.4004  0.3426 -0.0445
 3316TIP3   OH231582   1.886   1.445   6.198  0.2456  0.4279 -0.1654
 3316TIP3    H131583   1.792   1.452   6.213  0.2596  1.7744 -0.5932
 3316TIP3    H231584   1.920   1.532   6.220  1.5070 -0.3151  0.8124
 3317TIP3   OH231585   0.858   3.223   6.985  0.0020  0.0088 -0.0428
 3317TIP3    H131586   0.899   3.304   6.954  2.3143 -1.6199 -1.4105
 3317TIP3    H231587   0.776   3.217   6.937  0.2397  1.0827 -0.5838
 3318TIP3   OH231588   1.969   1.510   6.649  0.3663 -0.9409 -0.2573
 3318TIP3    H131589   1.906   1.492   6.719  1.0728 -0.3116  0.5465
 3318TIP3    H231590   2.001   1.423   6.623 -1.4914 -1.3291 -1.2993
 3319TIP3   OH231591   2.530   1.873   0.695  0.5750 -0.4055 -0.5432
 3319TIP3    H131592   2.491   1.955   0.725  0.2995 -0.1077 -1.6772
 3319TIP3    H231593   2.537   1.819   0.774  0.9387  0.7723  0.2465
 3320TIP3   OH231594   3.075   3.211   1.492 -0.4789 -0.5870 -0.0310
 3320TIP3    H131595   3.122   3.153   1.551 -0.2851 -0.6511 -0.2440
 3320TIP3    H231596   3.062   3.292   1.542 -0.0234 -0.5222 -0.0157
 3321TIP3   OH231597   2.800   6.210   6.421 -0.1934 -0.0993 -0.0319
 3321TIP3    H131598   2.851   6.217   6.341 -0.4076 -0.0525 -0.1657
 3321TIP3    H231599   2.784   6.116   6.431 -0.6931 -0.0589 -0.3816
 3322TIP3   OH231600   0.588   4.744   7.646  0.0236 -0.0979 -0.4092
 3322TIP3    H131601   0.555   4.664   7.686 -2.4892  0.7959 -0.5652
 3322TIP3    H231602   0.577   4.811   7.715 -0.7663  0.6898 -1.2858
 3323TIP3   OH231603   5.803   2.475   6.345 -0.2707  0.1019  0.3499
 3323TIP3    H131604   5.727   2.525   6.375 -1.5709 -1.6883  0.1283
 3323TIP3    H231605   5.781   2.447   6.256  1.2584  0.7536 -0.2550
 3324TIP3   OH231606   0.030   1.117   0.053  0.0222  0.3458  0.5946
 3324TIP3    H131607   0.005   1.178  -0.016  0.9776  2.0463  1.7006
 3324TIP3    H231608   0.057   1.038   0.007  1.5569  1.7732 -1.0465
 3325TIP3   OH231609   1.519   5.607   7.785 -0.0253  0.7791 -0.3665
 3325TIP3    H131610   1.591   5.546   7.796 -0.9715 -0.3722 -0.3944
 3325TIP3    H231611   1.473   5.606   7.869 -1.2570 -0.1762 -1.0207
 3326TIP3   OH231612   0.525   5.531   0.647 -0.5037  0.1953 -0.4183
 3326TIP3    H131613   0.456   5.464   0.649  0.1593 -0.4676  0.1730
 3326TIP3    H231614   0.595   5.496   0.701 -0.2895  1.5311  0.2086
 3327TIP3   OH231615   2.303   7.141   7.372 -0.7319  0.6988 -0.5037
 3327TIP3    H131616   2.364   7.203   7.411 -1.2898  0.6757  0.4019
 3327TIP3    H231617   2.359   7.068   7.343 -0.3617  0.5004  0.6730
 3328TIP3   OH231618   5.810   6.582   1.300  0.5407  0.1674 -0.2217
 3328TIP3    H131619   5.746   6.586   1.371  0.6440 -3.0321  0.1237
 3328TIP3    H231620   5.887   6.627   1.334  0.1844 -0.3238  1.2658
 3329TIP3   OH231621   5.754   0.093   6.252 -0.2719 -0.4541  0.4977
 3329TIP3    H131622   5.828   0.032   6.251  1.0686  1.1322 -0.1629
 3329TIP3    H231623   5.759   0.139   6.168  0.6164  2.7032  2.2070
 3330TIP3   OH231624   3.511   5.113   0.521  0.3058 -0.3043 -0.0417
 3330TIP3    H131625   3.519   5.143   0.431  0.1418 -3.6795 -1.2537
 3330TIP3    H231626   3.432   5.156   0.554  0.7683  1.5193 -1.2415
 3331TIP3   OH231627   2.261   5.887   1.337 -0.6676  0.7094  0.2307
 3331TIP3    H131628   2.318   5.814   1.313 -0.3531  1.4447 -1.3859
 3331TIP3    H231629   2.249   5.879   1.431  1.5360  0.1049  0.4918
 3332TIP3   OH231630   2.482   4.237   7.746  0.3074 -0.1980  0.3848
 3332TIP3    H131631   2.485   4.253   7.841 -1.0041 -0.7498  0.5161
 3332TIP3    H231632   2.430   4.158   7.736  1.5875 -0.9205 -0.7162
 3333TIP3   OH231633   1.368   2.396   7.218  0.0246 -0.0936  0.5131
 3333TIP3    H131634   1.365   2.491   7.219  0.9296 -0.0445  3.0956
 3333TIP3    H231635   1.278   2.369   7.239 -0.1132  0.1721  0.2770
 3334TIP3   OH231636   5.126   3.584   1.529 -0.3631  0.2844 -0.3682
 3334TIP3    H131637   5.222   3.580   1.535 -0.2756  3.2229  0.7389
 3334TIP3    H231638   5.099   3.492   1.538  2.3693 -0.7187 -1.6428
 3335TIP3   OH231639   6.084   4.555   0.142 -0.6716  0.1490 -0.1771
 3335TIP3    H131640   6.155   4.614   0.117 -0.0931 -0.4175  0.1118
 3335TIP3    H231641   6.125   4.469   0.149 -0.6105  0.3786  3.4144
 3336TIP3   OH231642   6.608   2.606   0.795 -0.2710 -0.6424  0.3293
 3336TIP3    H131643   6.556   2.685   0.809  0.4112 -0.2936  0.9137
 3336TIP3    H231644   6.543   2.536   0.783 -0.8924 -0.4927  2.6713
 3337TIP3   OH231645   0.454   4.350   1.377  0.0990 -0.3875  0.1255
 3337TIP3    H131646   0.507   4.369   1.455  2.8357  2.5500 -2.3163
 3337TIP3    H231647   0.364   4.365   1.405  1.0198  0.4967  2.7650
 3338TIP3   OH231648   3.677   3.528   6.617 -0.7021  0.3287  0.8043
 3338TIP3    H131649   3.717   3.606   6.656  0.4072 -0.0214  0.3673
 3338TIP3    H231650   3.629   3.561   6.541  2.6015  0.1795 -1.4174
 3339TIP3   OH231651   5.285   5.895   0.327 -0.5647 -0.1180 -0.2415
 3339TIP3    H131652   5.209   5.874   0.273  0.4075 -0.8429 -1.3722
 3339TIP3    H231653   5.334   5.813   0.331 -0.2896  0.1168  1.1973
 3340TIP3   OH231654   3.239   2.766   0.312 -0.2999 -0.3266  0.7491
 3340TIP3    H131655   3.215   2.769   0.404 -0.9750 -1.1074  0.6055
 3340TIP3    H231656   3.314   2.825   0.304 -0.1079 -0.4250  1.8316
 3341TIP3   OH231657   1.830   1.581   1.741  0.2536  0.0333 -0.1179
 3341TIP3    H131658   1.858   1.635   1.815 -1.3915  0.2784  0.3421
 3341TIP3    H231659   1.769   1.518   1.779  1.1224 -1.3117 -0.8858
 3342TIP3   OH231660   2.734   3.099   0.100  0.1792  0.5905 -0.5377
 3342TIP3    H131661   2.711   3.133   0.186 -1.3858 -1.3698 -0.1364
 3342TIP3    H231662   2.814   3.049   0.115 -0.1171  0.2138 -0.2055
 3343TIP3   OH231663   4.032   4.326   6.807 -0.1614 -0.4443  0.4936
 3343TIP3    H131664   4.056   4.250   6.859  1.8908 -0.2602 -0.1295
 3343TIP3    H231665   3.936   4.328   6.809 -0.1782 -2.0195  1.9483
 3344TIP3   OH231666   6.059   5.344   7.551  0.4480  0.0965  0.4618
 3344TIP3    H131667   6.021   5.296   7.625 -1.8428  0.1113 -0.6822
 3344TIP3    H231668   6.132   5.393   7.590 -1.0939  0.6115  2.8382
 3345TIP3   OH231669   4.345   3.488   1.803  0.5670  0.0583 -0.2564
 3345TIP3    H131670   4.337   3.481   1.708 -2.2707 -0.1361 -0.0548
 3345TIP3    H231671   4.303   3.408   1.837  0.9486  0.4416  1.1610
 3346TIP3   OH231672   1.821   5.258   6.344  0.3792 -0.3913  0.1742
 3346TIP3    H131673   1.880   5.188   6.372 -0.0043  0.1844  2.5027
 3346TIP3    H231674   1.827   5.324   6.413 -0.0771  1.4121 -1.4474
 3347TIP3   OH231675   3.200   4.355   1.120 -0.0142 -0.4049 -0.1969
 3347TIP3    H131676   3.198   4.352   1.025 -0.8218 -1.4028 -0.1538
 3347TIP3    H231677   3.128   4.412   1.145 -0.6432 -1.2203 -0.1406
 3348TIP3   OH231678   5.808   4.658   7.690  0.2202 -0.3324 -0.0294
 3348TIP3    H131679   5.894   4.665   7.731 -0.0666 -0.2800  0.5607
 3348TIP3    H231680   5.746   4.682   7.759 -0.3267 -1.3158 -0.1684
 3349TIP3   OH231681   3.038   2.132   7.718 -0.3043  0.3892 -0.3765
 3349TIP3    H131682   2.956   2.176   7.739 -0.5790 -0.9611  1.5033
 3349TIP3    H231683   3.077   2.112   7.803 -0.4168 -3.3141 -1.0999
 3350TIP3   OH231684   3.154   1.559   0.204 -0.1603  0.0736 -0.0828
 3350TIP3    H131685   3.209   1.548   0.127  1.5680  1.5096  0.8965
 3350TIP3    H231686   3.192   1.498   0.268 -0.9197 -0.3329 -0.0174
 3351TIP3   OH231687   4.419   2.453   7.408 -0.2601  0.1445  0.3743
 3351TIP3    H131688   4.453   2.501   7.484  0.5875 -0.6093  0.4763
 3351TIP3    H231689   4.398   2.521   7.344 -0.6147  0.7617  1.1336
 3352TIP3   OH231690   2.311   3.301   6.457  0.2793  0.8672  0.1333
 3352TIP3    H131691   2.339   3.384   6.418 -1.9435  0.3882 -2.6390
 3352TIP3    H231692   2.253   3.327   6.528 -0.7483  1.7227 -0.9961
 3353TIP3   OH231693   5.105   3.882   1.171 -0.0493  0.4168 -0.0689
 3353TIP3    H131694   5.149   3.842   1.246 -0.1886  0.4443  0.0265
 3353TIP3    H231695   5.122   3.976   1.181  0.4555  0.3608 -0.4067
 3354TIP3   OH231696   3.185   5.060   7.209  0.0225 -0.5493 -0.2600
 3354TIP3    H131697   3.092   5.044   7.193 -0.1721  0.6553 -0.3946
 3354TIP3    H231698   3.211   5.123   7.141  0.6122  0.1023  0.5482
 3355TIP3   OH231699   6.111   4.816   7.958  0.5651  0.9095  0.5841
 3355TIP3    H131700   6.041   4.846   8.017  1.4409  1.3101  1.4478
 3355TIP3    H231701   6.178   4.781   8.017 -0.5994 -3.2582 -0.4108
 3356TIP3   OH231702   1.578   4.433   6.393  0.0671  0.6585 -0.0368
 3356TIP3    H131703   1.655   4.486   6.376  0.4718  0.6810  1.8076
 3356TIP3    H231704   1.504   4.487   6.366  0.6125  1.1507 -0.5443
 3357TIP3   OH231705   2.824   2.967   6.685 -0.1545  0.5359 -0.3639
 3357TIP3    H131706   2.795   3.050   6.648 -0.3797 -0.4371 -2.4326
 3357TIP3    H231707   2.913   2.984   6.716  0.3414  1.1697 -2.1047
 3358TIP3   OH231708   2.230   2.268   7.597  0.5185  0.1603  0.5651
 3358TIP3    H131709   2.239   2.362   7.614  1.8270  0.0779  0.3425
 3358TIP3    H231710   2.277   2.226   7.669  0.6187 -0.3210  0.2177
 3359TIP3   OH231711   3.382   3.100   7.412 -0.1876 -0.0844  0.2229
 3359TIP3    H131712   3.452   3.166   7.411 -0.3488  0.2409  4.1629
 3359TIP3    H231713   3.428   3.017   7.423 -0.3204  0.0224  1.6794
 3360TIP3   OH231714   1.610   1.720   6.990  0.1816 -0.0956 -0.1974
 3360TIP3    H131715   1.610   1.791   6.926  0.4670  0.9689  0.9699
 3360TIP3    H231716   1.614   1.764   7.075 -0.5789 -1.4837  0.5717
 3361TIP3   OH231717   1.738   4.436   1.415 -0.1160  0.2810 -0.0297
 3361TIP3    H131718   1.646   4.419   1.395  0.2948 -2.4497  0.2908
 3361TIP3    H231719   1.746   4.422   1.509  0.8174 -0.4932 -0.2144
 3362TIP3   OH231720   3.882   3.324   7.006 -0.0164  0.0410 -0.4328
 3362TIP3    H131721   3.892   3.229   7.017 -2.3486 -0.0966  0.7834
 3362TIP3    H231722   3.844   3.333   6.918 -2.3390 -0.3611  0.4972
 3363TIP3   OH231723   6.567   6.924   7.039  0.0070 -0.2279 -0.0653
 3363TIP3    H131724   6.603   6.836   7.050  0.5717 -0.0698 -0.5616
 3363TIP3    H231725   6.557   6.933   6.944  1.2054  0.7326 -0.1042
 3364TIP3   OH231726   0.580   2.444   6.989 -0.4800 -0.3424 -0.4548
 3364TIP3    H131727   0.664   2.473   6.953 -1.1884  0.2925 -1.6124
 3364TIP3    H231728   0.517   2.510   6.961 -1.4216 -0.9664  0.1608
 3365TIP3   OH231729   4.789   3.809   5.957 -0.0453  0.6316  0.3723
 3365TIP3    H131730   4.715   3.772   5.909  0.7328  0.8844 -1.0567
 3365TIP3    H231731   4.857   3.742   5.952  0.0617  0.6886  1.0734
 3366TIP3   OH231732   5.794   7.013   6.585  0.1602 -0.5582 -0.1200
 3366TIP3    H131733   5.876   7.031   6.540  0.1307 -2.0840 -0.8138
 3366TIP3    H231734   5.738   7.089   6.566  0.3972 -0.8507 -2.0414
 3367TIP3   OH231735   4.749   0.538   6.024 -0.8371 -0.2724 -0.4461
 3367TIP3    H131736   4.839   0.567   6.038 -0.4018 -2.1248  0.7598
 3367TIP3    H231737   4.701   0.618   6.004  1.0666  0.7370 -1.0926
 3368TIP3   OH231738   5.901   0.724   6.872 -0.2911 -0.5479  0.0416
 3368TIP3    H131739   5.911   0.657   6.940 -0.3905  0.3836  0.9842
 3368TIP3    H231740   5.897   0.675   6.791 -0.6461 -1.7171  0.7516
 3369TIP3   OH231741   5.994   6.202   0.331 -0.6908 -0.4192  0.2139
 3369TIP3    H131742   6.030   6.219   0.244  0.7896  1.7742  1.1923
 3369TIP3    H231743   5.970   6.109   0.329 -1.3184 -0.2579 -2.7288
 3370TIP3   OH231744   4.984   2.490   1.860  0.3881  0.0208 -0.4037
 3370TIP3    H131745   4.940   2.449   1.935 -0.6681 -0.3516 -1.2122
 3370TIP3    H231746   5.027   2.418   1.814  1.1807  0.2726 -0.0707
 3371TIP3   OH231747   4.883   3.620   7.761  0.0901  0.7988  0.1907
 3371TIP3    H131748   4.843   3.643   7.845 -0.7414 -0.8229  0.2530
 3371TIP3    H231749   4.944   3.550   7.782  0.0661  0.5657 -0.5213
 3372TIP3   OH231750   2.898   3.572   6.579  0.0739 -0.3508  0.0095
 3372TIP3    H131751   2.933   3.489   6.612 -0.3444 -1.4188 -2.1425
 3372TIP3    H231752   2.803   3.564   6.587  0.1101  1.1176  2.4931
 3373TIP3   OH231753   5.057   0.342   6.578  0.2810  0.1019  0.3245
 3373TIP3    H131754   5.100   0.350   6.663  0.9763  1.6091 -0.1494
 3373TIP3    H231755   5.035   0.432   6.554 -2.7405 -0.5749  0.3261
 3374TIP3   OH231756   5.009   2.687   7.851  0.2026 -0.1906 -0.3886
 3374TIP3    H131757   5.060   2.696   7.771 -0.9446 -2.8727 -1.4588
 3374TIP3    H231758   4.918   2.687   7.822 -0.2188 -1.2807  0.8952
 3375TIP3   OH231759   3.554   1.211   1.385 -0.7703 -0.1079 -0.2704
 3375TIP3    H131760   3.575   1.258   1.305  1.5191 -1.0613 -0.2768
 3375TIP3    H231761   3.579   1.120   1.367  1.6280 -0.0006  2.1467
 3376TIP3   OH231762   6.612   1.720   8.051  0.3572  0.0301 -0.4689
 3376TIP3    H131763   6.580   1.811   8.052  3.6645  1.2242  0.9413
 3376TIP3    H231764   6.572   1.680   8.128  0.2051  0.7730 -0.1548
 3377TIP3   OH231765   4.287   3.397   0.378 -0.0899 -0.6377 -0.1686
 3377TIP3    H131766   4.287   3.492   0.393  0.0679 -1.0390  2.5084
 3377TIP3    H231767   4.372   3.379   0.338 -0.4287  0.4391 -1.4290
 3378TIP3   OH231768   2.190   2.459   1.349 -0.3789  0.0352 -0.0045
 3378TIP3    H131769   2.250   2.465   1.274 -2.4087  0.2083 -1.6476
 3378TIP3    H231770   2.217   2.531   1.406  0.7752  0.3064 -0.8596
 3379TIP3   OH231771   7.052   2.480   6.708 -0.7363 -0.3111  0.0535
 3379TIP3    H131772   7.079   2.408   6.765  1.1838  0.5646  0.2861
 3379TIP3    H231773   6.989   2.441   6.647 -0.2976 -1.9969  0.6726
 3380TIP3   OH231774   2.549   6.412   7.077  0.0960  0.2751 -0.2736
 3380TIP3    H131775   2.497   6.492   7.088  0.7133  0.7117 -0.4926
 3380TIP3    H231776   2.502   6.362   7.010 -0.8807 -0.0498  0.6331
 3381TIP3   OH231777   3.007   3.859   0.031  0.1673  0.3308 -0.1131
 3381TIP3    H131778   2.933   3.917   0.050 -0.1448  0.5159 -1.7873
 3381TIP3    H231779   3.084   3.913   0.045 -0.1421  1.5873 -2.8506
 3382TIP3   OH231780   4.187   2.281   1.229 -0.1701 -0.0210  0.0841
 3382TIP3    H131781   4.151   2.367   1.210 -0.3996 -0.7808 -3.2356
 3382TIP3    H231782   4.276   2.284   1.193  0.7987 -0.3413  2.3281
 3383TIP3   OH231783   6.352   1.865   7.566  0.6131  0.2688 -0.3514
 3383TIP3    H131784   6.392   1.782   7.538  1.1280  0.3850  0.0493
 3383TIP3    H231785   6.384   1.930   7.503  2.4320  0.6881  0.9853
 3384TIP3   OH231786   3.737   5.592   1.122 -0.2816 -0.1095 -0.6596
 3384TIP3    H131787   3.777   5.657   1.065 -1.8884  1.5536  0.0495
 3384TIP3    H231788   3.791   5.594   1.202  0.1556 -0.2522 -0.9487
 3385TIP3   OH231789   6.793   0.577   1.251  0.3024 -0.3181 -0.6506
 3385TIP3    H131790   6.713   0.527   1.237 -0.0281  0.1636 -0.5174
 3385TIP3    H231791   6.763   0.664   1.278  0.8683 -0.1028 -0.6919
 3386TIP3   OH231792   2.745   3.757   1.039  0.3659 -0.2931  0.2199
 3386TIP3    H131793   2.828   3.744   1.084  0.8477  0.3564 -0.4734
 3386TIP3    H231794   2.730   3.852   1.042  0.6366 -0.1908 -1.3859
 3387TIP3   OH231795   4.346   4.106   6.890  0.0306 -0.3734  0.1254
 3387TIP3    H131796   4.344   4.010   6.885 -2.9656 -0.3944  0.3172
 3387TIP3    H231797   4.266   4.128   6.939  0.8548  2.2182  0.3650
 3388TIP3   OH231798   4.683   4.908   7.765 -0.1260 -0.2723 -0.2238
 3388TIP3    H131799   4.721   4.965   7.698 -2.4889  0.8960 -0.6384
 3388TIP3    H231800   4.675   4.964   7.842 -1.1289 -0.4352 -0.1984
 3389TIP3   OH231801   5.921   6.537   6.872  0.1307  0.1709  0.0965
 3389TIP3    H131802   5.838   6.516   6.914  0.4116  1.6731  1.4401
 3389TIP3    H231803   5.929   6.632   6.880  1.2522  0.2263 -1.4008
 3390TIP3   OH231804   1.392   0.451   1.793 -0.1384  0.0331  0.1445
 3390TIP3    H131805   1.330   0.523   1.784 -0.2880 -0.2434 -1.1232
 3390TIP3    H231806   1.340   0.379   1.828 -0.5590 -0.2088 -0.9478
 3391TIP3   OH231807   2.132   1.385   1.908 -1.0470  0.3628  0.3631
 3391TIP3    H131808   2.157   1.334   1.984  3.0495  1.0358 -0.4501
 3391TIP3    H231809   2.122   1.474   1.940 -0.2372  0.4821  0.2817
 3392TIP3   OH231810   1.434   0.152   8.097 -0.1730  0.6691 -0.4686
 3392TIP3    H131811   1.361   0.194   8.142 -0.2894 -0.3916  0.3492
 3392TIP3    H231812   1.511   0.171   8.150 -0.6604 -2.5333  1.5248
 3393TIP3   OH231813   4.932   2.446   6.064  0.2047 -0.8080 -0.7142
 3393TIP3    H131814   4.963   2.360   6.034  2.5155  0.1203 -1.1368
 3393TIP3    H231815   5.009   2.485   6.105 -0.7348  1.2118 -0.8475
 3394TIP3   OH231816   4.426   3.549   5.941  0.2013 -0.3582 -0.5765
 3394TIP3    H131817   4.413   3.460   5.906 -0.1342 -0.5876  0.1293
 3394TIP3    H231818   4.504   3.581   5.896 -0.9330 -0.1873 -2.4719
 3395TIP3   OH231819   3.886   1.665   6.729  0.1507  0.0626  0.1901
 3395TIP3    H131820   3.840   1.745   6.703 -1.9572 -1.8044 -1.9707
 3395TIP3    H231821   3.924   1.632   6.648 -0.3181 -1.9430  0.7657
 3396TIP3   OH231822   0.380   2.006   6.059  0.3714 -0.5454 -0.5631
 3396TIP3    H131823   0.377   2.062   5.981  0.3769  2.7689  1.7571
 3396TIP3    H231824   0.289   1.979   6.072  0.0159  0.6449 -0.5051
 3397TIP3   OH231825   6.679   3.489   7.235 -0.3617  0.6934 -0.1439
 3397TIP3    H131826   6.642   3.430   7.301 -0.1788  0.8578  0.1065
 3397TIP3    H231827   6.616   3.486   7.163  0.1028 -0.5053 -0.5104
 3398TIP3   OH231828   3.159   1.422   6.908  0.6206  0.4901 -0.7277
 3398TIP3    H131829   3.120   1.346   6.865  1.2314  1.0892 -2.3856
 3398TIP3    H231830   3.252   1.402   6.914  1.4424  2.6167 -4.6287
 3399TIP3   OH231831   5.922   1.679   0.708  0.1349 -0.2660  0.0374
 3399TIP3    H131832   5.967   1.707   0.788  1.0453 -0.2007 -0.4839
 3399TIP3    H231833   5.839   1.642   0.738 -0.2838  1.3427  0.8596
 3400TIP3   OH231834   5.650   0.691   8.063 -0.1407  0.3404 -0.1131
 3400TIP3    H131835   5.560   0.723   8.064  0.5986  2.5475 -0.9883
 3400TIP3    H231836   5.659   0.642   8.144 -1.9691  0.5676  0.2443
 3401TIP3   OH231837   1.277   3.115   7.743 -0.0991 -0.1922  0.4870
 3401TIP3    H131838   1.315   3.088   7.659 -0.3613 -0.7204  0.5327
 3401TIP3    H231839   1.191   3.073   7.744  0.4265 -1.2702  1.6029
 3402TIP3   OH231840   0.381   2.675   6.674  0.4950  0.4265  0.3666
 3402TIP3    H131841   0.414   2.664   6.585  0.3021 -1.1132  0.4633
 3402TIP3    H231842   0.395   2.767   6.695 -0.1962  0.9838 -1.5586
 3403TIP3   OH231843   5.550   0.557   6.908  0.1634  0.5694 -0.2992
 3403TIP3    H131844   5.619   0.571   6.973  0.3672  1.4482 -0.7046
 3403TIP3    H231845   5.499   0.484   6.944  1.5252 -0.3654 -0.1828
 3404TIP3   OH231846   3.811   1.727   0.097 -0.3546  0.0704  0.7536
 3404TIP3    H131847   3.871   1.801   0.089 -0.6596  0.2126 -0.3136
 3404TIP3    H231848   3.724   1.764   0.080 -0.7256 -0.1685  2.1238
 3405TIP3   OH231849   2.696   1.447   6.300 -0.1893  0.1319 -0.0796
 3405TIP3    H131850   2.627   1.496   6.257 -0.1304 -0.6289 -1.0533
 3405TIP3    H231851   2.722   1.381   6.236  1.0510  0.0599  0.4892
 3406TIP3   OH231852   5.466   4.606   0.243  0.1181 -0.3017 -0.6201
 3406TIP3    H131853   5.530   4.619   0.174  1.2570  1.0059  0.6543
 3406TIP3    H231854   5.388   4.654   0.214  0.7198  0.5538 -0.8296
 3407TIP3   OH231855   5.473   6.742   7.710  0.0161  0.6923  0.2386
 3407TIP3    H131856   5.397   6.737   7.767 -1.2717 -0.0810 -1.5057
 3407TIP3    H231857   5.543   6.777   7.766 -1.5017  1.0406  1.9560
 3408TIP3   OH231858   5.677   3.016   8.118 -0.4953  0.3815  0.0216
 3408TIP3    H131859   5.730   3.058   8.051 -2.2745 -1.1412 -2.4614
 3408TIP3    H231860   5.594   3.063   8.116 -0.4056  0.6296  1.5368
 3409TIP3   OH231861   1.201   2.548   2.296  0.1130 -0.0212 -0.4759
 3409TIP3    H131862   1.259   2.483   2.336  1.3917  1.5462  0.2465
 3409TIP3    H231863   1.246   2.574   2.216 -0.0266  0.5538 -0.3660
 3410TIP3   OH231864   0.809   0.970   1.530 -0.0046 -0.1912  0.3127
 3410TIP3    H131865   0.872   1.029   1.571 -0.9982  1.6403 -0.7279
 3410TIP3    H231866   0.802   0.896   1.591  2.9087 -0.3062  0.5842
 3411TIP3   OH231867   6.417   3.519   0.275  0.6168 -0.2176  0.2889
 3411TIP3    H131868   6.337   3.470   0.252 -1.7611  2.5492  2.2638
 3411TIP3    H231869   6.445   3.480   0.358  0.4128 -0.1230  0.4015
 3412TIP3   OH231870   5.960   5.292   8.085 -0.7387 -0.2933  0.0632
 3412TIP3    H131871   6.013   5.213   8.099 -1.6413 -0.8148  0.6119
 3412TIP3    H231872   5.880   5.260   8.042 -1.1532  0.3071  0.3792
 3413TIP3   OH231873   1.070   5.981   0.200 -0.6862 -0.5151 -0.0083
 3413TIP3    H131874   1.096   6.066   0.165  0.7174 -0.9312  0.0065
 3413TIP3    H231875   1.000   6.001   0.262 -0.1421  0.6561  0.2443
 3414TIP3   OH231876   5.181   4.693   0.358 -0.0828 -0.5212 -0.0387
 3414TIP3    H131877   5.193   4.601   0.382 -0.0966 -0.9058 -1.4626
 3414TIP3    H231878   5.107   4.693   0.298  1.0482  0.1609 -1.4834
 3415TIP3   OH231879   4.271   0.925   6.562  0.1324 -0.0742 -0.3587
 3415TIP3    H131880   4.331   0.969   6.503  0.5551 -0.2533 -0.0644
 3415TIP3    H231881   4.303   0.835   6.568  1.3362  0.4560  1.7628
 3416TIP3   OH231882   5.694   1.288   6.279  0.3061  0.1658  0.0196
 3416TIP3    H131883   5.648   1.244   6.207  0.5665  1.3968 -0.9157
 3416TIP3    H231884   5.629   1.298   6.348 -0.3837  0.4215 -0.6665
 3417TIP3   OH231885   6.319   3.846   0.135  0.4487 -0.0071  0.0243
 3417TIP3    H131886   6.410   3.869   0.116  0.2191  0.0275 -1.0752
 3417TIP3    H231887   6.280   3.830   0.049 -0.8091  0.8416  0.4201
 3418TIP3   OH231888   6.033   5.538   0.773  0.5718 -0.2746  0.0755
 3418TIP3    H131889   6.082   5.513   0.695  3.0949 -0.1585  1.5757
 3418TIP3    H231890   6.089   5.513   0.846 -1.1581  0.8183  1.8384
 3419TIP3   OH231891   5.298   1.490   6.714  0.3067 -0.7821 -0.0925
 3419TIP3    H131892   5.320   1.398   6.697  0.5838 -0.7538  0.1055
 3419TIP3    H231893   5.212   1.502   6.674 -0.0544 -1.3285  0.5172
 3420TIP3   OH231894   3.971   1.344   7.062 -0.0366  0.1642 -0.1323
 3420TIP3    H131895   3.932   1.394   6.990  0.7138  0.2314 -0.4993
 3420TIP3    H231896   4.048   1.395   7.087 -0.5149  0.3563  1.0032
 3421TIP3   OH231897   6.867   3.113   7.206 -0.1273 -0.0169 -0.1321
 3421TIP3    H131898   6.889   3.194   7.160  2.2394 -0.0335  0.9333
 3421TIP3    H231899   6.822   3.142   7.285  1.2404  0.3046  0.5417
 3422TIP3   OH231900   6.823   0.118   0.137  0.3221 -0.4716 -0.6279
 3422TIP3    H131901   6.759   0.159   0.079  0.0506  1.8605  1.2544
 3422TIP3    H231902   6.774   0.050   0.183 -0.4691  0.3759 -0.2101
 3423TIP3   OH231903   2.654   6.086   6.938  0.1360 -0.0093  0.2789
 3423TIP3    H131904   2.601   6.029   6.994 -1.7985  1.1738 -0.3023
 3423TIP3    H231905   2.741   6.081   6.976 -0.9035 -0.0576  2.7925
 3424TIP3   OH231906   5.276   2.135   1.166  0.2915  0.1671  0.1677
 3424TIP3    H131907   5.239   2.051   1.138 -1.2420  1.2713 -1.1415
 3424TIP3    H231908   5.238   2.150   1.253 -0.1864 -0.0355 -0.0033
 3425TIP3   OH231909   0.802   1.325   8.088 -0.1820 -0.3093 -0.1182
 3425TIP3    H131910   0.820   1.372   8.006  0.3563 -0.3169 -0.0105
 3425TIP3    H231911   0.732   1.374   8.129 -0.6745 -0.4864 -0.7375
 3426TIP3   OH231912   4.890   5.982   6.859  0.6880 -0.2317 -0.2429
 3426TIP3    H131913   4.967   6.021   6.817  0.7208  1.0253  0.9209
 3426TIP3    H231914   4.831   6.056   6.874 -0.3389 -1.0360 -0.2529
 3427TIP3   OH231915   6.611   1.993   7.043  0.1519  0.3142  0.2876
 3427TIP3    H131916   6.581   1.925   7.103 -0.0809  0.7776  0.6942
 3427TIP3    H231917   6.625   1.947   6.960  2.2492 -0.6668  1.1673
 3428TIP3   OH231918   5.266   1.442   1.877 -1.3578  0.2620  0.1759
 3428TIP3    H131919   5.226   1.394   1.950 -1.7325  2.0854  1.1890
 3428TIP3    H231920   5.343   1.483   1.915 -1.4675  1.0996 -0.4994
 3429TIP3   OH231921   5.773   5.043   0.555 -0.3351  0.2080 -0.0364
 3429TIP3    H131922   5.748   5.133   0.575  0.3087  0.2862  0.4416
 3429TIP3    H231923   5.852   5.051   0.501 -0.8061 -0.0489 -0.7530
 3430TIP3   OH231924   6.612   2.444   0.101  0.0413  0.0143 -0.3400
 3430TIP3    H131925   6.528   2.403   0.078 -0.9314  0.8072  1.6661
 3430TIP3    H231926   6.591   2.538   0.103  1.0866  0.2417 -0.2390
 3431TIP3   OH231927   1.459   4.174   6.320 -0.0633 -0.3053  0.2338
 3431TIP3    H131928   1.467   4.268   6.333  0.0365 -0.4048  0.9426
 3431TIP3    H231929   1.460   4.138   6.409 -0.8651 -0.9073  0.0100
 3432TIP3   OH231930   4.786   5.362   7.979 -0.0740  0.1280  0.1661
 3432TIP3    H131931   4.810   5.447   8.016  2.7827 -0.2113 -0.7898
 3432TIP3    H231932   4.814   5.298   8.044 -1.1105 -0.1565  0.3419
 3433TIP3   OH231933   6.015   2.903   5.599  0.2601 -0.5614  0.1729
 3433TIP3    H131934   5.998   2.808   5.602  0.2097 -0.5770 -0.6261
 3433TIP3    H231935   6.108   2.911   5.619 -0.1556 -0.6354  2.2523
 3434TIP3   OH231936   4.855   3.019   0.046 -0.1926 -0.0980 -0.2323
 3434TIP3    H131937   4.897   3.064  -0.027 -0.5693 -1.7473 -1.4886
 3434TIP3    H231938   4.926   2.973   0.091 -0.3300 -1.2696 -1.1808
 3435TIP3   OH231939   4.575   2.499   0.798 -0.2276 -0.0715  0.6711
 3435TIP3    H131940   4.512   2.571   0.793  1.4756  1.4231 -0.0273
 3435TIP3    H231941   4.649   2.536   0.847  1.0184 -1.0730 -0.4170
 3436TIP3   OH231942   5.151   6.974   5.847  0.5401  0.7199  1.1931
 3436TIP3    H131943   5.120   6.938   5.931 -2.6185 -1.1147 -0.6164
 3436TIP3    H231944   5.200   6.902   5.808  0.5036  0.9435  0.7390
 3437TIP3   OH231945   4.768   4.175   7.173 -0.0811 -0.6056 -0.0500
 3437TIP3    H131946   4.705   4.222   7.226  0.2406  0.9900 -1.0294
 3437TIP3    H231947   4.727   4.168   7.087  1.2578  0.9714 -0.8660
 3438TIP3   OH231948   4.156   2.124   0.038 -0.4531  0.2657 -0.0931
 3438TIP3    H131949   4.088   2.176   0.081  0.8949 -1.5651  4.5307
 3438TIP3    H231950   4.236   2.174   0.050  0.0728 -0.6541  0.2737
 3439TIP3   OH231951   6.148   1.165   1.301  0.6044  0.1812 -0.1883
 3439TIP3    H131952   6.161   1.239   1.360 -0.2048 -0.9158  1.3980
 3439TIP3    H231953   6.078   1.193   1.242  0.8641  0.9817 -0.1223
 3440TIP3   OH231954   0.153   1.363   6.756  0.2930 -0.1222  0.3534
 3440TIP3    H131955   0.154   1.458   6.764  0.7141  0.0093 -1.0638
 3440TIP3    H231956   0.087   1.345   6.688 -0.3790 -0.8965  1.1946
 3441TIP3   OH231957   3.587   1.079   1.015  0.3252 -0.1525  0.0882
 3441TIP3    H131958   3.545   1.027   1.084 -1.0900  1.9121  0.8146
 3441TIP3    H231959   3.668   1.110   1.054 -0.5637  1.1682  0.9097
 3442TIP3   OH231960   5.311   0.834   1.518  0.4288  0.6657 -0.2863
 3442TIP3    H131961   5.399   0.869   1.533  0.9020 -1.1194  1.2551
 3442TIP3    H231962   5.274   0.823   1.605 -0.3820 -0.9459 -0.8121
 3443TIP3   OH231963   2.851   6.115   7.124  0.0284 -0.8444  0.6371
 3443TIP3    H131964   2.937   6.124   7.082 -0.0426 -0.4339  0.5821
 3443TIP3    H231965   2.868   6.058   7.199  0.6201  0.3120  1.4038
 3444TIP3   OH231966   6.655   5.074   0.379  0.0605  0.4573 -0.1559
 3444TIP3    H131967   6.572   5.084   0.426 -0.3488  0.2004 -0.8136
 3444TIP3    H231968   6.718   5.124   0.430 -0.8837  2.1570 -0.6228
 3445TIP3   OH231969   0.103   6.229   6.945 -0.3668 -0.5312 -0.1548
 3445TIP3    H131970   0.117   6.149   6.996  1.0594  0.2486  0.7201
 3445TIP3    H231971   0.010   6.246   6.952  0.0523  0.6388  3.8908
 3446TIP3   OH231972   1.551   3.886   8.101  0.2307 -0.6193  0.0845
 3446TIP3    H131973   1.540   3.883   8.007 -1.3200 -0.1894  0.2374
 3446TIP3    H231974   1.536   3.978   8.124  1.1543 -0.6058  0.6912
 3447TIP3   OH231975   2.171   6.373   1.228  0.3595  0.0484 -0.1969
 3447TIP3    H131976   2.148   6.416   1.311  0.7085  0.0703 -0.1113
 3447TIP3    H231977   2.112   6.412   1.164  0.6659  0.6505 -0.1171
 3448TIP3   OH231978   7.002   0.952   1.087  0.6686 -0.6297  0.4355
 3448TIP3    H131979   7.097   0.956   1.096  0.6591 -1.0695  0.7239
 3448TIP3    H231980   6.977   0.871   1.131  0.0326  0.0663  1.3699
 3449TIP3   OH231981   1.439   5.194   7.381  0.6962 -0.4067  0.4695
 3449TIP3    H131982   1.418   5.287   7.374 -1.0595 -0.5326  3.2725
 3449TIP3    H231983   1.371   5.150   7.331 -0.0954 -0.2928  1.4210
 3450TIP3   OH231984   4.470   6.918   7.380 -0.0404 -0.2569 -0.8450
 3450TIP3    H131985   4.440   6.831   7.355  0.6190 -0.5268 -0.7319
 3450TIP3    H231986   4.515   6.951   7.303 -0.2115 -0.0605 -0.8577
 3451TIP3   OH231987   1.005   0.904   1.060  0.3413 -0.6191 -0.2490
 3451TIP3    H131988   1.082   0.850   1.075  1.0803  0.5601  0.3226
 3451TIP3    H231989   0.941   0.875   1.124  1.0439 -0.2209  0.6370
 3452TIP3   OH231990   4.920   2.936   6.871  0.0804  0.2779  0.1656
 3452TIP3    H131991   4.876   3.009   6.914 -1.7828 -0.9912  0.5036
 3452TIP3    H231992   4.947   2.878   6.943  1.6018  0.6415 -0.0923
 3453TIP3   OH231993   2.238   4.984   0.792  0.3805  0.1021 -0.3060
 3453TIP3    H131994   2.281   4.908   0.753 -0.5353 -1.0946  0.9852
 3453TIP3    H231995   2.184   4.948   0.862 -0.1531  1.9337  0.2509
 3454TIP3   OH231996   0.758   4.490   0.173  0.4385  0.3251  0.0598
 3454TIP3    H131997   0.692   4.481   0.105  0.6059  0.3034 -0.1023
 3454TIP3    H231998   0.718   4.547   0.238  0.2920  0.3809 -0.0775
 3455TIP3   OH231999   6.608   4.346   6.011  0.2482 -0.2261 -0.3158
 3455TIP3    H132000   6.636   4.255   5.999 -1.0367 -0.6831  0.0204
 3455TIP3    H232001   6.667   4.380   6.078  0.3541 -1.0026 -0.0043
 3456TIP3   OH232002   3.374   4.379   6.184  0.3983 -0.3531  0.2900
 3456TIP3    H132003   3.455   4.362   6.136  0.6528 -0.0316  0.6002
 3456TIP3    H232004   3.321   4.432   6.124  1.2222  1.1046  0.8178
 3457TIP3   OH232005   5.828   6.201   7.632 -0.6797 -0.0674  0.2608
 3457TIP3    H132006   5.852   6.115   7.599  1.9839 -0.3768  2.8026
 3457TIP3    H232007   5.738   6.191   7.663  0.4026 -2.6781  2.7830
 3458TIP3   OH232008   3.864   5.668   1.364  0.2532 -0.3271 -0.4007
 3458TIP3    H132009   3.896   5.667   1.454 -0.8097  0.5980  0.0041
 3458TIP3    H232010   3.769   5.673   1.373 -0.0311 -2.8615 -1.5719
 3459TIP3   OH232011   3.093   5.037   6.039  0.7472 -0.1908 -0.1615
 3459TIP3    H132012   3.030   5.105   6.065  1.1770  0.6357 -1.2352
 3459TIP3    H232013   3.178   5.071   6.068  1.0348  0.0030 -1.2013
 3460TIP3   OH232014   1.419   5.798   1.559 -0.0931  0.3928  0.4538
 3460TIP3    H132015   1.329   5.831   1.550 -0.0690  0.5508  0.7997
 3460TIP3    H232016   1.470   5.875   1.585  0.2860  0.4864 -0.5402
 3461TIP3   OH232017   1.222   2.811   1.736  0.1857  0.2932 -0.0597
 3461TIP3    H132018   1.190   2.896   1.766 -1.3578  0.8251 -3.0130
 3461TIP3    H232019   1.269   2.831   1.655  0.8748 -1.5327 -0.1288
 3462TIP3   OH232020   6.498   1.942   1.303 -0.1311  0.4017 -0.0041
 3462TIP3    H132021   6.452   2.026   1.294 -0.8939  0.1464  1.3702
 3462TIP3    H232022   6.432   1.876   1.284  0.6253  0.1177 -1.6924
 3463TIP3   OH232023   0.498   0.792   6.628  0.3526 -0.0560  0.2077
 3463TIP3    H132024   0.444   0.755   6.697 -0.3076 -0.7258 -0.6459
 3463TIP3    H232025   0.480   0.885   6.630 -0.7255 -0.2528  0.0452
 3464TIP3   OH232026   4.034   3.789   7.335 -0.0601  0.0239 -0.3215
 3464TIP3    H132027   4.026   3.839   7.254  2.3114 -0.7568 -1.0603
 3464TIP3    H232028   4.095   3.718   7.314  1.2593  0.2969  2.3699
 3465TIP3   OH232029   6.627   5.619   1.181  0.0825  0.2258  0.1404
 3465TIP3    H132030   6.627   5.582   1.270 -0.4450  0.5815  0.2940
 3465TIP3    H232031   6.706   5.673   1.178 -0.7616  1.5311  0.9610
 3466TIP3   OH232032   2.562   5.271   7.482 -0.3313  0.2091  0.5152
 3466TIP3    H132033   2.531   5.190   7.524 -0.1418 -0.8234 -1.2464
 3466TIP3    H232034   2.628   5.306   7.541 -2.3253  0.5400  2.6193
 3467TIP3   OH232035   3.453   5.220   7.893 -0.5943 -0.5036  0.1017
 3467TIP3    H132036   3.499   5.147   7.935  0.4807  0.2884  0.3371
 3467TIP3    H232037   3.511   5.246   7.821 -1.3994 -0.4498 -0.5377
 3468TIP3   OH232038   3.782   5.373   0.488 -0.2369 -0.0750  0.2131
 3468TIP3    H132039   3.796   5.296   0.543  0.6901 -0.0729 -0.0133
 3468TIP3    H232040   3.705   5.352   0.435  0.6494 -1.2817 -0.6162
 3469TIP3   OH232041   0.720   4.848   0.562 -0.2743  0.1007  1.1865
 3469TIP3    H132042   0.706   4.829   0.470 -0.7999 -0.7355  1.4351
 3469TIP3    H232043   0.640   4.891   0.590 -0.6059 -0.7285  1.5381
 3470TIP3   OH232044   0.823   2.111   7.356  0.0913 -0.0372  0.3644
 3470TIP3    H132045   0.808   2.020   7.332  0.5556  0.2621 -1.1235
 3470TIP3    H232046   0.917   2.124   7.342  0.3875  0.1806  2.3350
 3471TIP3   OH232047   0.937   4.984   2.054 -0.2306 -0.8707  0.1266
 3471TIP3    H132048   1.015   4.996   2.000 -0.4117  1.6070  0.3450
 3471TIP3    H232049   0.952   4.902   2.101  1.3870 -1.3703 -1.2199
 3472TIP3   OH232050   1.085   4.079   1.171 -0.0411 -0.0306  0.5973
 3472TIP3    H132051   0.994   4.078   1.142  0.4619  1.0524 -1.0736
 3472TIP3    H232052   1.105   4.171   1.187  0.1622 -0.4548  2.9639
 3473TIP3   OH232053   3.123   0.260   1.068  0.1047 -0.6397  0.4947
 3473TIP3    H132054   3.085   0.172   1.068 -0.3846 -0.4359 -0.4279
 3473TIP3    H232055   3.049   0.317   1.091  0.3517 -0.4425  0.7959
 3474TIP3   OH232056   2.425   6.696   6.470 -0.0476  0.0105 -0.2675
 3474TIP3    H132057   2.372   6.655   6.538  0.7829 -0.0417  0.3567
 3474TIP3    H232058   2.496   6.740   6.518  1.4377 -1.3475 -1.1700
 3475TIP3   OH232059   2.253   6.881   1.467 -0.2105 -0.6873  0.0515
 3475TIP3    H132060   2.180   6.921   1.421  0.9244  0.0351 -1.1564
 3475TIP3    H232061   2.313   6.954   1.486  0.8145 -1.4658 -0.1508
 3476TIP3   OH232062   0.720   3.170   0.255 -0.1496  0.0504  0.0902
 3476TIP3    H132063   0.660   3.241   0.232  0.5087  1.2645  1.9446
 3476TIP3    H232064   0.665   3.107   0.302 -0.4466 -0.0035 -0.3214
 3477TIP3   OH232065   2.151   5.786   0.172 -0.0805 -0.1416 -0.6821
 3477TIP3    H132066   2.105   5.869   0.160  0.1041 -0.2269 -1.9860
 3477TIP3    H232067   2.231   5.809   0.218  0.4248  0.5325 -1.8890
 3478TIP3   OH232068   1.767   4.663   1.016  0.0949 -0.0079  0.0411
 3478TIP3    H132069   1.695   4.600   1.025 -0.0620 -0.1220 -1.8671
 3478TIP3    H232070   1.842   4.619   1.056  0.5986 -2.4876 -3.3958
 3479TIP3   OH232071   7.082   3.529   0.351  0.0478  0.3511  0.1464
 3479TIP3    H132072   7.043   3.504   0.267  0.1038  0.6803  0.0214
 3479TIP3    H232073   7.097   3.446   0.396 -1.6863  0.2510  0.5908
 3480TIP3   OH232074   1.197   2.938   6.819 -0.2596 -0.2953 -0.7423
 3480TIP3    H132075   1.143   2.927   6.741 -0.1793 -2.9675 -0.4806
 3480TIP3    H232076   1.183   2.857   6.869 -1.2623  1.8589  2.6166
 3481TIP3   OH232077   5.609   3.553   8.107 -0.0374 -0.1500 -0.2392
 3481TIP3    H132078   5.532   3.516   8.151 -0.3056  0.8537  0.1615
 3481TIP3    H232079   5.681   3.496   8.132  0.0225  0.9725  2.3895
 3482TIP3   OH232080   6.655   2.701   0.190 -1.1865  0.0120  0.1276
 3482TIP3    H132081   6.670   2.742   0.105  1.7579 -0.2223  0.4675
 3482TIP3    H232082   6.736   2.716   0.239 -2.1393 -1.4064  2.2508
 3483TIP3   OH232083   3.582   5.730   1.513  0.1480 -0.4877 -0.0447
 3483TIP3    H132084   3.541   5.645   1.493 -0.0197 -0.3360 -0.3503
 3483TIP3    H232085   3.658   5.708   1.567 -0.0507 -0.8117  0.1043
 3484TIP3   OH232086   1.069   6.338   7.185  0.3434 -0.0467  0.3373
 3484TIP3    H132087   1.120   6.269   7.143  0.3926  0.1819  0.0170
 3484TIP3    H232088   1.038   6.299   7.266  0.9958 -0.2070  0.5168
 3485TIP3   OH232089   2.948   3.502   0.444 -0.4280  0.3591  0.5495
 3485TIP3    H132090   2.861   3.527   0.472 -0.2207  1.8597 -0.0760
 3485TIP3    H232091   2.980   3.443   0.512 -1.9588 -0.2778  0.7252
 3486TIP3   OH232092   1.793   2.432   0.617 -0.7052  0.5710  0.0734
 3486TIP3    H132093   1.840   2.349   0.626  0.9119  1.1552 -2.4317
 3486TIP3    H232094   1.855   2.499   0.646 -1.0791  1.0961 -0.3118
 3487TIP3   OH232095   3.394   4.087   1.724 -0.3438 -0.1543  0.4026
 3487TIP3    H132096   3.435   4.045   1.799  0.0400  0.6919  0.6818
 3487TIP3    H232097   3.338   4.020   1.685  0.3601 -0.9476  0.7567
 3488TIP3   OH232098   6.375   5.769   0.021 -0.7012  0.6946 -0.7178
 3488TIP3    H132099   6.362   5.691   0.075 -1.9377  0.4158 -1.3850
 3488TIP3    H232100   6.416   5.735  -0.059 -1.2096  0.7360 -0.9944
 3489TIP3   OH232101   5.227   0.030   6.763 -0.3228  0.1519  0.0831
 3489TIP3    H132102   5.316  -0.004   6.759  0.3626  1.6197  2.2904
 3489TIP3    H232103   5.171  -0.047   6.755  1.1733 -1.1183  1.6825
 3490TIP3   OH232104   6.238   3.633   6.844 -0.9870 -0.1611  0.6990
 3490TIP3    H132105   6.305   3.646   6.911 -0.8778  0.6014  0.4549
 3490TIP3    H232106   6.281   3.584   6.774 -0.0136  2.2037 -0.4363
 3491TIP3   OH232107   0.570   2.080   8.029  0.3145 -0.1516 -0.0302
 3491TIP3    H132108   0.649   2.075   7.975  0.2280 -0.0055 -0.1732
 3491TIP3    H232109   0.500   2.045   7.973  0.1860  0.2013 -0.0899
 3492TIP3   OH232110   7.067   7.071   0.173  0.4933 -0.0045 -0.0025
 3492TIP3    H132111   7.117   7.106   0.099 -1.6873  1.5171 -0.8095
 3492TIP3    H232112   6.983   7.044   0.135  1.1783 -3.9633  1.0410
 3493TIP3   OH232113   4.432   1.760   7.693  0.1309  0.2127  0.1648
 3493TIP3    H132114   4.515   1.729   7.659 -0.9768 -1.5306 -1.0368
 3493TIP3    H232115   4.399   1.820   7.625 -0.5503 -0.7246 -0.3471
 3494TIP3   OH232116   5.520   2.445   6.560  0.7187  0.6058 -0.1374
 3494TIP3    H132117   5.437   2.406   6.532  1.3665 -0.2756 -0.8841
 3494TIP3    H232118   5.541   2.510   6.493  0.0308  1.6955  0.6936
 3495TIP3   OH232119   2.372   5.653   7.328 -0.1037 -0.1130  0.4455
 3495TIP3    H132120   2.381   5.719   7.397 -1.2198 -0.5699  1.0281
 3495TIP3    H232121   2.311   5.692   7.266 -1.3050 -0.8702  1.1336
 3496TIP3   OH232122   2.011   6.055   6.697  0.0993 -0.1139  0.1300
 3496TIP3    H132123   2.012   5.976   6.643  2.2904  0.6280 -0.9781
 3496TIP3    H232124   1.919   6.067   6.720 -0.6886 -1.3380 -2.1631
 3497TIP3   OH232125   3.570   4.233   0.425 -0.1273  0.3813 -0.1122
 3497TIP3    H132126   3.476   4.245   0.435 -0.3773 -2.6879  2.0840
 3497TIP3    H232127   3.609   4.297   0.485 -0.8214  1.1717 -0.4923
 3498TIP3   OH232128   1.653   3.919   7.025 -0.0493 -0.2161  0.3876
 3498TIP3    H132129   1.609   3.988   7.075  0.7206 -0.3820  1.3152
 3498TIP3    H232130   1.645   3.946   6.934  0.6978  1.3558  0.7783
 3499TIP3   OH232131   1.694   0.518   0.434  1.1793  0.1399 -0.0260
 3499TIP3    H132132   1.746   0.441   0.409  3.4399  1.7461 -0.3939
 3499TIP3    H232133   1.698   0.575   0.357  0.5350  1.1428  0.6831
 3500TIP3   OH232134   4.883   5.253   7.196  0.6141  0.1939 -0.1874
 3500TIP3    H132135   4.879   5.278   7.104  2.8872 -1.2045 -0.7011
 3500TIP3    H232136   4.793   5.263   7.228 -1.0183 -2.9033 -3.5304
 3501TIP3   OH232137   0.474   6.104   0.334  0.4617 -0.0757 -0.2057
 3501TIP3    H132138   0.485   6.011   0.313 -2.0096 -0.3830 -0.3124
 3501TIP3    H232139   0.382   6.111   0.362  0.8396  2.1954  0.5320
 3502TIP3   OH232140   1.267   4.948   0.936  0.8442  0.2789  0.1892
 3502TIP3    H132141   1.326   5.006   0.888  0.9836  1.1385  1.3861
 3502TIP3    H232142   1.306   4.861   0.925  2.7880  0.9129  1.5384
 3503TIP3   OH232143   2.045   3.929   1.726  0.1207 -0.5242  0.6802
 3503TIP3    H132144   1.988   4.006   1.726 -0.0722 -0.6612 -0.2783
 3503TIP3    H232145   2.115   3.951   1.788  1.1309  1.2217 -1.0005
 3504TIP3   OH232146   5.402   4.918   0.133  0.3138  0.7190  0.1983
 3504TIP3    H132147   5.457   4.955   0.064 -3.2112  0.0758 -3.1743
 3504TIP3    H232148   5.361   4.994   0.174 -0.9432  0.9890 -1.4766
 3505TIP3   OH232149   1.421   3.753   0.888 -0.1582  0.0796 -0.4137
 3505TIP3    H132150   1.341   3.710   0.858 -0.1337 -0.1258 -0.1849
 3505TIP3    H232151   1.390   3.829   0.938 -0.2529 -0.9261  1.0978
 3506TIP3   OH232152   0.072   3.129   6.739 -0.1393  0.1055 -0.4085
 3506TIP3    H132153   0.151   3.161   6.782 -0.1087 -1.0260  0.4164
 3506TIP3    H232154   0.051   3.048   6.786 -1.3459 -0.0063 -1.1270
 3507TIP3   OH232155   6.876   5.697   0.900 -0.5134 -0.1491 -0.2956
 3507TIP3    H132156   6.804   5.665   0.845  0.0420 -1.1735 -0.4517
 3507TIP3    H232157   6.834   5.723   0.982 -1.3049  1.0726 -1.0745
 3508TIP3   OH232158   3.804   2.588   6.416 -0.0297  0.0566 -0.3123
 3508TIP3    H132159   3.822   2.534   6.339 -0.8390  1.2708 -1.3643
 3508TIP3    H232160   3.709   2.601   6.415  0.3427  3.1823 -1.2590
 3509TIP3   OH232161   2.373   4.468   7.969 -0.5518  0.3395 -0.5190
 3509TIP3    H132162   2.463   4.436   7.966 -0.2688  0.8410  1.8479
 3509TIP3    H232163   2.375   4.550   7.920  0.3234  0.4327 -0.3408
 3510TIP3   OH232164   4.761   2.686   7.124  0.0466  0.4016 -0.3784
 3510TIP3    H132165   4.681   2.734   7.143  0.7041  1.0158  0.8636
 3510TIP3    H232166   4.742   2.638   7.043 -1.5565  0.5605 -0.0949
 3511TIP3   OH232167   0.262   5.932   1.271  0.6082  0.3794  0.5330
 3511TIP3    H132168   0.339   5.950   1.216  0.2493 -0.8805 -0.4254
 3511TIP3    H232169   0.293   5.866   1.333 -0.0010 -1.0079 -0.6162
 3512TIP3   OH232170   1.743   6.138   7.997  0.0976 -0.4567  0.4794
 3512TIP3    H132171   1.788   6.222   8.009  0.3979 -0.8365  2.0381
 3512TIP3    H232172   1.755   6.092   8.080 -0.2245 -1.9701 -0.2987
 3513TIP3   OH232173   3.940   6.367   7.291 -0.3039 -0.2862 -0.4082
 3513TIP3    H132174   4.005   6.297   7.300  1.6048  1.4675 -0.1022
 3513TIP3    H232175   3.955   6.402   7.203 -0.1749  0.7749  0.0296
 3514TIP3   OH232176   4.408   4.362   6.769 -0.2347 -0.4143 -0.2261
 3514TIP3    H132177   4.397   4.272   6.801 -0.1259 -0.4143 -0.1895
 3514TIP3    H232178   4.387   4.416   6.845  1.3796 -0.4404  0.2477
 3515TIP3   OH232179   2.076   4.898   1.536  0.1995 -0.3282 -0.2783
 3515TIP3    H132180   2.136   4.848   1.480  0.6470  0.1225 -0.2040
 3515TIP3    H232181   2.133   4.952   1.589 -0.1806 -1.3272  1.1764
 3516TIP3   OH232182   1.949   4.657   2.029  1.0091  0.1509  0.1015
 3516TIP3    H132183   1.956   4.740   1.983  0.8644  0.0344 -0.1293
 3516TIP3    H232184   2.038   4.621   2.027  0.8421 -0.2155 -0.7586
 3517TIP3   OH232185   0.563   5.247   0.808  0.1455  0.0654  0.4326
 3517TIP3    H132186   0.610   5.225   0.888  0.4497  2.6429  1.0154
 3517TIP3    H232187   0.471   5.231   0.828  0.3736 -0.8495  0.7415
 3518TIP3   OH232188   3.107   4.037   1.096 -0.0665  0.0592 -0.5550
 3518TIP3    H132189   3.178   4.079   1.047  0.9758 -1.4045 -0.3284
 3518TIP3    H232190   3.097   3.951   1.055 -1.2007 -0.0425 -0.0856
 3519TIP3   OH232191   6.228   1.139   6.809  0.0304 -0.0166 -0.1960
 3519TIP3    H132192   6.184   1.216   6.845  1.2302  0.3321  0.5459
 3519TIP3    H232193   6.157   1.077   6.791 -0.5742 -0.5285  3.5678
 3520TIP3   OH232194   3.796   2.043   7.219  0.0073 -0.4405 -0.4005
 3520TIP3    H132195   3.848   2.097   7.279  0.8916 -1.8721  0.1538
 3520TIP3    H232196   3.831   2.064   7.132 -0.2029  0.4603 -0.2766
 3521TIP3   OH232197   3.989   3.269   8.010  0.5868 -0.3342 -0.0034
 3521TIP3    H132198   4.029   3.185   7.991  0.9302 -0.3591  0.8129
 3521TIP3    H232199   4.044   3.308   8.079 -0.5958 -0.2473  0.9156
 3522TIP3   OH232200   6.474   3.686   7.001  0.4137 -0.3263 -0.2218
 3522TIP3    H132201   6.497   3.718   6.914  3.1688  0.8329  0.8712
 3522TIP3    H232202   6.511   3.598   7.006 -0.6446 -0.8038 -0.5587
 3523TIP3   OH232203   6.253   5.362   6.638 -0.5694  0.4888  0.2297
 3523TIP3    H132204   6.267   5.298   6.569  1.2635 -2.7748  3.4486
 3523TIP3    H232205   6.160   5.355   6.660 -1.0241  1.1207 -1.4652
 3524TIP3   OH232206   2.825   5.134   7.481 -0.2397  0.9633 -0.2935
 3524TIP3    H132207   2.906   5.084   7.479 -1.0926 -0.4272 -1.4915
 3524TIP3    H232208   2.768   5.090   7.418 -1.6379  2.4089 -0.0884
 3525TIP3   OH232209   2.955   4.477   7.720 -0.0491 -0.3613  0.2907
 3525TIP3    H132210   2.887   4.428   7.674  0.8262  1.8789 -3.5901
 3525TIP3    H232211   3.037   4.442   7.687  0.6470  0.1877  1.4083
 3526TIP3   OH232212   3.114   6.521   5.982  0.2065 -0.3580 -0.0789
 3526TIP3    H132213   3.106   6.425   5.980 -0.9834 -0.2571 -0.7116
 3526TIP3    H232214   3.027   6.552   6.006  0.6966  0.5666  0.5573
 3527TIP3   OH232215   3.902   5.756   1.629  0.0014 -0.1839  0.3773
 3527TIP3    H132216   3.931   5.711   1.708  1.6684  1.0235  0.4797
 3527TIP3    H232217   3.903   5.849   1.652  3.5512  0.4737 -1.9430
 3528TIP3   OH232218   3.783   2.995   1.630 -0.2076 -0.3015  0.0939
 3528TIP3    H132219   3.718   3.028   1.693  0.2674 -0.9275  0.9297
 3528TIP3    H232220   3.761   2.902   1.621 -0.6395 -0.0893 -1.1269
 3529TIP3   OH232221   5.108   3.075   7.172 -0.4772  0.4705  0.1072
 3529TIP3    H132222   5.051   3.030   7.109  1.6079 -0.3432 -1.2675
 3529TIP3    H232223   5.070   3.055   7.257  0.9785 -4.9022 -0.3505
 3530TIP3   OH232224   4.312   6.878   1.618  0.0444 -0.4913  0.0282
 3530TIP3    H132225   4.319   6.923   1.702  0.7636  1.2269 -0.9406
 3530TIP3    H232226   4.217   6.871   1.602 -0.0701  1.6678 -0.3237
 3531TIP3   OH232227   2.034   2.150   7.311 -0.3129  0.1315  0.6551
 3531TIP3    H132228   2.044   2.089   7.384  1.3268  2.5181  2.5215
 3531TIP3    H232229   2.015   2.234   7.353 -0.0492  1.4244 -1.7236
 3532TIP3   OH232230   5.658   1.314   7.340  0.0762 -0.3670 -0.0243
 3532TIP3    H132231   5.719   1.271   7.280  0.6613 -0.4473  0.6171
 3532TIP3    H232232   5.612   1.242   7.382 -0.3687 -0.3096 -0.4142
 3533TIP3   OH232233   2.165   4.003   0.270 -0.4375  0.3851  0.3501
 3533TIP3    H132234   2.226   3.981   0.199 -0.2271  2.8828 -0.2710
 3533TIP3    H232235   2.114   3.922   0.283  0.3119 -0.4842 -1.8469
 3534TIP3   OH232236   0.404   4.464   7.352 -0.2694  0.2221  0.0213
 3534TIP3    H132237   0.448   4.452   7.268  2.0340  1.3938  1.0253
 3534TIP3    H232238   0.403   4.559   7.365 -1.5119  0.1025  0.8631
 3535TIP3   OH232239   2.461   3.013   2.033 -0.4691 -0.9133 -0.0505
 3535TIP3    H132240   2.535   3.022   1.972 -0.4131  0.3273  0.1868
 3535TIP3    H232241   2.502   3.013   2.119 -0.6730 -1.1210  0.0441
 3536TIP3   OH232242   3.309   3.866   0.778 -0.0939 -0.4516 -0.0520
 3536TIP3    H132243   3.223   3.894   0.746  0.2764 -0.5263 -1.1296
 3536TIP3    H232244   3.321   3.778   0.742  2.3463  1.2411 -3.7055
 3537TIP3   OH232245   3.357   5.522   6.576  0.4825  0.0926  0.6174
 3537TIP3    H132246   3.276   5.567   6.598  0.3426  0.1888 -0.0836
 3537TIP3    H232247   3.332   5.430   6.569  0.2597  0.2165 -0.3827
 3538TIP3   OH232248   4.471   4.157   0.764  0.3869  0.6135  0.2535
 3538TIP3    H132249   4.505   4.071   0.740 -0.7202 -0.1132  1.2134
 3538TIP3    H232250   4.379   4.154   0.737 -0.1389  0.8069  1.9738
 3539TIP3   OH232251   6.073   3.763   1.924 -0.6098  0.6496  0.6455
 3539TIP3    H132252   6.062   3.836   1.864  2.1018 -0.3673 -1.1852
 3539TIP3    H232253   6.133   3.795   1.991  0.2114  0.2699  0.0993
 3540TIP3   OH232254   6.518   6.965   6.786 -0.4441  0.2520 -0.0873
 3540TIP3    H132255   6.447   7.005   6.736 -0.9118 -0.3710  0.0692
 3540TIP3    H232256   6.527   6.877   6.749  0.2279  0.3169 -0.0854
 3541TIP3   OH232257   3.444   6.325   6.546 -0.1552  0.1988 -0.7341
 3541TIP3    H132258   3.445   6.389   6.476 -3.0563 -0.8975 -1.8410
 3541TIP3    H232259   3.352   6.298   6.554  0.3945 -1.0609  2.2253
 3542TIP3   OH232260   5.172   1.467   0.368  0.1502 -0.0217  0.4059
 3542TIP3    H132261   5.096   1.518   0.396 -0.6738 -1.2828  0.5358
 3542TIP3    H232262   5.143   1.376   0.375  1.2096 -0.4721 -0.9024
 3543TIP3   OH232263   2.545   3.481   7.325 -0.4778  0.3337  0.1339
 3543TIP3    H132264   2.579   3.393   7.343  1.3882  1.0328  0.0796
 3543TIP3    H232265   2.553   3.528   7.408  0.1102  0.9621 -0.2720
 3544TIP3   OH232266   4.202   4.898   6.584 -0.0038 -0.5387  0.5007
 3544TIP3    H132267   4.148   4.950   6.525  1.3399  0.3544  0.0314
 3544TIP3    H232268   4.235   4.826   6.530  0.6172 -0.1417  0.3399
 3545TIP3   OH232269   6.432   6.782   0.243 -0.0925 -0.1740  0.1829
 3545TIP3    H132270   6.377   6.753   0.171  1.1256  1.1529 -1.3103
 3545TIP3    H232271   6.508   6.724   0.241 -0.5116 -0.7737  1.0462
 3546TIP3   OH232272   4.935   6.976   8.065 -0.0425 -0.9012 -0.6631
 3546TIP3    H132273   4.869   7.021   8.012 -1.5211  0.9629  2.5877
 3546TIP3    H232274   4.951   7.035   8.139  0.7807 -4.0059  1.7595
 3547TIP3   OH232275   1.484   5.495   7.401 -0.4150 -0.1090 -0.5738
 3547TIP3    H132276   1.409   5.514   7.458 -1.1858  1.2497 -2.0155
 3547TIP3    H232277   1.560   5.501   7.459 -1.3291 -0.5772  0.7040
 3548TIP3   OH232278   4.097   4.070   6.471 -0.2419  0.1916  0.1620
 3548TIP3    H132279   4.103   4.162   6.496  0.8919 -0.4207  2.3014
 3548TIP3    H232280   4.188   4.040   6.467 -0.5744 -0.7068 -1.0781
 3549TIP3   OH232281   2.818   5.378   6.726 -0.2142  0.2825  0.6217
 3549TIP3    H132282   2.905   5.338   6.715 -1.2647 -1.7735 -0.5579
 3549TIP3    H232283   2.763   5.307   6.759 -2.1106  0.7458 -1.3839
 3550TIP3   OH232284   3.339   5.809   0.094  0.2150 -0.2362 -0.2768
 3550TIP3    H132285   3.302   5.782   0.009  1.0247  0.7243 -0.9413
 3550TIP3    H232286   3.423   5.849   0.072 -0.4975  1.9398  0.7713
 3551TIP3   OH232287   6.777   5.587   1.605 -0.2239 -0.4037  0.8250
 3551TIP3    H132288   6.811   5.541   1.528 -0.2017  2.4942 -1.0112
 3551TIP3    H232289   6.853   5.598   1.662  0.4033 -0.0815 -0.0616
 3552TIP3   OH232290   1.275   4.454   0.604 -0.7766 -0.1845  0.1137
 3552TIP3    H132291   1.221   4.499   0.539 -1.8998  1.0030  1.8174
 3552TIP3    H232292   1.265   4.361   0.584 -1.8137  0.1238 -0.8623
 3553TIP3   OH232293   5.815   1.080   1.798 -0.1495  0.0888  0.2572
 3553TIP3    H132294   5.870   1.100   1.874 -0.2344 -1.0947  0.6458
 3553TIP3    H232295   5.877   1.051   1.731 -0.0593  1.2929 -0.1884
 3554TIP3   OH232296   6.237   4.850   7.512 -0.5041 -0.0762  0.2291
 3554TIP3    H132297   6.264   4.900   7.589 -0.4724  0.1437  0.0773
 3554TIP3    H232298   6.294   4.772   7.513  1.4016  1.2478 -1.0656
 3555TIP3   OH232299   2.002   5.770   1.975 -0.1553  0.3531 -0.1086
 3555TIP3    H132300   1.984   5.723   2.057 -0.8167  0.4264 -0.2068
 3555TIP3    H232301   2.096   5.758   1.961  0.1581  1.1976  1.1884
 3556TIP3   OH232302   2.934   1.293   8.043  0.2437 -0.6063 -0.8607
 3556TIP3    H132303   2.946   1.319   8.134 -0.4633  0.3889 -1.0420
 3556TIP3    H232304   2.839   1.297   8.030  0.5071  1.8902 -2.3885
 3557TIP3   OH232305   4.305   1.749   6.424 -0.1260 -0.6023  0.2742
 3557TIP3    H132306   4.308   1.751   6.328 -2.4680 -0.9479  0.1576
 3557TIP3    H232307   4.304   1.656   6.446  1.8038 -0.5451  0.7340
 3558TIP3   OH232308   6.663   6.390   6.596  0.3812 -0.2142 -0.3902
 3558TIP3    H132309   6.681   6.315   6.538  0.0800  0.9285 -2.0094
 3558TIP3    H232310   6.663   6.353   6.684  0.7739 -2.0237 -1.1249
 3559TIP3   OH232311   4.516   5.729   1.540  0.2158 -0.4045 -0.4713
 3559TIP3    H132312   4.469   5.681   1.472 -0.2216 -1.9646  0.8987
 3559TIP3    H232313   4.447   5.770   1.592  0.5123  0.1115 -0.4849
 3560TIP3   OH232314   6.931   4.406   7.335 -0.1855 -0.2855  1.2143
 3560TIP3    H132315   6.920   4.495   7.301  1.7244 -0.4822  0.0272
 3560TIP3    H232316   6.913   4.413   7.429 -1.2391  1.1130  0.9145
 3561TIP3   OH232317   3.446   3.063   1.481 -0.5388 -0.2032 -0.5476
 3561TIP3    H132318   3.518   3.117   1.447  0.6867 -2.5709 -1.8225
 3561TIP3    H232319   3.390   3.125   1.528  1.5688  1.9378 -0.7569
 3562TIP3   OH232320   2.365   1.080   6.294  0.2219 -0.1608 -0.1415
 3562TIP3    H132321   2.408   1.083   6.379  0.6296  0.5494 -0.3666
 3562TIP3    H232322   2.284   1.128   6.305  0.5018  0.3442 -0.2794
 3563TIP3   OH232323   4.568   4.712   6.573 -0.1361 -0.0183 -0.2281
 3563TIP3    H132324   4.566   4.705   6.669 -0.4775 -0.6445 -0.2808
 3563TIP3    H232325   4.539   4.801   6.555  1.4328  0.6263  0.3190
 3564TIP3   OH232326   5.644   2.666   6.442  0.3342  0.3623  0.3437
 3564TIP3    H132327   5.641   2.706   6.529 -0.4937 -0.5878  0.7644
 3564TIP3    H232328   5.674   2.736   6.384  0.3383  1.1628  1.2992
 3565TIP3   OH232329   6.080   4.384   0.438 -0.1359 -0.8402  0.7596
 3565TIP3    H132330   6.124   4.304   0.410 -0.5673 -1.2761  1.3252
 3565TIP3    H232331   6.118   4.405   0.523  1.6092  0.8233 -0.3800
 3566TIP3   OH232332   2.359   6.268   7.356 -0.2025  0.4565 -0.3836
 3566TIP3    H132333   2.415   6.251   7.433  0.4415  0.2493 -0.8921
 3566TIP3    H232334   2.360   6.363   7.346 -1.2535  0.5777  0.5768
 3567TIP3   OH232335   5.811   2.318   6.116  0.2494 -0.4889 -0.4366
 3567TIP3    H132336   5.900   2.347   6.099  0.5568 -0.3890  1.1976
 3567TIP3    H232337   5.803   2.234   6.071  1.0438 -0.3091 -0.9182
 3568TIP3   OH232338   6.834   1.098   0.937  0.0700  0.0127  0.1210
 3568TIP3    H132339   6.902   1.065   0.996  0.1337  1.1578  0.7031
 3568TIP3    H232340   6.883   1.137   0.864  0.0354  0.7192  0.4754
 3569TIP3   OH232341   0.239   4.760   7.747  0.3845  0.3824  0.3545
 3569TIP3    H132342   0.218   4.805   7.828  0.3229  1.3914 -0.2159
 3569TIP3    H232343   0.330   4.732   7.757 -0.3959 -1.8339  1.8312
 3570TIP3   OH232344   0.313   3.751   5.955  0.4525  0.0599  0.3544
 3570TIP3    H132345   0.397   3.746   6.001  0.6125 -0.8736 -0.0229
 3570TIP3    H232346   0.294   3.845   5.949  2.9047  0.4814 -2.1065
 3571TIP3   OH232347   2.422   2.765   0.635  0.0800 -0.0724  0.6106
 3571TIP3    H132348   2.444   2.685   0.684  3.4784 -2.1817 -3.9335
 3571TIP3    H232349   2.488   2.829   0.663  1.4048 -0.9696 -0.3570
 3572TIP3   OH232350   0.463   3.615   1.089  0.3370  0.0200  0.1638
 3572TIP3    H132351   0.530   3.549   1.070 -0.0715 -0.0130 -1.1927
 3572TIP3    H232352   0.386   3.564   1.115  0.9080  0.0659  2.0200
 3573TIP3   OH232353   3.452   4.074   6.983 -0.1969  0.0454  0.7989
 3573TIP3    H132354   3.391   4.096   7.053  0.4167 -1.6553  1.8942
 3573TIP3    H232355   3.494   3.993   7.012  1.8417  0.6314 -0.3998
 3574TIP3   OH232356   1.390   3.261   1.547  0.2404 -0.1333 -0.5369
 3574TIP3    H132357   1.415   3.265   1.455  0.0741  0.2354 -0.5655
 3574TIP3    H232358   1.390   3.167   1.567 -0.8804 -0.2918 -1.2348
 3575TIP3   OH232359   5.953   4.134   7.063 -0.3983  0.1162  0.3184
 3575TIP3    H132360   5.960   4.063   6.999  1.2676  0.1975  0.3754
 3575TIP3    H232361   6.015   4.109   7.132 -1.6706  0.3679  1.5704
 3576TIP3   OH232362   3.722   4.462   1.603 -0.0015  0.2743  0.3056
 3576TIP3    H132363   3.705   4.369   1.586 -0.8357  0.4694  0.0456
 3576TIP3    H232364   3.809   4.478   1.565  1.4309 -1.0748  2.9070
 3577TIP3   OH232365   3.165   4.934   1.690 -0.0619  0.1775  0.2279
 3577TIP3    H132366   3.183   4.933   1.784  0.5743 -2.9361  0.1082
 3577TIP3    H232367   3.246   4.904   1.650 -1.0877 -0.7729 -1.1798
 3578TIP3   OH232368   5.707   5.155   7.567  0.1046  0.2703 -0.3287
 3578TIP3    H132369   5.692   5.124   7.477  1.8914  1.7619 -1.1663
 3578TIP3    H232370   5.722   5.249   7.558  1.3790  0.2559  1.4073
 3579TIP3   OH232371   4.271   5.407   7.424 -0.4363 -0.8720  0.4711
 3579TIP3    H132372   4.289   5.493   7.387 -0.2074 -0.6395  1.1169
 3579TIP3    H232373   4.232   5.357   7.352 -0.2203 -0.3485 -0.0081
 3580TIP3   OH232374   4.194   0.095   6.855  0.0822  0.2078  0.1153
 3580TIP3    H132375   4.230   0.146   6.781 -0.3976  0.9379  0.3827
 3580TIP3    H232376   4.244   0.125   6.931 -1.3376  1.5326  0.5637
 3581TIP3   OH232377   2.918   4.419   7.985  0.4468 -0.0732  0.0238
 3581TIP3    H132378   2.960   4.453   7.906  0.8694 -0.9200 -0.1226
 3581TIP3    H232379   2.977   4.351   8.017 -1.0463 -1.6619 -0.4846
 3582TIP3   OH232380   7.125   1.953   6.270 -0.1516  0.4496 -0.0210
 3582TIP3    H132381   7.077   2.023   6.315  0.5166  0.9399 -0.0646
 3582TIP3    H232382   7.057   1.903   6.225 -0.6140  1.2077 -0.1797
 3583TIP3   OH232383   4.450   0.739   1.530 -0.5313  0.2027  0.0258
 3583TIP3    H132384   4.448   0.763   1.623  0.3934  1.0133 -0.1478
 3583TIP3    H232385   4.374   0.781   1.492 -0.4655  0.5334  0.2627
 3584TIP3   OH232386   0.094   2.670   7.838  0.2049  1.0340 -0.0767
 3584TIP3    H132387   0.105   2.637   7.927 -0.2427  0.4104 -0.2548
 3584TIP3    H232388   0.089   2.592   7.783  0.6236  1.4191 -0.6691
 3585TIP3   OH232389   3.329   2.759   0.965  0.1757  0.2591  0.1393
 3585TIP3    H132390   3.291   2.676   0.994  0.3070 -0.1268 -0.7656
 3585TIP3    H232391   3.256   2.821   0.967 -0.2858 -0.2378 -0.6048
 3586TIP3   OH232392   6.343   4.942   1.205  0.5535  0.4791 -0.0311
 3586TIP3    H132393   6.415   5.005   1.205  1.0573 -0.0748 -1.3410
 3586TIP3    H232394   6.295   4.960   1.124 -0.5348  0.5646  0.6277
 3587TIP3   OH232395   7.121   5.640   6.793  0.3882 -0.3333 -0.1737
 3587TIP3    H132396   7.148   5.704   6.727 -1.7145 -0.3821 -1.1498
 3587TIP3    H232397   7.074   5.691   6.858 -1.9581 -0.9024 -1.3373
 3588TIP3   OH232398   6.205   2.929   6.607 -0.0816 -0.3548  0.1255
 3588TIP3    H132399   6.233   3.016   6.636  0.0670  0.1499 -1.4748
 3588TIP3    H232400   6.142   2.946   6.536  2.2517 -1.5234 -2.3243
 3589TIP3   OH232401   1.345   5.599   1.769  0.2524  0.5853  0.0799
 3589TIP3    H132402   1.258   5.559   1.760  0.1386  0.8966 -0.2199
 3589TIP3    H232403   1.349   5.664   1.699  0.5257  0.9450  0.4261
 3590TIP3   OH232404   6.926   4.921   0.039  0.3571 -0.1976 -0.1791
 3590TIP3    H132405   6.999   4.969  -0.001  1.3104 -0.8429  0.7899
 3590TIP3    H232406   6.914   4.844  -0.017  1.5836 -1.0151  0.6832
 3591TIP3   OH232407   0.859   6.081   6.125 -0.2082  0.7827 -0.3804
 3591TIP3    H132408   0.946   6.120   6.128  0.3136 -0.4429  2.4010
 3591TIP3    H232409   0.867   6.006   6.066  0.6936  0.5063  0.0981
 3592TIP3   OH232410   0.423   2.786   7.959  1.4760  0.5028 -0.3312
 3592TIP3    H132411   0.448   2.860   7.903 -1.7975  1.0903 -1.1096
 3592TIP3    H232412   0.362   2.824   8.022  0.8847 -1.2777  0.1797
 3593TIP3   OH232413   3.520   4.702   6.760 -0.0735 -0.4890 -0.6983
 3593TIP3    H132414   3.504   4.696   6.665 -1.0143  1.8986 -0.7189
 3593TIP3    H232415   3.527   4.611   6.788 -2.1635 -1.3395 -2.6984
 3594TIP3   OH232416   4.278   6.074   0.631  0.1942 -0.2936 -0.1190
 3594TIP3    H132417   4.312   6.078   0.541 -1.8488  0.3937 -0.8741
 3594TIP3    H232418   4.305   5.987   0.662  1.0568 -0.4794 -1.3430
 3595TIP3   OH232419   1.149   5.991   7.094 -0.1097  0.1293  0.3833
 3595TIP3    H132420   1.141   6.008   7.000  0.0612  1.1526  0.5413
 3595TIP3    H232421   1.217   5.924   7.100 -0.0455  0.1315 -0.2210
 3596TIP3   OH232422   1.707   5.550   7.539  0.0483  0.4336 -0.1849
 3596TIP3    H132423   1.667   5.501   7.611 -0.4333  0.3665 -0.4917
 3596TIP3    H232424   1.800   5.529   7.544  0.1991  1.3707  1.1437
 3597TIP3   OH232425   6.914   0.805   6.889 -0.0219 -0.2982 -0.7798
 3597TIP3    H132426   6.877   0.794   6.801 -0.6205 -0.1861 -0.5421
 3597TIP3    H232427   7.008   0.803   6.875 -0.1147 -0.7176 -1.3716
 3598TIP3   OH232428   4.045   4.516   1.140  0.3673 -0.7715 -0.0408
 3598TIP3    H132429   4.063   4.444   1.201 -0.7802 -1.2462 -0.2350
 3598TIP3    H232430   3.971   4.484   1.088  1.1390 -0.2504 -1.4856
 3599TIP3   OH232431   4.977   2.021   7.239  0.0623 -0.3494 -0.4017
 3599TIP3    H132432   4.900   2.079   7.234  1.1870  1.1846 -0.3892
 3599TIP3    H232433   5.035   2.065   7.301  0.7416 -1.7510 -0.0476
 3600TIP3   OH232434   6.872   5.387   0.701 -0.1482 -0.6056 -0.4581
 3600TIP3    H132435   6.852   5.405   0.793 -1.1247 -0.5097 -0.6774
 3600TIP3    H232436   6.842   5.466   0.655  1.2558 -0.2339 -0.7466
 3601TIP3   OH232437   4.483   3.611   8.081  0.3667  0.4084  0.3782
 3601TIP3    H132438   4.419   3.540   8.075 -1.5531  1.8075  3.0755
 3601TIP3    H232439   4.462   3.667   8.006  0.3545 -0.6176 -0.4076
 3602TIP3   OH232440   2.624   1.515   1.842 -0.6302 -0.0319  0.3024
 3602TIP3    H132441   2.692   1.576   1.869  0.9035 -1.7153  0.3463
 3602TIP3    H232442   2.648   1.432   1.883 -3.2793 -0.4243  1.1546
 3603TIP3   OH232443   6.999   6.299   7.572  0.3068  0.5901  0.2499
 3603TIP3    H132444   7.074   6.265   7.524  0.0984  0.1797  0.2080
 3603TIP3    H232445   6.932   6.231   7.562 -0.5692  1.6284 -0.9560
 3604TIP3   OH232446   1.450   5.651   6.418  0.4312  0.5316  0.4997
 3604TIP3    H132447   1.370   5.657   6.470 -0.3050  1.4132 -0.7167
 3604TIP3    H232448   1.462   5.738   6.381  0.2040 -0.4018 -1.8621
 3605TIP3   OH232449   4.022   0.856   1.601 -0.1596 -0.3678 -0.2190
 3605TIP3    H132450   3.980   0.809   1.674 -2.4780  0.1235 -1.1982
 3605TIP3    H232451   4.081   0.918   1.644 -2.7668  1.1140  1.3353
 3606TIP3   OH232452   6.485   1.136   7.176 -0.3162  0.4386 -0.6204
 3606TIP3    H132453   6.392   1.112   7.178 -0.6727  1.8921  0.8835
 3606TIP3    H232454   6.521   1.085   7.103 -2.5311  0.7250 -1.9669
 3607TIP3   OH232455   2.844   4.594   7.460 -0.1141  0.0626 -0.4504
 3607TIP3    H132456   2.816   4.578   7.550 -1.5207  0.0335 -0.8787
 3607TIP3    H232457   2.881   4.510   7.431 -1.6134 -0.5651 -0.5901
 3608TIP3   OH232458   0.301   6.749   1.586 -0.7303 -0.1429  0.3894
 3608TIP3    H132459   0.216   6.719   1.620 -1.1040  0.4017 -0.0479
 3608TIP3    H232460   0.279   6.824   1.531  0.0179 -0.1498  0.0797
 3609TIP3   OH232461   4.593   2.820   1.212  0.3091  0.3559  0.2452
 3609TIP3    H132462   4.556   2.897   1.255  1.6044  1.5338 -0.6930
 3609TIP3    H232463   4.562   2.826   1.122  0.2721 -0.3083  0.2146
 3610TIP3   OH232464   7.024   6.754   5.924 -0.1391  0.2966 -0.0950
 3610TIP3    H132465   6.932   6.730   5.932 -0.0149  0.1989  1.0734
 3610TIP3    H232466   7.066   6.715   6.000  0.3644  2.7352  0.9318
 3611TIP3   OH232467   0.093   1.424   0.605 -0.0781  0.2540 -0.4334
 3611TIP3    H132468   0.178   1.454   0.572 -0.2969  0.5850 -0.7001
 3611TIP3    H232469   0.098   1.435   0.699  1.3403 -2.6495 -0.1062
 3612TIP3   OH232470   7.031   0.525   7.789 -0.0308 -0.1221  0.3352
 3612TIP3    H132471   7.024   0.446   7.842  0.4997  0.6460  1.5652
 3612TIP3    H232472   6.943   0.540   7.755 -0.8918  0.6752  2.8732
 3613TIP3   OH232473   6.537   3.699   6.161 -0.3253  0.1376  0.3280
 3613TIP3    H132474   6.559   3.792   6.150 -0.9778  0.1218 -1.2366
 3613TIP3    H232475   6.552   3.660   6.075 -0.4236 -1.1459  0.8740
 3614TIP3   OH232476   2.573   1.404   7.102 -0.3069 -0.4022  0.4664
 3614TIP3    H132477   2.604   1.494   7.107  1.2179 -0.9053  0.2897
 3614TIP3    H232478   2.651   1.351   7.116 -1.5637 -1.7062  2.9428
 3615TIP3   OH232479   5.326   7.011   0.358 -0.3028 -0.1399  0.1372
 3615TIP3    H132480   5.405   7.046   0.317 -0.5733  0.6646  0.3060
 3615TIP3    H232481   5.336   7.034   0.451 -0.1035 -1.1978  0.3856
 3616TIP3   OH232482   2.709   1.476   7.815 -0.3185 -0.2098 -0.4804
 3616TIP3    H132483   2.701   1.384   7.838 -3.3034  0.3077  0.6719
 3616TIP3    H232484   2.664   1.483   7.730  0.2219  0.1406 -0.7426
 3617TIP3   OH232485   2.903   5.370   0.378 -0.1161  0.5343 -0.1582
 3617TIP3    H132486   2.998   5.380   0.380 -0.2279  2.0354 -1.5117
 3617TIP3    H232487   2.869   5.458   0.395 -1.2662  0.0839 -0.0779
 3618TIP3   OH232488   7.001   3.298   6.820 -0.4753 -0.2597  0.0764
 3618TIP3    H132489   6.908   3.301   6.797 -0.4751 -0.8423 -0.0019
 3618TIP3    H232490   7.020   3.205   6.832  0.3606 -0.2333 -0.9685
 3619TIP3   OH232491   4.677   1.625   7.699 -0.1632  0.4016  0.6560
 3619TIP3    H132492   4.649   1.541   7.735 -0.3525  1.1357  2.2703
 3619TIP3    H232493   4.732   1.664   7.767  0.7026  1.1653 -0.4668
 3620TIP3   OH232494   2.037   4.283   7.423  0.0336 -0.5478  0.0856
 3620TIP3    H132495   2.075   4.196   7.418  0.2358 -0.6494  2.6040
 3620TIP3    H232496   1.950   4.270   7.460 -0.0352  0.2823  0.2432
 3621TIP3   OH232497   0.820   1.267   6.509  0.6431  0.1833  0.1109
 3621TIP3    H132498   0.789   1.247   6.421  0.9965  1.7270 -0.3811
 3621TIP3    H232499   0.751   1.322   6.546  0.8457  0.1590  0.5234
 3622TIP3   OH232500   2.669   6.717   0.796  0.0968 -0.3089  0.6850
 3622TIP3    H132501   2.627   6.759   0.721 -0.0145 -2.2961 -0.3944
 3622TIP3    H232502   2.602   6.716   0.864 -0.7237 -1.0111 -0.1246
 3623TIP3   OH232503   7.067   2.862   6.535 -0.3288 -0.1414 -0.0307
 3623TIP3    H132504   7.119   2.817   6.601 -1.7737 -3.1988 -0.8757
 3623TIP3    H232505   6.996   2.904   6.584 -2.2501 -3.6209  0.3104
 3624TIP3   OH232506   5.196   4.238   7.835  0.4071  0.0044  0.2204
 3624TIP3    H132507   5.135   4.164   7.834  1.3967 -0.8289 -2.6560
 3624TIP3    H232508   5.177   4.286   7.754  1.8180  1.1812  0.5709
 3625TIP3   OH232509   6.338   4.568   0.366 -0.3541 -0.2757 -0.0805
 3625TIP3    H132510   6.281   4.491   0.371  0.8173 -1.1067  0.4990
 3625TIP3    H232511   6.375   4.577   0.454  0.4503  0.2277 -0.4631
 3626TIP3   OH232512   4.287   2.935   1.283  0.1428 -0.1496  0.2677
 3626TIP3    H132513   4.373   2.966   1.310 -0.2312  0.0595  1.2253
 3626TIP3    H232514   4.227   3.005   1.309 -0.2624 -0.0715 -0.8429
 3627TIP3   OH232515   1.548   6.683   6.208 -0.0168 -0.1939 -0.2557
 3627TIP3    H132516   1.506   6.760   6.170  0.7575  0.6191  0.4859
 3627TIP3    H232517   1.594   6.717   6.285  0.5254 -1.3625 -0.0532
 3628TIP3   OH232518   1.708   2.288   6.792 -0.9179  0.2039  0.3533
 3628TIP3    H132519   1.713   2.380   6.764 -1.0819  0.3548  0.8256
 3628TIP3    H232520   1.662   2.290   6.875 -2.0717 -0.4440 -0.2588
 3629TIP3   OH232521   2.907   1.087   0.295  0.5969  0.3051  0.1850
 3629TIP3    H132522   2.824   1.040   0.307  0.1152  0.5011 -2.0818
 3629TIP3    H232523   2.962   1.056   0.366 -0.5412 -1.8534  0.1838
 3630TIP3   OH232524   6.118   3.515   2.037 -0.2253 -0.2933  0.0302
 3630TIP3    H132525   6.191   3.519   2.099  2.1859 -1.1637 -2.6465
 3630TIP3    H232526   6.112   3.603   2.001  0.5754 -0.6155 -0.9101
 3631TIP3   OH232527   3.987   0.091   0.392 -0.1637  0.0285  0.0167
 3631TIP3    H132528   4.070   0.085   0.344  0.4139 -0.7304  1.0810
 3631TIP3    H232529   3.958   0.001   0.402 -1.0931  0.2868 -0.2945
 3632TIP3   OH232530   0.337   6.259   6.564  0.2670 -0.2281  0.9504
 3632TIP3    H132531   0.348   6.277   6.471 -1.0416 -0.8147  0.6707
 3632TIP3    H232532   0.300   6.340   6.600 -1.1722 -0.7096  0.5715
 3633TIP3   OH232533   3.091   6.582   7.336 -0.2517  0.2527  0.6666
 3633TIP3    H132534   2.999   6.598   7.314 -0.2512 -0.5664  0.0510
 3633TIP3    H232535   3.090   6.500   7.385  0.1031  0.4930  1.0871
 3634TIP3   OH232536   7.039   2.188   6.443  0.2154  0.8823 -0.3845
 3634TIP3    H132537   7.065   2.121   6.506  0.5405  1.5425  0.1883
 3634TIP3    H232538   6.947   2.203   6.462  0.5814  1.8764  0.6903
 3635TIP3   OH232539   5.038   6.519   0.876  0.2611  0.2578  0.3040
 3635TIP3    H132540   5.030   6.480   0.789 -0.6824  0.3477  0.3522
 3635TIP3    H232541   5.047   6.444   0.935 -2.5140  0.0427  0.5053
 3636TIP3   OH232542   6.138   1.875   0.901 -0.4891  0.0208 -0.2378
 3636TIP3    H132543   6.051   1.840   0.921 -0.1403 -0.2920  0.7535
 3636TIP3    H232544   6.128   1.970   0.911  0.0504 -0.2171  2.9924
 3637TIP3   OH232545   0.678   4.130   1.458 -0.1847  0.6397 -0.4668
 3637TIP3    H132546   0.611   4.172   1.512 -1.3710 -0.9832 -0.6711
 3637TIP3    H232547   0.649   4.144   1.368  0.3159  0.8403 -0.6030
 3638TIP3   OH232548   2.675   2.735   7.989  0.6995  0.2922  0.1234
 3638TIP3    H132549   2.628   2.669   8.041  0.8930  0.7002  0.8181
 3638TIP3    H232550   2.760   2.744   8.032  0.7836  0.7911 -0.1411
 3639TIP3   OH232551   0.836   0.064   6.785 -0.2853  0.2706 -0.8142
 3639TIP3    H132552   0.888   0.059   6.865  0.3482  0.5988 -1.1958
 3639TIP3    H232553   0.863   0.147   6.744  0.6122 -0.6615 -2.1826
 3640TIP3   OH232554   1.886   6.246   0.657 -0.1214  0.7251 -1.0273
 3640TIP3    H132555   1.908   6.228   0.748 -0.0135  0.0039 -1.1931
 3640TIP3    H232556   1.969   6.272   0.617 -0.2526  1.4628 -0.8167
 3641TIP3   OH232557   6.682   5.586   0.711 -0.1152  0.5544  0.1267
 3641TIP3    H132558   6.674   5.664   0.657 -0.3593  0.2342 -0.3080
 3641TIP3    H232559   6.592   5.563   0.733 -0.0613  0.2263  0.0080
 3642TIP3   OH232560   4.649   5.215   6.511 -0.1054 -0.0297  0.6764
 3642TIP3    H132561   4.662   5.252   6.598 -0.5736 -2.4758  1.8273
 3642TIP3    H232562   4.736   5.181   6.486  0.1141  0.9910  0.0190
 3643TIP3   OH232563   2.650   5.126   6.902  0.3602  0.0775 -0.2854
 3643TIP3    H132564   2.606   5.078   6.832  0.6886 -1.1353  0.3288
 3643TIP3    H232565   2.595   5.111   6.979  0.0402  1.3458 -0.2627
 3644TIP3   OH232566   2.582   2.841   6.559  0.1269  0.2606 -0.7511
 3644TIP3    H132567   2.665   2.838   6.608 -2.1322  0.4853  3.3139
 3644TIP3    H232568   2.559   2.934   6.556 -0.9522  0.0206 -0.0803
 3645TIP3   OH232569   3.731   4.821   6.414  0.4465  0.1095 -0.1276
 3645TIP3    H132570   3.801   4.807   6.478  0.6373  0.8099 -0.1857
 3645TIP3    H232571   3.762   4.777   6.335  1.3233  1.3936 -0.4980
 3646TIP3   OH232572   6.295   3.259   7.710  0.0183 -0.2563 -0.0643
 3646TIP3    H132573   6.345   3.189   7.667  1.1537  0.2073  0.4872
 3646TIP3    H232574   6.361   3.323   7.736 -0.7736 -0.0431  1.4633
 3647TIP3   OH232575   4.220   6.600   7.894  0.0107  0.3432  0.7881
 3647TIP3    H132576   4.271   6.596   7.975  0.1183  0.5733  0.7321
 3647TIP3    H232577   4.211   6.693   7.875 -0.0658  0.2929  0.5676
 3648TIP3   OH232578   3.256   0.129   0.449  0.0521 -0.3602 -0.1709
 3648TIP3    H132579   3.266   0.225   0.453 -0.0992 -0.4014  1.7581
 3648TIP3    H232580   3.301   0.103   0.369 -1.6526  1.5613 -1.8032
 3649TIP3   OH232581   0.713   3.448   7.507 -0.0942  0.1535 -0.1185
 3649TIP3    H132582   0.659   3.393   7.449  0.0394  0.4427 -0.5208
 3649TIP3    H232583   0.730   3.393   7.583 -1.1917  0.1560  0.1369
 3650TIP3   OH232584   3.893   0.876   7.493 -0.3943 -0.0267 -0.0302
 3650TIP3    H132585   3.915   0.857   7.584  0.6689 -0.5708 -0.3984
 3650TIP3    H232586   3.922   0.967   7.480  0.9456 -0.4863 -0.2919
 3651TIP3   OH232587   3.146   0.294   6.583  0.0527 -0.5031  0.6655
 3651TIP3    H132588   3.094   0.372   6.567 -0.8442 -0.8115  2.0171
 3651TIP3    H232589   3.194   0.313   6.664  1.4097 -0.5481 -0.1097
 3652TIP3   OH232590   3.492   4.505   8.101  0.5030  0.4048 -0.1284
 3652TIP3    H132591   3.525   4.483   8.188  2.1596 -2.7072 -1.4451
 3652TIP3    H232592   3.404   4.467   8.098  0.1205  1.2399  0.4632
 3653TIP3   OH232593   0.958   4.861   0.732  0.4293 -0.2755  0.5300
 3653TIP3    H132594   0.881   4.868   0.675 -0.4163 -0.6025  1.5984
 3653TIP3    H232595   0.927   4.896   0.816  0.9963 -1.8316  1.3960
 3654TIP3   OH232596   2.787   6.096   7.972 -0.2002 -0.3638 -0.0094
 3654TIP3    H132597   2.747   6.174   8.010 -1.2308 -0.8076 -0.1632
 3654TIP3    H232598   2.756   6.094   7.882 -0.7347 -1.3108  0.1856
 3655TIP3   OH232599   0.583   1.153   7.923  0.1673  0.2417  0.0539
 3655TIP3    H132600   0.648   1.127   7.857 -0.3138  0.3077 -0.4466
 3655TIP3    H232601   0.636   1.186   7.996  0.7606 -1.5278  0.4410
 3656TIP3   OH232602   4.461   5.513   1.100  0.2511  0.1101 -0.0719
 3656TIP3    H132603   4.510   5.511   1.182  0.4596  0.5555 -0.1847
 3656TIP3    H232604   4.370   5.499   1.126  0.4667 -1.0211  0.1117
 3657TIP3   OH232605   2.069   5.339   7.894 -0.1120 -0.5067 -0.1801
 3657TIP3    H132606   2.115   5.256   7.907  0.9749 -0.4157 -2.9829
 3657TIP3    H232607   2.116   5.380   7.821 -2.0618  1.5319 -0.3186
 3658TIP3   OH232608   2.583   6.851   0.134  0.4662 -0.3716  0.2461
 3658TIP3    H132609   2.630   6.929   0.104  0.3500 -0.3913  0.0153
 3658TIP3    H232610   2.596   6.850   0.229  0.2717  0.0546  0.2733
 3659TIP3   OH232611   3.668   3.014   6.819  0.5359 -0.5517  0.2290
 3659TIP3    H132612   3.588   3.054   6.854  1.3699  0.7038  0.7334
 3659TIP3    H232613   3.724   3.088   6.796  2.0255 -1.4259  0.9722
 3660TIP3   OH232614   7.126   2.798   7.179  0.5332  0.3106  0.0143
 3660TIP3    H132615   7.035   2.810   7.152  0.6077 -0.1744 -0.4476
 3660TIP3    H232616   7.133   2.705   7.202  0.6704  0.5392  0.9574
 3661TIP3   OH232617   3.318   5.710   7.005 -0.2587  0.5737 -0.3129
 3661TIP3    H132618   3.256   5.736   7.074  0.3446  1.3075 -0.0436
 3661TIP3    H232619   3.403   5.739   7.038  0.7277 -3.3544  0.8588
 3662TIP3   OH232620   0.909   6.181   0.349  0.2128  0.5978 -0.2849
 3662TIP3    H132621   0.978   6.247   0.350  0.8510 -0.0784  0.2492
 3662TIP3    H232622   0.889   6.165   0.441 -0.6064  0.7386 -0.4338
 3663TIP3   OH232623   3.310   0.399   0.470 -0.7116 -0.1037 -0.0228
 3663TIP3    H132624   3.401   0.383   0.495 -0.2420 -0.4215 -1.8700
 3663TIP3    H232625   3.266   0.419   0.552  1.0794  0.2844  0.8693
 3664TIP3   OH232626   1.610   1.681   7.766 -0.3805  0.4612 -0.7739
 3664TIP3    H132627   1.518   1.704   7.751 -0.2448  0.5242 -1.4979
 3664TIP3    H232628   1.659   1.751   7.724 -0.0022  0.9063  0.3771
 3665TIP3   OH232629   3.712   7.028   6.438 -0.0892  0.2139 -0.2806
 3665TIP3    H132630   3.800   7.035   6.475  0.4625 -1.0013 -1.3399
 3665TIP3    H232631   3.718   6.958   6.373 -1.8603  0.0584 -0.3145
 3666TIP3   OH232632   5.618   1.531   0.327 -0.3366 -0.4918 -0.1519
 3666TIP3    H132633   5.609   1.553   0.234  0.6767  0.3599 -0.0666
 3666TIP3    H232634   5.711   1.508   0.336 -0.0260  1.2118  1.0125
 3667TIP3   OH232635   4.950   7.012   6.826  0.0739 -0.0774 -0.5527
 3667TIP3    H132636   4.970   6.919   6.839  1.4946  0.2529 -0.2487
 3667TIP3    H232637   4.942   7.023   6.732 -2.1973 -0.9095 -0.4822
 3668TIP3   OH232638   3.384   3.926   0.373  0.1025  0.3770  0.1374
 3668TIP3    H132639   3.466   3.930   0.423  0.0813  0.2120  0.1871
 3668TIP3    H232640   3.411   3.940   0.282  0.1293  0.7809  0.2073
 3669TIP3   OH232641   2.743   4.115   0.012 -0.1979 -0.0968 -0.6733
 3669TIP3    H132642   2.666   4.170  -0.002 -0.0075  0.1684 -0.6773
 3669TIP3    H232643   2.715   4.027  -0.015 -0.0913  0.2541 -1.9322
 3670TIP3   OH232644   0.572   2.240   7.286  0.5461 -0.4114  0.1832
 3670TIP3    H132645   0.646   2.180   7.299 -0.6220 -1.8130  0.4010
 3670TIP3    H232646   0.609   2.311   7.232  2.1938 -0.7920  0.7610
 3671TIP3   OH232647   2.067   1.145   7.079 -0.1462 -0.0728 -0.7183
 3671TIP3    H132648   2.088   1.104   7.163 -0.4410 -1.1848 -1.1793
 3671TIP3    H232649   1.985   1.104   7.051 -2.6930  3.7900  0.7550
 3672TIP3   OH232650   0.139   0.065   7.312 -0.0805  0.5090 -0.4873
 3672TIP3    H132651   0.196   0.010   7.257  0.9848 -1.9796  2.9509
 3672TIP3    H232652   0.050   0.039   7.287  0.3672 -0.2371 -1.3685
 3673TIP3   OH232653   6.156   3.145   1.436 -0.3162 -0.1030  0.2592
 3673TIP3    H132654   6.185   3.228   1.474  1.0159 -0.7620  0.6794
 3673TIP3    H232655   6.121   3.169   1.350  1.9266  0.6317 -0.4628
 3674TIP3   OH232656   2.617   3.740   7.420 -0.3425 -0.9200 -0.3006
 3674TIP3    H132657   2.583   3.722   7.508 -1.4707 -0.1878 -0.5843
 3674TIP3    H232658   2.585   3.828   7.399  2.2219  0.0454 -0.3418
 3675TIP3   OH232659   6.576   4.730   0.109  0.2070  0.6326 -0.1014
 3675TIP3    H132660   6.646   4.671   0.081 -0.2438 -0.0038  0.1082
 3675TIP3    H232661   6.601   4.815   0.072  1.0012  0.3756 -0.1673
 3676TIP3   OH232662   6.271   3.547   0.925 -0.3045  0.1283  0.1360
 3676TIP3    H132663   6.207   3.510   0.865  0.8256  1.2864 -1.8446
 3676TIP3    H232664   6.329   3.473   0.947 -0.7157 -0.2975 -0.2100
 3677TIP3   OH232665   0.473   3.856   0.296  0.4383  0.0663 -0.1132
 3677TIP3    H132666   0.475   3.774   0.346 -1.4679 -0.0162 -0.1219
 3677TIP3    H232667   0.488   3.924   0.362 -1.8484 -0.0582  0.5721
 3678TIP3   OH232668   1.312   6.565   1.825 -0.6228 -0.2117  0.3498
 3678TIP3    H132669   1.363   6.646   1.816 -0.4126 -0.4437 -0.6403
 3678TIP3    H232670   1.286   6.563   1.917  0.0952  0.5499  0.5757
 3679TIP3   OH232671   2.951   1.637   6.562 -0.1798 -0.1845  0.1621
 3679TIP3    H132672   2.890   1.563   6.560 -1.1625  0.6062  0.6197
 3679TIP3    H232673   3.000   1.626   6.644  0.3189 -0.8288 -0.2146
 3680TIP3   OH232674   5.298   1.760   0.883  0.1843 -0.3146  0.1363
 3680TIP3    H132675   5.382   1.742   0.926  0.0522  1.1363  1.0433
 3680TIP3    H232676   5.249   1.678   0.891  0.3803 -0.2545  2.2933
 3681TIP3   OH232677   4.227   3.184   1.569 -0.4621 -0.0163 -0.0062
 3681TIP3    H132678   4.140   3.154   1.593 -0.3963  1.2820  1.9972
 3681TIP3    H232679   4.286   3.129   1.620 -0.1424 -0.1874 -0.5572
 3682TIP3   OH232680   4.899   0.370   6.975 -0.0274 -0.1413  0.0148
 3682TIP3    H132681   4.891   0.463   6.995  0.3169  0.0838 -0.8836
 3682TIP3    H232682   4.964   0.365   6.905  1.4130 -1.2292  1.3838
 3683TIP3   OH232683   2.907   6.658   0.897 -0.4051 -0.4552  0.1877
 3683TIP3    H132684   2.930   6.598   0.826  0.8003  0.5742 -0.3081
 3683TIP3    H232685   2.823   6.695   0.871 -0.1279 -0.3294 -0.5408
 3684TIP3   OH232686   4.644   0.992   7.892  0.0451  0.3912  0.3479
 3684TIP3    H132687   4.558   0.995   7.934  0.2763  2.0489  0.7325
 3684TIP3    H232688   4.658   0.899   7.873 -1.1807 -0.0761  1.6280
 3685TIP3   OH232689   3.615   6.115   6.285  0.0155 -0.5724 -1.2054
 3685TIP3    H132690   3.685   6.176   6.307  0.5377 -1.7325  0.4711
 3685TIP3    H232691   3.658   6.045   6.235  0.1549 -1.5065  0.1963
 3686TIP3   OH232692   2.618   4.944   0.390 -0.2606 -0.1283 -0.2073
 3686TIP3    H132693   2.650   4.989   0.311 -1.8132  2.7936  0.7598
 3686TIP3    H232694   2.550   4.884   0.357  0.4178 -0.3062 -1.3028
 3687TIP3   OH232695   7.143   6.070   7.993  0.1870  0.8125  0.3388
 3687TIP3    H132696   7.214   6.093   8.054  1.9955 -0.3946 -1.2512
 3687TIP3    H232697   7.109   5.987   8.027 -0.3569  1.2993  0.9998
 3688TIP3   OH232698   5.365   5.994   0.583 -0.4477  0.0962  0.9804
 3688TIP3    H132699   5.304   5.941   0.531 -0.1572 -0.1818  0.9200
 3688TIP3    H232700   5.349   5.968   0.673  0.0570 -0.4774  0.9087
 3689TIP3   OH232701   0.941   5.933   0.766 -0.0372 -0.1050  0.0463
 3689TIP3    H132702   1.028   5.948   0.802  0.3777 -1.5673 -0.2773
 3689TIP3    H232703   0.936   5.838   0.755 -2.0161 -0.1286  0.9166
 3690TIP3   OH232704   5.676   6.574   7.357 -0.0927  0.0828  0.4288
 3690TIP3    H132705   5.713   6.661   7.368 -0.6398  0.3283  0.3803
 3690TIP3    H232706   5.750   6.514   7.366  1.0062  0.7254 -3.2139
 3691TIP3   OH232707   5.573   5.651   6.648  0.2523  0.5611  0.0642
 3691TIP3    H132708   5.488   5.683   6.618  0.5324 -0.3544 -1.7734
 3691TIP3    H232709   5.582   5.685   6.737 -1.8669  0.9742  0.1356
 3692TIP3   OH232710   5.389   4.096   6.567 -0.1344  0.5161  0.5298
 3692TIP3    H132711   5.331   4.024   6.540  2.0745 -0.6556 -1.2568
 3692TIP3    H232712   5.403   4.146   6.487  1.6140  0.5572  0.8502
 3693TIP3   OH232713   5.397   3.227   7.207  0.0380  0.4282 -0.0074
 3693TIP3    H132714   5.357   3.143   7.185  1.6436 -0.2672 -0.3256
 3693TIP3    H232715   5.363   3.287   7.140 -1.7271  0.2431  0.6773
 3694TIP3   OH232716   3.740   4.796   7.066  0.0196 -0.4297 -0.0281
 3694TIP3    H132717   3.760   4.702   7.060  0.6651 -0.3422  0.6661
 3694TIP3    H232718   3.798   4.838   7.003 -0.4511 -0.5210 -0.5239
 3695TIP3   OH232719   2.731   0.223   0.616 -0.5687  0.2659 -0.0611
 3695TIP3    H132720   2.698   0.155   0.557 -1.8104 -0.3322  1.2781
 3695TIP3    H232721   2.825   0.206   0.623 -0.2319  0.9268 -2.5779
 3696TIP3   OH232722   2.184   1.498   7.218  0.1711 -0.0475  0.1780
 3696TIP3    H132723   2.110   1.459   7.172  1.1472 -0.6051 -0.9593
 3696TIP3    H232724   2.160   1.590   7.229 -0.3080 -0.0345 -0.9552
 3697TIP3   OH232725   2.789   0.117   6.948  0.1914  0.0810 -0.3978
 3697TIP3    H132726   2.754   0.204   6.968  2.2870  0.3041  2.5901
 3697TIP3    H232727   2.714   0.058   6.958 -0.5591  1.1793  0.6162
 3698TIP3   OH232728   1.144   0.186   6.723 -1.2175  0.1033 -0.1231
 3698TIP3    H132729   1.117   0.106   6.678 -3.6102  0.3726  0.7238
 3698TIP3    H232730   1.081   0.252   6.695  1.0161  1.8509 -1.1816
 3699TIP3   OH232731   4.845   2.187   1.895  0.2820  0.0077  0.5813
 3699TIP3    H132732   4.801   2.102   1.890 -0.7306  0.3689  2.5960
 3699TIP3    H232733   4.782   2.249   1.858  0.0340  0.2052  1.3273
 3700TIP3   OH232734   1.723   5.929   6.961  0.5032  0.0083 -0.3166
 3700TIP3    H132735   1.664   5.970   7.025 -0.3706 -0.6422 -0.6884
 3700TIP3    H232736   1.732   5.995   6.892  0.7351  0.3659  0.0514
 3701TIP3   OH232737   2.298   6.151   1.789 -0.2296  0.0262  0.7368
 3701TIP3    H132738   2.219   6.119   1.833  0.6104 -1.2331  1.3755
 3701TIP3    H232739   2.291   6.247   1.795 -0.7996 -0.1023  2.4315
 3702TIP3   OH232740   0.286   2.715   7.405 -0.1704  0.1960 -0.2811
 3702TIP3    H132741   0.230   2.669   7.467 -0.0200 -1.1683 -1.1442
 3702TIP3    H232742   0.300   2.653   7.334  1.6783  0.8649 -0.5312
 3703TIP3   OH232743   4.305   0.792   0.435  0.2542 -0.2756 -0.1312
 3703TIP3    H132744   4.373   0.725   0.435  0.0054 -0.5854  2.0082
 3703TIP3    H232745   4.225   0.745   0.459 -0.4457  0.3173 -1.2890
 3704TIP3   OH232746   4.009   6.649   7.424  0.2272 -0.0839 -0.3810
 3704TIP3    H132747   3.984   6.563   7.456 -0.2214  0.1763 -0.0271
 3704TIP3    H232748   3.968   6.656   7.338  1.0754 -0.6085 -0.8411
 3705TIP3   OH232749   6.276   4.502   7.309 -0.2420 -0.6731 -0.8866
 3705TIP3    H132750   6.299   4.432   7.369 -0.4075 -0.3643 -0.4565
 3705TIP3    H232751   6.317   4.478   7.226  0.9301 -0.5453 -0.3597
 3706TIP3   OH232752   1.019   2.176   7.589 -0.2178  0.2960 -0.1158
 3706TIP3    H132753   0.938   2.145   7.630 -0.0838  0.2134  0.0866
 3706TIP3    H232754   1.043   2.106   7.528  0.5746 -0.4079  0.9974
 3707TIP3   OH232755   6.867   0.037   1.775 -1.1051  0.1401 -0.1152
 3707TIP3    H132756   6.952   0.075   1.798 -0.8072 -2.0488  2.6985
 3707TIP3    H232757   6.887  -0.021   1.702 -0.0722 -0.6238  0.7447
 3708TIP3   OH232758   0.934   5.630   0.746  0.1935 -0.3979  0.1033
 3708TIP3    H132759   0.867   5.568   0.773 -1.0519  1.0768  0.4186
 3708TIP3    H232760   0.923   5.637   0.651  1.3221 -1.7771 -0.1526
 3709TIP3   OH232761   3.644   5.959   6.860  0.4150 -0.1214 -0.8750
 3709TIP3    H132762   3.610   6.033   6.910 -0.1934 -1.2212  0.3588
 3709TIP3    H232763   3.628   5.983   6.768 -1.0982  0.6414 -0.4277
 3710TIP3   OH232764   0.442   2.795   1.957  0.0282 -0.0498  0.7222
 3710TIP3    H132765   0.445   2.717   2.012 -1.1349  1.0999  2.4506
 3710TIP3    H232766   0.478   2.864   2.012 -0.4751  0.9708 -0.2288
 3711TIP3   OH232767   4.634   4.705   7.053  0.0302 -0.2082  0.2016
 3711TIP3    H132768   4.596   4.618   7.045 -0.2667 -0.0045 -0.6630
 3711TIP3    H232769   4.703   4.708   6.986  2.9405 -1.2700  2.9969
 3712TIP3   OH232770   3.914   6.734   0.671 -0.1472 -0.0269  0.3754
 3712TIP3    H132771   3.902   6.829   0.680 -0.4703 -0.0620  0.3207
 3712TIP3    H232772   3.864   6.711   0.593  0.6327 -0.1102 -0.1039
 3713TIP3   OH232773   6.485   1.698   6.449 -0.2034 -0.2506 -0.5607
 3713TIP3    H132774   6.453   1.768   6.393 -0.1855 -0.3160 -0.6528
 3713TIP3    H232775   6.565   1.667   6.406  0.5625  0.6192  0.2212
 3714TIP3   OH232776   5.841   5.921   7.724  0.1020 -0.0056 -0.0989
 3714TIP3    H132777   5.907   5.914   7.655  0.0170 -2.3031  0.0052
 3714TIP3    H232778   5.766   5.871   7.690  0.0008 -1.0057  1.5624
 3715TIP3   OH232779   2.674   3.018   0.356 -0.6410 -0.2295 -0.0989
 3715TIP3    H132780   2.705   2.932   0.327  0.4659 -0.4650  1.7315
 3715TIP3    H232781   2.653   3.006   0.449 -0.9573  1.3460  0.0491
 3716TIP3   OH232782   5.405   7.087   5.755  0.2505  0.1448  0.6487
 3716TIP3    H132783   5.324   7.048   5.788  0.4072 -1.2719 -0.5935
 3716TIP3    H232784   5.437   7.141   5.828 -2.1204  1.2165  0.9291
 3717TIP3   OH232785   0.973   0.209   5.662  0.1518 -0.3476  0.7433
 3717TIP3    H132786   0.879   0.198   5.649 -0.4828  1.9056  2.9124
 3717TIP3    H232787   0.995   0.288   5.612  0.8979 -0.8296  0.2930
 3718TIP3   OH232788   5.135   6.119   0.796  0.0217  0.2318  0.0883
 3718TIP3    H132789   5.116   6.160   0.711  1.3468 -2.0694 -1.3772
 3718TIP3    H232790   5.067   6.052   0.805 -0.6496  1.0652  1.2877
 3719TIP3   OH232791   6.927   0.550   6.582  0.0629 -0.3565 -0.2873
 3719TIP3    H132792   6.857   0.501   6.623  0.6094 -1.2487 -0.4131
 3719TIP3    H232793   6.896   0.641   6.582  0.6510 -0.1013  3.3397
 3720TIP3   OH232794   1.319   6.839   7.764  0.4038 -0.5458 -0.3171
 3720TIP3    H132795   1.292   6.914   7.818  0.5023 -0.5708 -0.2320
 3720TIP3    H232796   1.263   6.768   7.793  0.8021 -0.6864  0.1051
 3721TIP3   OH232797   5.481   5.381   1.693 -0.2351 -0.2243  0.1709
 3721TIP3    H132798   5.420   5.311   1.671  0.1833 -0.3880 -0.4768
 3721TIP3    H232799   5.424   5.456   1.715 -0.6712  0.1194 -2.0342
 3722TIP3   OH232800   0.645   0.441   0.677  0.1931 -0.0001 -0.3843
 3722TIP3    H132801   0.605   0.410   0.758  1.0971  0.2270  0.1588
 3722TIP3    H232802   0.576   0.433   0.612 -0.8554  0.7641  0.6095
 3723TIP3   OH232803   6.156   1.255   7.680 -0.2541  0.2714  0.3426
 3723TIP3    H132804   6.194   1.167   7.680  1.1237  0.8371 -0.4521
 3723TIP3    H232805   6.187   1.294   7.598  0.1385  1.9059  1.2427
 3724TIP3   OH232806   6.633   4.959   1.324 -0.1027 -0.0214 -0.0027
 3724TIP3    H132807   6.685   4.983   1.400 -0.0940  0.6517 -0.2198
 3724TIP3    H232808   6.598   5.042   1.292  1.0219 -0.1268 -1.5505
 3725TIP3   OH232809   0.465   1.765   0.963  0.4344 -0.0863  0.1910
 3725TIP3    H132810   0.415   1.822   0.904  1.3473 -0.4444 -0.9669
 3725TIP3    H232811   0.403   1.738   1.030 -1.3224 -1.7132 -2.0251
 3726TIP3   OH232812   3.114   1.639   7.450  1.0985 -0.1626  0.0452
 3726TIP3    H132813   3.038   1.629   7.507  0.5168 -0.3736 -0.7548
 3726TIP3    H232814   3.176   1.572   7.478 -0.1942 -1.8963 -1.1904
 3727TIP3   OH232815   2.882   0.568   6.932 -0.1963 -0.0049  0.6131
 3727TIP3    H132816   2.913   0.605   6.850  3.6097 -2.2496  0.8799
 3727TIP3    H232817   2.900   0.635   6.998  1.1068  0.0099  0.2546
 3728TIP3   OH232818   6.110   3.736   7.755 -0.6822  0.3256  0.1454
 3728TIP3    H132819   6.174   3.666   7.742 -1.8483 -0.8771  0.7163
 3728TIP3    H232820   6.129   3.800   7.687  1.0593 -0.0607  0.2594
 3729TIP3   OH232821   6.875   1.214   0.703 -0.4079 -0.0111  0.2109
 3729TIP3    H132822   6.856   1.142   0.643  1.5597 -0.6156  0.2800
 3729TIP3    H232823   6.877   1.292   0.649 -0.5953 -0.2846 -0.1901
 3730TIP3   OH232824   0.587   5.285   7.463 -0.6276 -0.1098 -0.3547
 3730TIP3    H132825   0.644   5.256   7.393 -0.8744  0.0195 -0.6112
 3730TIP3    H232826   0.609   5.228   7.537 -1.6752 -1.5162 -1.0944
 3731TIP3   OH232827   0.335   2.582   6.916  0.0660  0.0188  0.0976
 3731TIP3    H132828   0.360   2.599   6.825  0.6689 -1.9936 -0.1248
 3731TIP3    H232829   0.240   2.581   6.916  0.0739 -1.3643 -0.7826
 3732TIP3   OH232830   5.714   6.341   1.230 -0.3158 -0.0277  0.3881
 3732TIP3    H132831   5.742   6.432   1.240  2.2130 -0.6133 -0.8615
 3732TIP3    H232832   5.780   6.291   1.277 -1.1239 -1.2827  0.1931
 3733TIP3   OH232833   4.465   0.190   2.448  0.2665  0.0055  0.4013
 3733TIP3    H132834   4.504   0.224   2.367 -2.4313  0.3598 -0.8109
 3733TIP3    H232835   4.437   0.268   2.496 -1.3652 -0.2995 -0.0174
 3734TIP3   OH232836   7.063   0.937   7.702 -0.4320 -0.0308 -0.0086
 3734TIP3    H132837   7.110   0.857   7.726  0.5423  0.5589  0.0895
 3734TIP3    H232838   7.100   0.962   7.617 -0.7194  0.3262 -0.0306
 3735TIP3   OH232839   6.758   0.538   1.733  0.9876  0.0057  0.1698
 3735TIP3    H132840   6.804   0.515   1.814 -0.6198  0.2028  1.1592
 3735TIP3    H232841   6.687   0.475   1.726  1.9521 -0.9088 -1.8735
 3736TIP3   OH232842   4.526   5.254   7.486 -0.1443  0.2849  0.2478
 3736TIP3    H132843   4.435   5.280   7.469  0.7330  1.3166 -3.2266
 3736TIP3    H232844   4.566   5.331   7.525 -0.5762  0.0178  1.2500
 3737TIP3   OH232845   4.803   0.225   0.564  0.3969 -0.1585  0.4319
 3737TIP3    H132846   4.743   0.179   0.505  1.8871 -0.6230 -0.7566
 3737TIP3    H232847   4.781   0.317   0.553 -0.6925 -0.3802  0.6785
 3738TIP3   OH232848   4.604   6.600   6.308 -0.2272 -0.5158  0.5286
 3738TIP3    H132849   4.651   6.653   6.372 -1.1174  0.3640  0.4638
 3738TIP3    H232850   4.600   6.655   6.229 -1.4270 -0.5515  0.5620
 3739TIP3   OH232851   4.223   3.959   0.377  0.1451 -0.0021  0.4389
 3739TIP3    H132852   4.273   4.040   0.380 -0.6062  0.4876 -0.1896
 3739TIP3    H232853   4.229   3.930   0.286 -0.1011 -0.3247  0.5234
 3740TIP3   OH232854   6.813   5.660   0.281  0.4747 -1.3743 -0.1380
 3740TIP3    H132855   6.776   5.680   0.195  2.0195  2.6454  0.0257
 3740TIP3    H232856   6.739   5.627   0.332 -1.6713  1.1151 -1.5023
 3741TIP3   OH232857   1.782   6.541   6.662  0.0463  0.0786 -0.5902
 3741TIP3    H132858   1.793   6.631   6.693 -1.8125 -0.3861  1.5974
 3741TIP3    H232859   1.808   6.488   6.737  3.0642 -1.3102 -2.5146
 3742TIP3   OH232860   7.077   4.234   0.384  0.9186 -0.2089 -0.1415
 3742TIP3    H132861   7.034   4.319   0.376  1.3101  0.0357  0.3272
 3742TIP3    H232862   7.034   4.178   0.319  0.6363  0.3371 -0.4190
 3743TIP3   OH232863   7.048   4.865   7.012 -0.5398  0.6659  0.1196
 3743TIP3    H132864   7.074   4.775   6.991  0.4461  1.2908 -1.4734
 3743TIP3    H232865   7.116   4.919   6.972 -0.6830  2.0952  1.7710
 3744TIP3   OH232866   6.653   5.970   6.018 -0.2075  0.1828  0.1681
 3744TIP3    H132867   6.685   5.905   5.956 -0.1158 -0.6315  1.0467
 3744TIP3    H232868   6.730   6.022   6.040 -0.2798  0.5812 -0.5363
 3745TIP3   OH232869   6.232   0.744   6.581  0.6448 -0.0428 -0.2475
 3745TIP3    H132870   6.154   0.705   6.541 -0.2881  1.4925  0.0103
 3745TIP3    H232871   6.198   0.790   6.658  1.9670 -0.2745  0.4825
 3746TIP3   OH232872   3.982   5.218   7.996  0.3141 -0.0930 -0.1720
 3746TIP3    H132873   4.047   5.161   7.954 -1.3183 -1.4284 -0.9679
 3746TIP3    H232874   3.955   5.278   7.926  1.8554  1.5482  0.6010
 3747TIP3   OH232875   5.436   3.452   5.993  0.4823 -0.7721 -0.4860
 3747TIP3    H132876   5.511   3.397   6.018 -0.4467 -0.5612  3.0388
 3747TIP3    H232877   5.362   3.391   5.990 -0.5338  0.1034  3.3475
 3748TIP3   OH232878   0.556   1.583   2.107  0.2462 -0.1434 -0.3929
 3748TIP3    H132879   0.497   1.542   2.043  0.4571  0.3282 -0.8958
 3748TIP3    H232880   0.621   1.515   2.127  0.0771 -0.3509 -0.5504
 3749TIP3   OH232881   0.476   1.563   1.724 -0.4058  0.6573  0.3233
 3749TIP3    H132882   0.541   1.537   1.659 -2.1755  0.4464 -1.4064
 3749TIP3    H232883   0.434   1.641   1.686 -1.3912  0.5930  1.2648
 3750TIP3   OH232884   4.791   2.100   0.061  0.5226 -0.0829 -0.6710
 3750TIP3    H132885   4.830   2.037   0.121  1.6137  1.1381 -0.0677
 3750TIP3    H232886   4.842   2.092  -0.020  0.4473 -0.2066 -0.7062
 3751TIP3   OH232887   1.467   1.426   8.085 -0.0587 -0.5209  0.3250
 3751TIP3    H132888   1.385   1.471   8.101 -0.5451 -1.3472  0.1809
 3751TIP3    H232889   1.468   1.354   8.148 -0.7616 -2.1914 -1.5391
 3752TIP3   OH232890   6.370   4.805   1.908 -0.0283 -0.3002  0.7128
 3752TIP3    H132891   6.313   4.882   1.904  0.3296  0.0704  2.4681
 3752TIP3    H232892   6.399   4.801   1.999  0.4862 -2.1363  0.4885
 3753TIP3   OH232893   6.007   6.859   0.584  0.5821  0.3038 -0.4879
 3753TIP3    H132894   6.063   6.853   0.507 -0.8237 -0.6925 -1.4428
 3753TIP3    H232895   6.056   6.815   0.653  1.3347  0.1770 -1.0991
 3754TIP3   OH232896   3.581   1.994   1.954  0.6819 -0.2161  0.2306
 3754TIP3    H132897   3.546   1.905   1.945 -1.2642  0.6523 -0.9339
 3754TIP3    H232898   3.526   2.035   2.021 -0.3826  1.0765 -1.4138
 3755TIP3   OH232899   5.259   6.714   7.475 -0.3263 -0.1067  0.3934
 3755TIP3    H132900   5.347   6.698   7.509 -1.0748 -1.0102  1.9681
 3755TIP3    H232901   5.262   6.803   7.440  1.9189 -1.0179 -1.9147
 3756TIP3   OH232902   2.462   2.607   0.289  0.3055 -0.3065  0.5170
 3756TIP3    H132903   2.469   2.621   0.195 -0.0968  0.5447  0.6095
 3756TIP3    H232904   2.412   2.525   0.297 -1.5734  0.7531 -0.0050
 3757TIP3   OH232905   1.978   4.379   6.458  0.0570  0.4911 -0.1375
 3757TIP3    H132906   1.925   4.353   6.533  2.9623  0.5748  2.0054
 3757TIP3    H232907   1.941   4.462   6.430 -2.4865 -0.6262 -0.2876
 3758TIP3   OH232908   2.753   3.773   0.423 -0.4345 -0.4021  0.3720
 3758TIP3    H132909   2.746   3.691   0.374 -0.1901  0.7232 -1.5766
 3758TIP3    H232910   2.731   3.749   0.513 -0.5524 -2.5658 -0.2124
 3759TIP3   OH232911   5.070   0.282   1.791 -0.8554  0.3550  0.3041
 3759TIP3    H132912   5.047   0.265   1.882 -1.2674  1.0644  0.3361
 3759TIP3    H232913   5.163   0.307   1.794 -1.1567  1.4757  0.6753
 3760TIP3   OH232914   4.413   5.845   0.138 -0.1457  0.5339  0.0369
 3760TIP3    H132915   4.444   5.824   0.226  2.7054  0.6115 -0.8701
 3760TIP3    H232916   4.471   5.795   0.080 -1.1248  1.5002 -1.8233
 3761TIP3   OH232917   3.975   0.947   1.050  0.0273 -0.6953  0.4389
 3761TIP3    H132918   4.011   0.976   1.134 -0.0633 -1.7678  0.8600
 3761TIP3    H232919   3.935   0.862   1.069 -1.8940  0.0160 -0.2187
 3762TIP3   OH232920   2.391   0.933   5.979  0.1134 -0.2359  0.0411
 3762TIP3    H132921   2.419   0.885   6.056 -1.2574  0.5858  1.0720
 3762TIP3    H232922   2.470   0.942   5.926  1.5614  1.1583  2.3889
 3763TIP3   OH232923   5.280   1.823   7.662 -0.5685 -0.0920 -0.4199
 3763TIP3    H132924   5.266   1.913   7.691 -0.4348  0.9069 -3.3105
 3763TIP3    H232925   5.194   1.792   7.636 -0.1982  0.1087 -1.9036
 3764TIP3   OH232926   2.900   1.819   7.893 -0.3671 -0.3796 -0.0189
 3764TIP3    H132927   2.869   1.837   7.805  2.6855 -1.4148 -1.3588
 3764TIP3    H232928   2.834   1.761   7.931 -1.5389 -0.1692 -1.6887
 3765TIP3   OH232929   1.436   5.772   0.621 -0.3911 -0.3501  0.0144
 3765TIP3    H132930   1.480   5.796   0.540 -0.3363 -1.5887 -0.3247
 3765TIP3    H232931   1.355   5.823   0.621 -2.0185 -2.8441 -2.4547
 3766TIP3   OH232932   0.726   1.332   1.791 -0.0905 -0.5680 -0.2046
 3766TIP3    H132933   0.678   1.298   1.715 -1.4902  0.7128  0.0773
 3766TIP3    H232934   0.689   1.287   1.866  0.0281 -0.5160 -0.1147
 3767TIP3   OH232935   0.967   3.764   0.488 -0.6987 -0.3064  0.6742
 3767TIP3    H132936   0.923   3.689   0.529  1.5794 -1.4746  1.0831
 3767TIP3    H232937   0.967   3.744   0.394  1.4473 -1.7398  0.9314
 3768TIP3   OH232938   5.574   1.064   0.730  0.6103 -0.7527  0.0214
 3768TIP3    H132939   5.598   1.074   0.638  1.2195 -0.3441  0.2205
 3768TIP3    H232940   5.541   1.150   0.756  0.3824 -0.8833  0.1736
 3769TIP3   OH232941   3.870   6.097   0.270  0.0480 -0.1602 -0.3088
 3769TIP3    H132942   3.910   6.014   0.244 -0.1562  0.0203 -1.2274
 3769TIP3    H232943   3.899   6.159   0.203  1.3819  0.8404  1.1799
 3770TIP3   OH232944   4.757   6.972   0.323  0.8204 -0.3895 -0.1759
 3770TIP3    H132945   4.826   7.014   0.374  1.1529 -1.3614  0.1977
 3770TIP3    H232946   4.800   6.895   0.284 -0.5476 -2.1950  1.7605
 3771TIP3   OH232947   7.131   1.254   1.279  0.6888 -0.0897  0.5775
 3771TIP3    H132948   7.174   1.172   1.252  0.8689  0.6510 -1.4248
 3771TIP3    H232949   7.134   1.309   1.201 -1.1556  1.1245  1.3534
 3772TIP3   OH232950   5.507   3.888   6.057  0.1134  0.4531 -0.3575
 3772TIP3    H132951   5.481   3.863   5.969  0.8563 -4.2667  0.6412
 3772TIP3    H232952   5.425   3.886   6.107  0.4591 -2.1857  0.1536
 3773TIP3   OH232953   2.104   1.838   1.080  0.4676  0.3973  0.8452
 3773TIP3    H132954   2.083   1.806   1.168  0.1861 -1.5504  0.0983
 3773TIP3    H232955   2.183   1.790   1.056  0.5098  0.8849  0.0044
 3774TIP3   OH232956   4.938   1.387   0.004  0.0928  0.6823  0.0294
 3774TIP3    H132957   4.873   1.348   0.063 -0.3336 -2.2647 -2.2326
 3774TIP3    H232958   5.020   1.381   0.052 -0.9224  2.5526  2.1035
 3775TIP3   OH232959   0.747   3.698   1.222  0.5208  0.5163 -0.5594
 3775TIP3    H132960   0.776   3.738   1.303 -0.1745  0.3678 -0.2356
 3775TIP3    H232961   0.698   3.620   1.249  0.4330  0.3662 -1.1253
 3776TIP3   OH232962   6.619   3.439   2.135 -0.3134 -0.3707 -0.2373
 3776TIP3    H132963   6.604   3.510   2.199  1.2566  0.1615 -0.4258
 3776TIP3    H232964   6.532   3.404   2.117 -1.2809  2.3007 -1.0362
 3777TIP3   OH232965   0.526   6.604   1.670 -0.1971  0.4228  0.1630
 3777TIP3    H132966   0.460   6.656   1.624  0.3914  0.6019 -0.4855
 3777TIP3    H232967   0.607   6.655   1.663  0.1787 -0.1440  0.3141
 3778TIP3   OH232968   2.993   1.620   6.837 -0.2725 -0.2408  0.1499
 3778TIP3    H132969   2.966   1.687   6.899 -2.3367 -0.9979  0.1226
 3778TIP3    H232970   3.062   1.571   6.881  1.7694  2.3420 -0.1208
 3779TIP3   OH232971   2.690   2.253   7.514 -0.2299  0.0119 -0.2004
 3779TIP3    H132972   2.647   2.277   7.432  1.1812  0.1900 -0.9037
 3779TIP3    H232973   2.712   2.161   7.503  0.0064  0.0495 -0.0415
 3780TIP3   OH232974   3.320   3.544   1.553 -0.5268 -0.2171  0.0641
 3780TIP3    H132975   3.302   3.599   1.477 -0.6284  0.9074  0.8868
 3780TIP3    H232976   3.383   3.594   1.605 -0.7409 -0.8029  0.9030
 3781TIP3   OH232977   4.223   1.866   0.708  0.3852 -0.5870 -0.5838
 3781TIP3    H132978   4.187   1.951   0.684  0.2780 -0.0904  1.2578
 3781TIP3    H232979   4.155   1.803   0.682 -0.4867  0.0799  0.0463
 3782TIP3   OH232980   0.664   0.329   0.278  0.1640 -0.6870 -0.1371
 3782TIP3    H132981   0.699   0.407   0.236  1.2067 -0.8910  0.3370
 3782TIP3    H232982   0.604   0.361   0.345  1.7464 -0.2431  1.0903
 3783TIP3   OH232983   2.473   2.546   0.010  0.0482  0.1732 -0.0326
 3783TIP3    H132984   2.439   2.522  -0.076  0.8236  1.2976 -0.6683
 3783TIP3    H232985   2.526   2.471   0.037 -2.1226 -1.1925  0.5392
 3784TIP3   OH232986   0.696   5.514   7.279  0.2028  0.1087 -0.0789
 3784TIP3    H132987   0.747   5.435   7.260 -1.0909 -1.5529  2.9608
 3784TIP3    H232988   0.761   5.581   7.298  1.3068 -0.9224 -0.1581
 3785TIP3   OH232989   0.150   2.614   2.586  0.1565 -0.7126 -0.3283
 3785TIP3    H132990   0.224   2.669   2.612  0.8927 -2.0459  0.4337
 3785TIP3    H232991   0.104   2.665   2.519  1.1559  0.5752 -0.0378
 3786TIP3   OH232992   5.866   0.712   1.743  0.3648 -0.4554 -0.4071
 3786TIP3    H132993   5.933   0.646   1.726  0.6453 -0.0976 -0.6788
 3786TIP3    H232994   5.843   0.699   1.835 -1.2365 -2.4650 -1.0533
 3787TIP3   OH232995   3.139   6.773   0.059  0.1119 -0.4269  0.1675
 3787TIP3    H132996   3.106   6.818  -0.018  0.1694  0.8849  0.9049
 3787TIP3    H232997   3.126   6.680   0.040  0.0113 -0.1076 -1.3636
 3788TIP3   OH232998   6.774   6.077   1.118 -0.2244  0.4887  0.6947
 3788TIP3    H132999   6.801   6.064   1.028 -0.4776  2.0517  0.3797
 3788TIP3    H233000   6.832   6.145   1.152 -1.8603  1.8384  0.8751
 3789TIP3   OH233001   1.314   7.057   2.036 -0.4030  0.3166  0.0125
 3789TIP3    H133002   1.376   7.017   2.097  0.2455  0.7876 -0.3367
 3789TIP3    H233003   1.234   7.069   2.088 -0.5298 -1.1805  0.2015
 3790TIP3   OH233004   0.570   2.393   1.826 -0.7449 -0.3168 -0.0171
 3790TIP3    H133005   0.652   2.397   1.875 -0.7369 -1.0062  0.0301
 3790TIP3    H233006   0.506   2.437   1.881 -0.6220 -0.6378  0.3802
 3791TIP3   OH233007   3.765   6.028   1.531 -0.0133  0.2563  0.0336
 3791TIP3    H133008   3.779   6.095   1.464 -2.7391  0.3058 -0.5320
 3791TIP3    H233009   3.834   6.046   1.596  1.1203  1.7584 -1.5194
 3792TIP3   OH233010   1.301   7.132   7.113  0.0068  0.0990 -0.8402
 3792TIP3    H133011   1.321   7.055   7.167 -2.8659 -0.0190  0.1138
 3792TIP3    H233012   1.368   7.196   7.137  1.2401 -1.3802 -0.2099
 3793TIP3   OH233013   1.944   4.890   1.294  0.1632  0.1131  0.0192
 3793TIP3    H133014   1.953   4.955   1.363  1.5987  0.0105 -0.0629
 3793TIP3    H233015   1.878   4.829   1.327  1.3783 -0.3585  1.6441
 3794TIP3   OH233016   4.696   1.031   1.797 -0.3260  0.5370  0.5563
 3794TIP3    H133017   4.718   1.094   1.728 -0.5370  0.7355  0.6716
 3794TIP3    H233018   4.611   1.060   1.830 -0.5794  0.0065  0.3857
 3795TIP3   OH233019   6.651   5.029   0.099  0.0811  0.0605 -0.1938
 3795TIP3    H133020   6.743   5.024   0.071  0.6051 -0.4584  1.5384
 3795TIP3    H233021   6.656   5.060   0.189 -1.3967 -0.8845  0.2219
 3796TIP3   OH233022   6.210   5.526   6.922  0.0345 -0.2405 -1.1140
 3796TIP3    H133023   6.282   5.504   6.981  0.2671 -1.5778 -1.8614
 3796TIP3    H233024   6.167   5.442   6.904 -2.0884  0.6118 -0.2024
 3797TIP3   OH233025   0.542   4.737   0.083 -0.2273  0.3062 -0.2104
 3797TIP3    H133026   0.615   4.728   0.022 -0.6017 -0.3032 -0.5737
 3797TIP3    H233027   0.583   4.761   0.166  0.4582 -0.7353 -0.2333
 3798TIP3   OH233028   2.821   3.913   1.924  0.2963 -0.6426 -0.6925
 3798TIP3    H133029   2.769   3.840   1.955 -0.0840 -0.9189 -1.9941
 3798TIP3    H233030   2.778   3.991   1.961  0.0219 -0.9857 -0.2868
 3799TIP3   OH233031   7.022   4.146   7.321  0.0799 -0.1359 -0.1100
 3799TIP3    H133032   7.015   4.241   7.312 -0.6601  0.1327  2.7971
 3799TIP3    H233033   6.939   4.118   7.359  1.3357 -1.5474  1.7409
 3800TIP3   OH233034   3.089   3.701   6.393  0.1370  0.1733  0.0961
 3800TIP3    H133035   3.058   3.706   6.302  0.5130  1.2775  0.0258
 3800TIP3    H233036   3.023   3.649   6.438  0.7420 -1.7121 -1.1514
 3801TIP3   OH233037   3.385   7.006   1.863 -0.3736  0.1054 -0.2191
 3801TIP3    H133038   3.460   6.995   1.922  1.1312 -0.0232 -2.1153
 3801TIP3    H233039   3.309   6.997   1.920  1.0403  0.1410  1.7396
 3802TIP3   OH233040   1.193   1.602   1.920  0.5805  0.3448  0.2666
 3802TIP3    H133041   1.216   1.517   1.956  0.7013 -0.5171 -1.8225
 3802TIP3    H233042   1.151   1.648   1.993 -1.0735 -2.1262  0.8993
 3803TIP3   OH233043   6.135   0.770   1.084  0.1664  0.1765 -0.3105
 3803TIP3    H133044   6.153   0.858   1.052 -0.2449  0.6122  0.6197
 3803TIP3    H233045   6.215   0.745   1.130 -0.3558  0.8086  0.9958
 3804TIP3   OH233046   5.618   0.414   0.370 -0.3330  0.4108 -0.3768
 3804TIP3    H133047   5.643   0.454   0.287  0.9719 -1.9071 -1.1348
 3804TIP3    H233048   5.527   0.386   0.357 -0.1960  0.2348 -0.9429
 3805TIP3   OH233049   0.517   5.810   2.112  0.7261 -0.1091  0.7695
 3805TIP3    H133050   0.444   5.865   2.085  0.2566 -0.9881  0.2224
 3805TIP3    H233051   0.483   5.720   2.106  1.3533 -0.4356  2.0418
 3806TIP3   OH233052   2.588   2.558   7.758 -0.0916  0.5382  0.1746
 3806TIP3    H133053   2.520   2.499   7.791  2.8166 -3.5007 -0.7284
 3806TIP3    H233054   2.629   2.593   7.837  0.9849 -2.0886  0.8331
 3807TIP3   OH233055   2.686   2.135   6.357  0.0825  0.0610  0.5239
 3807TIP3    H133056   2.620   2.078   6.317  1.6008 -0.5746 -1.1460
 3807TIP3    H233057   2.639   2.217   6.375 -1.1665 -0.3992 -0.5728
 3808TIP3   OH233058   0.676   1.380   0.866  0.1843  0.1634 -0.4050
 3808TIP3    H133059   0.725   1.310   0.825  1.0803  0.2741  0.4548
 3808TIP3    H233060   0.615   1.336   0.926  0.2208  0.0868 -0.4248
 3809TIP3   OH233061   1.736   2.186   1.069 -0.0309  0.3048 -0.1252
 3809TIP3    H133062   1.697   2.204   0.984  0.7628  2.7055 -0.0018
 3809TIP3    H233063   1.696   2.103   1.096 -1.3359  0.2260 -2.1853
 3810TIP3   OH233064   2.018   1.775   6.728 -0.3422  0.4165 -0.3067
 3810TIP3    H133065   1.989   1.690   6.695  0.0384 -0.1066  0.6888
 3810TIP3    H233066   2.113   1.773   6.717 -0.1925  0.1692  0.9586
 3811TIP3   OH233067   6.086   1.016   7.924  0.5383 -0.0864  0.0450
 3811TIP3    H133068   6.009   0.973   7.888 -0.6051  1.5054  0.5400
 3811TIP3    H233069   6.159   0.962   7.896 -0.6047 -0.6574 -1.9198
 3812TIP3   OH233070   5.284   1.275   7.175  0.3057 -0.9094 -0.0109
 3812TIP3    H133071   5.280   1.360   7.219 -1.1779 -0.8926 -0.1356
 3812TIP3    H233072   5.319   1.215   7.240  1.8343 -0.1075 -0.0799
 3813TIP3   OH233073   0.540   5.481   0.357 -0.1693  0.4685 -0.2194
 3813TIP3    H133074   0.522   5.511   0.446  0.3932  0.0860  0.0297
 3813TIP3    H233075   0.625   5.436   0.364 -0.3858 -0.0440 -0.8363
 3814TIP3   OH233076   3.165   4.805   7.555 -0.4985  0.3601  0.0488
 3814TIP3    H133077   3.223   4.771   7.487 -1.0857  1.1350 -0.8686
 3814TIP3    H233078   3.100   4.856   7.506 -0.5928  1.4007  1.2409
 3815TIP3   OH233079   0.540   4.976   7.241 -0.2507 -0.4925 -0.2155
 3815TIP3    H133080   0.540   5.048   7.178 -1.1549 -0.5480 -0.2762
 3815TIP3    H233081   0.628   4.979   7.280 -0.3775  0.8345 -0.0052
 3816TIP3   OH233082   0.053   6.876   8.091  0.2826  0.4230 -0.7678
 3816TIP3    H133083   0.029   6.865   8.183 -0.5723 -0.3074 -1.0691
 3816TIP3    H233084  -0.024   6.845   8.042  0.9743  0.2084 -1.7321
 3817TIP3   OH233085   6.226   3.260   0.878 -0.2254  0.0309  0.6547
 3817TIP3    H133086   6.153   3.317   0.855 -0.9699 -0.8442  0.8474
 3817TIP3    H233087   6.197   3.173   0.853  0.2870 -0.4760  1.8222
 3818TIP3   OH233088   2.226   0.451   1.302 -0.7630 -0.1908  0.4498
 3818TIP3    H133089   2.227   0.401   1.220 -2.6167 -0.4559  0.5821
 3818TIP3    H233090   2.273   0.395   1.364  0.8255  0.0975 -0.4468
 3819TIP3   OH233091   7.156   4.068   0.605  0.1938  0.0636 -0.8369
 3819TIP3    H133092   7.128   4.109   0.523 -0.8454 -2.9440 -2.0796
 3819TIP3    H233093   7.077   4.068   0.659  0.0759 -0.5917 -0.9987
 3820TIP3   OH233094   5.162   0.022   7.592 -0.4062 -0.3528  0.4734
 3820TIP3    H133095   5.119   0.018   7.677 -0.3668 -2.1640  0.4243
 3820TIP3    H233096   5.101  -0.020   7.532  0.2536 -0.5188 -0.0924
 3821TIP3   OH233097   2.373   5.096   0.187  0.2733 -0.1075  0.3704
 3821TIP3    H133098   2.319   5.138   0.254  1.5698  1.9255  0.1976
 3821TIP3    H233099   2.463   5.117   0.212  0.7854  0.5214 -1.8770
 3822TIP3   OH233100   6.237   6.859   1.350  0.5419 -0.5599  0.0323
 3822TIP3    H133101   6.289   6.785   1.380 -0.4981 -1.7114 -0.9151
 3822TIP3    H233102   6.268   6.875   1.261  0.1959 -0.4186 -0.0644
 3823TIP3   OH233103   0.490   5.971   7.657  0.1159  0.2676 -0.3325
 3823TIP3    H133104   0.543   6.049   7.644 -0.9910  1.0017 -0.5016
 3823TIP3    H233105   0.427   5.996   7.725 -0.6108 -0.2901 -0.7930
 3824TIP3   OH233106   6.960   2.328   7.138  1.0553 -0.0913  0.2435
 3824TIP3    H133107   6.943   2.310   7.046  0.7899 -0.1827  0.3099
 3824TIP3    H233108   6.911   2.260   7.185 -0.3166  1.0767  0.5106
 3825TIP3   OH233109   6.277   2.148   7.187  0.5444 -0.5246 -0.4736
 3825TIP3    H133110   6.190   2.154   7.227  1.5786 -0.1751  1.8456
 3825TIP3    H233111   6.260   2.147   7.093 -2.1128 -2.6291 -0.0743
 3826TIP3   OH233112   0.599   1.442   6.582 -0.4735  0.3573 -0.1361
 3826TIP3    H133113   0.574   1.415   6.671  0.1146  2.2963  0.6301
 3826TIP3    H233114   0.530   1.501   6.554  0.8050  2.0153  0.1555
 3827TIP3   OH233115   0.171   2.184   1.086 -0.0677  0.4082 -0.7434
 3827TIP3    H133116   0.252   2.136   1.103 -1.1049 -1.3027 -0.5099
 3827TIP3    H233117   0.103   2.135   1.132 -1.1238  2.2900 -0.2334
 3828TIP3   OH233118   2.284   0.287   7.267  0.0594  0.4584  0.2197
 3828TIP3    H133119   2.331   0.350   7.323  1.3756 -0.4502  0.1459
 3828TIP3    H233120   2.353   0.243   7.217 -0.9946  0.1825 -1.0191
 3829TIP3   OH233121   1.111   1.180   1.315  0.4205 -0.5331 -0.6630
 3829TIP3    H133122   1.102   1.225   1.399  0.6849 -0.4115 -0.6981
 3829TIP3    H233123   1.023   1.149   1.295  0.0943  0.5436 -0.9516
 3830TIP3   OH233124   2.065   5.928   7.300 -0.2065  0.4244  0.3895
 3830TIP3    H133125   2.001   5.988   7.262 -1.6918 -0.7233  1.0467
 3830TIP3    H233126   2.091   5.968   7.382  1.3428  1.8052 -0.7299
 3831TIP3   OH233127   2.332   1.531   2.157 -0.2102  0.3131  0.7301
 3831TIP3    H133128   2.249   1.554   2.115  1.0273  0.2713 -1.7966
 3831TIP3    H233129   2.334   1.435   2.156  0.1713  0.3269  0.1870
 3832TIP3   OH233130   0.392   1.419   1.943 -0.2676 -0.0547  0.2072
 3832TIP3    H133131   0.447   1.448   1.871  0.1003 -1.0253  0.0888
 3832TIP3    H233132   0.316   1.477   1.940  0.9928  1.6561  0.7313
 3833TIP3   OH233133   6.529   0.947   1.717 -0.2005  0.8538  0.0055
 3833TIP3    H133134   6.479   0.868   1.694  0.1771  0.5902  0.0940
 3833TIP3    H233135   6.546   0.989   1.633 -0.7945  1.0814 -0.0076
 3834TIP3   OH233136   4.711   5.934   1.456  0.6425 -0.0403 -0.1602
 3834TIP3    H133137   4.648   5.909   1.523  1.9678  0.6906  1.3793
 3834TIP3    H233138   4.689   5.879   1.381 -0.0651 -1.7495  1.2754
 3835TIP3   OH233139   0.021   6.144   6.506  0.0058 -0.5451 -0.0713
 3835TIP3    H133140   0.103   6.116   6.465 -0.2736 -1.9989  0.3121
 3835TIP3    H233141  -0.034   6.172   6.433  0.6689 -0.0338 -0.3773
 3836TIP3   OH233142   7.039   4.117   1.429  0.4394  0.3815 -0.2449
 3836TIP3    H133143   6.959   4.069   1.406  1.2561 -1.0776 -0.1070
 3836TIP3    H233144   7.056   4.093   1.520  1.7421 -0.3418 -0.6672
 3837TIP3   OH233145   6.205   0.274   6.989 -0.1184 -0.0833 -0.1806
 3837TIP3    H133146   6.233   0.345   6.932 -1.7260  1.8597  1.3874
 3837TIP3    H233147   6.111   0.265   6.972 -0.7560  0.9478  2.5379
 3838TIP3   OH233148   1.053   3.099   0.762 -0.3166 -0.1922 -0.0141
 3838TIP3    H133149   1.144   3.095   0.733 -1.1931 -0.1125 -2.9442
 3838TIP3    H233150   1.033   3.010   0.790  0.5788 -0.2698  0.3920
 3839TIP3   OH233151   1.312   0.163   1.310 -0.4093 -0.9373  0.2125
 3839TIP3    H133152   1.393   0.143   1.263 -0.7286 -1.3273 -0.1864
 3839TIP3    H233153   1.305   0.094   1.376  0.7839  0.4406  1.8078
 3840TIP3   OH233154   0.672   1.331   2.177 -1.0139  0.2700  0.1333
 3840TIP3    H133155   0.747   1.352   2.121 -1.9221  1.3003 -0.7078
 3840TIP3    H233156   0.712   1.304   2.260  0.2933  0.6850 -0.3402
 3841TIP3   OH233157   4.207   3.474   8.029 -0.0428 -0.3333  0.6777
 3841TIP3    H133158   4.185   3.454   8.120  0.2018 -1.7726  0.4408
 3841TIP3    H233159   4.123   3.471   7.984  0.0326 -1.1455  0.5904
 3842TIP3   OH233160   4.464   1.474   1.521  0.0011 -0.4196 -0.2221
 3842TIP3    H133161   4.536   1.490   1.581  1.0640 -0.9360 -1.3482
 3842TIP3    H233162   4.408   1.411   1.567  1.0914 -1.2356  0.0082
 3843TIP3   OH233163   2.802   0.557   1.507 -0.1982  0.0347  0.3980
 3843TIP3    H133164   2.737   0.600   1.450  0.2693  0.6196  0.2987
 3843TIP3    H233165   2.853   0.630   1.543 -0.4810 -0.3333  1.5539
 3844TIP3   OH233166   3.016   3.870   0.703 -0.4085 -0.1967 -0.2312
 3844TIP3    H133167   2.973   3.811   0.764  0.0208  0.7045  0.9628
 3844TIP3    H233168   2.945   3.922   0.665 -0.7240 -1.0811 -0.8619
 3845TIP3   OH233169   6.851   3.294   2.066 -0.4039  0.0300 -0.1489
 3845TIP3    H133170   6.804   3.223   2.021  0.4066 -0.2738 -0.5128
 3845TIP3    H233171   6.782   3.357   2.088 -0.6527  0.7377 -2.8229
 3846TIP3   OH233172   6.563   2.526   1.474  0.7518 -0.0855 -0.3517
 3846TIP3    H133173   6.548   2.503   1.565  0.3550 -0.8528 -0.6024
 3846TIP3    H233174   6.656   2.548   1.469  1.0373 -1.1671  0.0035
 3847TIP3   OH233175   1.703   1.221   7.691  0.0097  0.0479 -0.2847
 3847TIP3    H133176   1.786   1.267   7.702  0.1692 -0.5759  1.2040
 3847TIP3    H233177   1.650   1.248   7.766 -0.6297 -0.6165 -0.4899
 3848TIP3   OH233178   1.072   2.714   1.387  0.2396 -0.0525 -0.1222
 3848TIP3    H133179   1.011   2.676   1.323  1.3042  0.2879 -1.3533
 3848TIP3    H233180   1.074   2.807   1.367  1.1689 -0.0593 -0.1017
 3849TIP3   OH233181   6.937   4.486   0.350 -0.2886  0.2439 -0.2949
 3849TIP3    H133182   6.988   4.556   0.309 -0.3249 -0.3915 -1.4594
 3849TIP3    H233183   6.851   4.493   0.309 -0.1266 -0.8207 -0.8335
 3850TIP3   OH233184   0.388   2.699   1.004 -0.0904  0.0652 -0.5324
 3850TIP3    H133185   0.376   2.735   1.092 -1.5721  0.3398 -0.8289
 3850TIP3    H233186   0.362   2.607   1.012 -1.8729  0.4964 -1.0299
 3851TIP3   OH233187   5.195   6.803   6.594  0.6954  0.6960 -0.5311
 3851TIP3    H133188   5.222   6.740   6.660  0.5648  0.6767 -0.4963
 3851TIP3    H233189   5.252   6.879   6.607  1.6448  0.1234 -1.3342
 3852TIP3   OH233190   3.934   2.983   0.650 -0.3537  0.2797 -0.0833
 3852TIP3    H133191   3.940   3.078   0.661 -0.4847  0.1977  0.7842
 3852TIP3    H233192   4.015   2.949   0.688 -0.2202  0.0605 -0.5653
 3853TIP3   OH233193   3.525   1.667   6.873  0.6097  0.1278 -0.1069
 3853TIP3    H133194   3.482   1.632   6.951 -0.4498 -0.0129 -0.7407
 3853TIP3    H233195   3.618   1.665   6.893  0.3045  0.7335  1.4160
 3854TIP3   OH233196   7.070   0.825   1.717 -0.2056 -0.3654 -0.3617
 3854TIP3    H133197   6.976   0.808   1.716  0.0962 -2.5004  2.0185
 3854TIP3    H233198   7.097   0.805   1.807  2.3877  1.0211 -0.7773
 3855TIP3   OH233199   0.949   6.817   0.398  0.0043 -0.4688  0.4417
 3855TIP3    H133200   0.973   6.725   0.388 -1.2249 -0.6377 -1.0644
 3855TIP3    H233201   0.886   6.817   0.471  1.4433 -0.5411  1.7191
 3856TIP3   OH233202   4.801   5.718   6.867  0.1793  0.3467 -0.7320
 3856TIP3    H133203   4.831   5.693   6.954 -1.1702  2.7559  0.4738
 3856TIP3    H233204   4.828   5.809   6.858 -2.1627  0.9669 -1.6879
 3857TIP3   OH233205   2.170   2.222   1.511  0.2253  0.0821 -0.3736
 3857TIP3    H133206   2.153   2.298   1.455 -0.6540 -0.7628 -1.2710
 3857TIP3    H233207   2.086   2.177   1.516  0.7466 -0.8356  0.1369
 3858TIP3   OH233208   3.787   3.205   0.470  0.0912 -0.1303  0.3665
 3858TIP3    H133209   3.868   3.182   0.424 -0.1276  1.8542 -1.0860
 3858TIP3    H233210   3.816   3.244   0.552  0.5839 -0.4363  0.3406
 3859TIP3   OH233211   1.750   6.138   6.782  0.1283  0.2732 -0.3078
 3859TIP3    H133212   1.737   6.173   6.694  0.5903  1.7882  0.2007
 3859TIP3    H233213   1.718   6.208   6.840 -0.6496 -0.9217  0.7187
 3860TIP3   OH233214   2.361   6.470   0.159  0.2464 -0.0022  0.1042
 3860TIP3    H133215   2.334   6.550   0.114 -1.0953 -0.2186  0.4742
 3860TIP3    H233216   2.422   6.500   0.226 -0.3564  0.7500  0.3381
 3861TIP3   OH233217   2.249   5.357   1.119  0.0586 -0.4891  0.1438
 3861TIP3    H133218   2.236   5.262   1.130  0.0063 -0.6759 -1.3965
 3861TIP3    H233219   2.340   5.365   1.091  0.2606 -0.0170  0.9292
 3862TIP3   OH233220   6.809   2.584   7.605  0.2005  0.1985  0.3974
 3862TIP3    H133221   6.725   2.630   7.604 -0.0687 -0.2877  0.0418
 3862TIP3    H233222   6.815   2.543   7.518  1.9008  2.1580 -0.4494
 3863TIP3   OH233223   2.395   1.628   7.787 -0.1338 -0.7343 -0.5497
 3863TIP3    H133224   2.329   1.570   7.749 -0.4156  0.6201 -2.1972
 3863TIP3    H233225   2.443   1.663   7.712  0.7366  0.3392  0.4713
 3864TIP3   OH233226   5.020   3.347   0.447  0.2508  0.6250 -0.7229
 3864TIP3    H133227   4.925   3.336   0.447  0.2716  0.3951  0.5413
 3864TIP3    H233228   5.043   3.363   0.538  1.3781  1.1619 -1.0853
 3865TIP3   OH233229   0.123   6.585   7.577 -0.4914 -0.6518 -0.5897
 3865TIP3    H133230   0.042   6.623   7.544 -1.6422 -2.2996  0.3048
 3865TIP3    H233231   0.113   6.491   7.567  0.2910 -1.0353  1.7501
 3866TIP3   OH233232   5.828   2.228   7.821  0.3697 -0.6372  0.0294
 3866TIP3    H133233   5.859   2.158   7.878  1.1432 -0.4453 -0.1581
 3866TIP3    H233234   5.756   2.189   7.772  0.4528 -1.1422  0.3115
 3867TIP3   OH233235   2.549   0.124   1.729  0.4422  0.1787  0.0527
 3867TIP3    H133236   2.569   0.040   1.771 -0.1496 -0.6021 -1.1979
 3867TIP3    H233237   2.581   0.190   1.790 -0.5925 -0.9353  1.8223
 3868TIP3   OH233238   1.346   2.343   1.104  0.2881 -0.5147  0.3683
 3868TIP3    H133239   1.380   2.399   1.174 -0.4125 -0.9282  1.0527
 3868TIP3    H233240   1.395   2.262   1.112  2.5146  0.5606 -1.7073
 3869TIP3   OH233241   2.572   0.639   7.546  0.5688 -0.1227  0.4514
 3869TIP3    H133242   2.572   0.725   7.503  1.1428  1.2007  3.0123
 3869TIP3    H233243   2.636   0.648   7.617  3.2931 -3.7759 -1.3431
 3870TIP3   OH233244   6.567   3.305   7.404  0.8700 -0.2032  0.3387
 3870TIP3    H133245   6.559   3.240   7.474  0.7249 -0.3166  0.2179
 3870TIP3    H233246   6.545   3.257   7.324 -0.5726  0.3213  0.4065
 3871TIP3   OH233247   2.102   4.046   6.728 -0.2737  0.0845 -0.0170
 3871TIP3    H133248   2.049   4.093   6.793 -2.1903 -2.6527  0.5174
 3871TIP3    H233249   2.124   4.112   6.663 -2.3613  1.8687  0.9974
 3872TIP3   OH233250   5.658   1.235   2.277 -0.6765 -0.4052  0.1992
 3872TIP3    H133251   5.600   1.311   2.281  1.3135  1.1070  1.2811
 3872TIP3    H233252   5.684   1.219   2.367  0.4462 -1.1753 -0.2435
 3873TIP3   OH233253   0.013   6.377   7.771  0.1296  0.5561  0.2741
 3873TIP3    H133254  -0.046   6.365   7.697  2.7320  3.3828 -2.4176
 3873TIP3    H233255   0.080   6.310   7.759  0.0376  0.4008  0.6218
 3874TIP3   OH233256   7.134   1.128   2.155 -0.2549 -0.0268 -0.3547
 3874TIP3    H133257   7.156   1.128   2.062  2.6315  0.8468  0.2755
 3874TIP3    H233258   7.166   1.044   2.188  0.5043  0.4757  0.2114
 3875TIP3   OH233259   1.123   1.975   7.907  0.0469 -0.0221 -0.1805
 3875TIP3    H133260   1.178   2.053   7.904  0.4175 -0.2950 -0.4514
 3875TIP3    H233261   1.034   2.009   7.922  0.3465  0.3848  0.6709
 3876TIP3   OH233262   6.185   2.555   7.314 -0.4099 -0.4566 -0.3763
 3876TIP3    H133263   6.164   2.604   7.394  1.5524 -1.6315  0.9180
 3876TIP3    H233264   6.156   2.612   7.243 -3.1430  0.1765  1.1629
 3877TIP3   OH233265   0.264   2.319   0.410  0.1548  0.0310 -0.0692
 3877TIP3    H133266   0.219   2.288   0.489 -0.8819 -0.1237 -0.7119
 3877TIP3    H233267   0.351   2.344   0.441  0.5014 -2.0795  0.7220
 3878TIP3   OH233268   6.963   0.442   1.953  0.0036  0.1081 -0.6417
 3878TIP3    H133269   6.897   0.402   2.009 -0.4710  2.0360  0.2220
 3878TIP3    H233270   6.994   0.518   2.002  0.7621  0.9012 -2.2958
 3879TIP3   OH233271   2.067   6.552   0.208  0.3328 -0.1793  0.0658
 3879TIP3    H133272   2.121   6.579   0.282  0.7879 -1.7845  0.3507
 3879TIP3    H233273   1.981   6.590   0.226  0.1502 -1.4093  1.9831
 3880TIP3   OH233274   3.061   6.889   7.939  0.0391 -0.2641 -0.1599
 3880TIP3    H133275   3.070   6.823   7.871  1.5928  0.8026 -1.0193
 3880TIP3    H233276   2.967   6.893   7.956 -0.2957 -1.0370 -1.7438
 3881TIP3   OH233277   3.822   1.181   0.707  0.3251 -0.5417 -0.1138
 3881TIP3    H133278   3.732   1.176   0.739  1.0658  2.3128  2.6135
 3881TIP3    H233279   3.827   1.264   0.659  1.6091 -0.4502  0.1435
 3882TIP3   OH233280   4.327   3.509   1.536  1.1064 -0.0896 -0.2959
 3882TIP3    H133281   4.279   3.433   1.503  0.2322  0.4326 -0.2092
 3882TIP3    H233282   4.287   3.584   1.493  1.1023  0.4507  0.6428
 3883TIP3   OH233283   1.821   0.095   0.771  0.1507  0.1848 -0.8781
 3883TIP3    H133284   1.899   0.131   0.729  1.9137 -0.3618  1.8189
 3883TIP3    H233285   1.843   0.091   0.864 -2.4974 -1.5295 -0.2617
 3884TIP3   OH233286   4.347   3.777   7.148 -0.1395 -0.3797 -0.0294
 3884TIP3    H133287   4.440   3.772   7.126 -0.2687 -0.4591 -0.5750
 3884TIP3    H233288   4.333   3.868   7.174  0.1975 -0.4886  0.5526
 3885TIP3   OH233289   2.047   2.919   1.424 -0.9201 -0.1114  0.0575
 3885TIP3    H133290   2.143   2.919   1.425 -0.8720 -0.9714 -1.9833
 3885TIP3    H233291   2.024   3.011   1.408 -0.3002 -0.4522 -3.2777
 3886TIP3   OH233292   6.773   5.860   1.652 -0.1521  0.3150 -0.5826
 3886TIP3    H133293   6.860   5.868   1.692 -0.6289  0.4337  0.4421
 3886TIP3    H233294   6.754   5.766   1.653 -0.8854  0.4594  1.0592
 3887TIP3   OH233295   0.274   0.052   1.078  0.0430  0.8476 -0.5924
 3887TIP3    H133296   0.181   0.027   1.084  0.5498 -0.5895  1.7384
 3887TIP3    H233297   0.272   0.147   1.067 -1.7229  0.6941 -1.9959
 3888TIP3   OH233298   4.100   1.358   1.105  0.1104 -0.9041  0.3049
 3888TIP3    H133299   4.086   1.334   1.013 -1.0881 -0.0782  0.2668
 3888TIP3    H233300   4.087   1.453   1.107  2.1382 -0.6143  0.9593
 3889TIP3   OH233301   1.501   2.310   1.674 -0.0201 -0.3814 -0.2711
 3889TIP3    H133302   1.437   2.241   1.694 -0.7156  0.2422 -0.3361
 3889TIP3    H233303   1.546   2.325   1.757 -1.1627  0.4078  0.2189
 3890TIP3   OH233304   1.071   4.132   7.157  0.4471  0.5662  0.0624
 3890TIP3    H133305   1.013   4.199   7.192  0.1590  0.9933 -1.1891
 3890TIP3    H233306   1.130   4.110   7.229  0.6429  2.2976  0.4410
 3891TIP3   OH233307   6.420   2.993   0.138 -0.0762 -0.1676 -0.5840
 3891TIP3    H133308   6.465   2.931   0.080  2.2010  0.8825  0.0016
 3891TIP3    H233309   6.408   2.945   0.220 -0.4933 -0.6233 -0.9103
 3892TIP3   OH233310   6.229   0.234   0.140  0.3429 -0.9047  0.0527
 3892TIP3    H133311   6.297   0.227   0.207 -0.1037 -0.8707  0.5038
 3892TIP3    H233312   6.212   0.327   0.132  1.0519 -0.8315 -0.7697
 3893TIP3   OH233313   4.457   0.351   0.641  0.4129  0.2047  0.8352
 3893TIP3    H133314   4.384   0.336   0.580  0.2027  1.7442  0.6813
 3893TIP3    H233315   4.434   0.300   0.719  0.3309 -1.1983 -0.1000
 3894TIP3   OH233316   6.927   1.644   0.077  0.5163  0.3012 -0.0061
 3894TIP3    H133317   6.911   1.562   0.123  1.6372  0.3005  0.3903
 3894TIP3    H233318   6.908   1.625  -0.015  2.1813 -0.8067 -0.1387
 3895TIP3   OH233319   2.134   6.986   2.328 -0.0331  0.0986 -0.3644
 3895TIP3    H133320   2.136   7.008   2.421 -1.6801 -0.4294 -0.1870
 3895TIP3    H233321   2.210   7.031   2.291 -0.3528  1.7589  0.9240
 3896TIP3   OH233322   4.575   6.654   1.252 -0.1591 -0.1544  0.1658
 3896TIP3    H133323   4.553   6.692   1.337  0.1519 -0.9843  0.6145
 3896TIP3    H233324   4.531   6.711   1.189  1.1124  1.5636  0.7858
 3897TIP3   OH233325   4.844   6.148   7.163 -0.0605 -0.5302 -0.2664
 3897TIP3    H133326   4.833   6.161   7.069  0.3363  0.1835 -0.2139
 3897TIP3    H233327   4.913   6.210   7.189  0.1350 -1.0206  0.4159
 3898TIP3   OH233328   3.245   3.189   0.119  0.1861 -0.0833  0.0937
 3898TIP3    H133329   3.209   3.215   0.204 -1.0730 -2.2220  0.2497
 3898TIP3    H233330   3.209   3.252   0.057  1.2457  1.5905  1.1414
 3899TIP3   OH233331   5.006   2.218   0.859 -0.0518  0.0018  0.4945
 3899TIP3    H133332   5.036   2.294   0.909 -1.2992  0.1489  1.0571
 3899TIP3    H233333   5.079   2.156   0.863  1.2934  1.4565 -0.6363
 3900TIP3   OH233334   4.283   0.831   1.340  0.0889 -0.1341  0.3223
 3900TIP3    H133335   4.217   0.892   1.306 -0.0455 -0.0955  0.6521
 3900TIP3    H233336   4.333   0.804   1.262 -1.8656 -2.0749 -0.2782
 3901TIP3   OH233337   2.410   5.647   1.246 -0.7249  0.5527 -0.0148
 3901TIP3    H133338   2.353   5.578   1.210 -1.5776  0.8666  0.7197
 3901TIP3    H233339   2.484   5.650   1.186 -0.8281 -0.8039 -0.2236
 3902TIP3   OH233340   2.743   1.539   1.301  0.5040 -0.2688  0.1702
 3902TIP3    H133341   2.720   1.497   1.384 -1.2643  0.8599  0.2734
 3902TIP3    H233342   2.660   1.568   1.265  1.5545  2.1192 -0.4457
 3903TIP3   OH233343   3.443   0.891   0.228 -0.5143 -0.0427  0.5932
 3903TIP3    H133344   3.382   0.840   0.173  0.3080 -0.3858 -0.0034
 3903TIP3    H233345   3.396   0.903   0.311 -2.0337  1.0413 -0.3966
 3904TIP3   OH233346   2.102   4.420   7.701  0.4868 -0.3744  0.1090
 3904TIP3    H133347   2.017   4.400   7.740 -0.3417 -0.8917 -1.8682
 3904TIP3    H233348   2.146   4.335   7.695 -0.4000 -0.7147 -2.2899
 3905TIP3   OH233349   0.751   1.741   2.513 -0.7100 -0.4560  1.0282
 3905TIP3    H133350   0.674   1.697   2.478 -2.1779  1.1506  2.1363
 3905TIP3    H233351   0.717   1.796   2.584  1.2331  1.4592  0.5427
 3906TIP3   OH233352   4.386   1.857   0.944 -0.0849 -0.2446 -0.4470
 3906TIP3    H133353   4.333   1.817   0.875 -0.7671  2.3367 -1.4667
 3906TIP3    H233354   4.464   1.888   0.899  0.1508  0.1344  0.2229
 3907TIP3   OH233355   4.787   6.708   0.555 -0.3909  0.2762  0.0088
 3907TIP3    H133356   4.822   6.712   0.466 -0.6821 -2.6983 -0.2855
 3907TIP3    H233357   4.863   6.686   0.610 -0.5585  0.2517  0.2324
 3908TIP3   OH233358   2.384   5.588   6.756  0.9485  0.1493  0.1274
 3908TIP3    H133359   2.405   5.680   6.741 -0.4624  0.5968  0.8471
 3908TIP3    H233360   2.423   5.569   6.842  1.1168  0.1112  0.0428
 3909TIP3   OH233361   6.315   5.937   1.987 -0.3004 -0.6356  0.6285
 3909TIP3    H133362   6.269   5.888   1.919 -2.0456  1.1028  0.5003
 3909TIP3    H233363   6.371   5.998   1.938 -2.0230  1.0472  0.7074
 3910TIP3   OH233364   0.370   5.397   7.340 -0.4176 -0.2006 -0.4975
 3910TIP3    H133365   0.448   5.343   7.355  0.2958  0.5731 -1.3211
 3910TIP3    H233366   0.363   5.401   7.244  0.1129  1.9671 -0.4567
 3911TIP3   OH233367   2.767   2.248   7.798 -0.3774 -0.1003 -0.3178
 3911TIP3    H133368   2.724   2.247   7.712 -0.3975 -0.0588 -0.3074
 3911TIP3    H233369   2.808   2.334   7.804 -0.9258  0.1337 -0.0079
 3912TIP3   OH233370   2.279   0.820   0.924  0.6365  0.4440  0.0149
 3912TIP3    H133371   2.321   0.876   0.989  1.7196  0.2597 -0.5277
 3912TIP3    H233372   2.273   0.874   0.846 -1.0540  0.8117  0.3619
 3913TIP3   OH233373   4.305   0.834   6.986 -0.0414  0.3682 -0.1887
 3913TIP3    H133374   4.243   0.866   6.919 -2.1528  1.2111  2.0910
 3913TIP3    H233375   4.325   0.745   6.959 -0.0941  1.0052 -2.4766
 3914TIP3   OH233376   1.276   0.637   6.534 -0.1905 -0.0743 -0.0983
 3914TIP3    H133377   1.185   0.615   6.511 -0.7602  0.8867  1.2127
 3914TIP3    H233378   1.275   0.731   6.548  0.9208 -0.1307  0.3718
 3915TIP3   OH233379   1.281   2.270   1.422  0.1901 -0.4969 -0.0454
 3915TIP3    H133380   1.370   2.266   1.457  1.6683 -0.5780 -3.6760
 3915TIP3    H233381   1.271   2.361   1.392 -1.3092 -0.2495  1.1132
 3916TIP3   OH233382   1.675   2.212   0.797  1.0629  0.1050 -0.0297
 3916TIP3    H133383   1.604   2.150   0.780 -0.6366  1.8036  0.6454
 3916TIP3    H233384   1.695   2.250   0.712  0.0396  0.7574  0.0033
 3917TIP3   OH233385   7.013   0.734   2.174 -0.1730 -0.8865  0.0023
 3917TIP3    H133386   7.077   0.789   2.220 -0.7718 -0.7466  0.6728
 3917TIP3    H233387   7.018   0.763   2.083 -0.7968  0.5752  0.4240
 3918TIP3   OH233388   2.610   0.592   2.121 -0.4204  0.2017 -0.2985
 3918TIP3    H133389   2.633   0.525   2.185  0.6652  0.0009 -0.8811
 3918TIP3    H233390   2.519   0.614   2.141 -0.1604  0.0176  1.1979
 3919TIP3   OH233391   3.190   5.668   0.294 -0.0417 -0.0938 -0.1433
 3919TIP3    H133392   3.188   5.688   0.388 -1.5182  0.5919 -0.3093
 3919TIP3    H233393   3.189   5.754   0.251 -2.1097 -0.4265 -0.8094
 3920TIP3   OH233394   4.213   6.004   6.214  0.1054  0.4746  0.0594
 3920TIP3    H133395   4.166   5.993   6.132  0.3114 -0.0298  0.0036
 3920TIP3    H233396   4.268   5.925   6.221  0.5010  0.7766  0.4073
 3921TIP3   OH233397   6.090   7.096   1.486  0.1784 -0.3938 -0.2239
 3921TIP3    H133398   6.002   7.065   1.465 -0.3047  0.3055  0.7398
 3921TIP3    H233399   6.148   7.027   1.452 -0.5615  0.5113 -3.4983
 3922TIP3   OH233400   0.135   6.910   0.959  0.0454  0.3294 -0.0003
 3922TIP3    H133401   0.112   6.829   1.005  0.4910 -0.2765 -0.8429
 3922TIP3    H233402   0.079   6.910   0.882  2.1978 -0.7245 -1.6191
 3923TIP3   OH233403   1.694   5.397   7.764 -0.3402  0.3106  0.2443
 3923TIP3    H133404   1.691   5.328   7.698 -0.0569 -0.2825  0.8414
 3923TIP3    H233405   1.731   5.354   7.841 -1.9185  0.6571  1.2064
 3924TIP3   OH233406   0.103   1.464   1.089  0.1558 -0.4956 -0.7235
 3924TIP3    H133407   0.030   1.526   1.080  1.5935  1.3261 -0.1698
 3924TIP3    H233408   0.121   1.436   0.999  0.7354  1.3982 -1.2224
 3925TIP3   OH233409   6.967   2.328   2.696 -0.4320  0.0057  0.5196
 3925TIP3    H133410   7.057   2.359   2.692 -0.0993 -0.6073  2.6103
 3925TIP3    H233411   6.972   2.236   2.670 -0.6533  0.2871 -0.5571
 3926TIP3   OH233412   1.305   2.757   0.828  0.3551  0.2342 -0.0264
 3926TIP3    H133413   1.326   2.664   0.818  1.9694  0.5938 -0.2102
 3926TIP3    H233414   1.214   2.765   0.800 -0.0451 -1.4226  0.7929
 3927TIP3   OH233415   0.909   1.521   0.222 -0.0615  0.5247 -0.3490
 3927TIP3    H133416   1.000   1.551   0.225 -0.1745  0.8070  0.2026
 3927TIP3    H233417   0.874   1.558   0.141  0.2191  0.6746 -0.4014
 3928TIP3   OH233418   2.433   1.236   1.646 -0.2313  0.5895  0.6346
 3928TIP3    H133419   2.491   1.225   1.721  1.2042  1.6133 -0.3014
 3928TIP3    H233420   2.424   1.148   1.609  2.2203  0.6800 -0.2789
 3929TIP3   OH233421   7.013   5.935   1.394  0.5143  0.3017  0.6779
 3929TIP3    H133422   7.030   6.029   1.401 -1.9578  0.8082  0.3507
 3929TIP3    H233423   6.965   5.914   1.474  1.0258 -0.6686  0.7249
 3930TIP3   OH233424   3.802   6.914   7.976  0.1364  0.0990  0.0257
 3930TIP3    H133425   3.839   6.834   8.012  0.9188  0.0057 -0.9822
 3930TIP3    H233426   3.707   6.901   7.981  0.2040  0.1756  2.2484
 3931TIP3   OH233427   1.774   0.796   0.496 -0.6293 -0.4228  0.5554
 3931TIP3    H133428   1.799   0.718   0.445 -0.5611  0.0716 -0.1681
 3931TIP3    H233429   1.722   0.761   0.568  0.3769 -1.2604  0.8986
 3932TIP3   OH233430   6.830   6.646   0.457  0.1062  0.4477  0.1165
 3932TIP3    H133431   6.778   6.657   0.537 -0.3264  1.9163 -0.3538
 3932TIP3    H233432   6.803   6.561   0.423 -3.3546  1.9262 -1.0683
 3933TIP3   OH233433   5.545   2.523   1.057 -0.5166 -0.0176  0.0426
 3933TIP3    H133434   5.559   2.431   1.079  1.6780  0.3848  0.3600
 3933TIP3    H233435   5.555   2.526   0.962  1.7331  0.2849  0.2769
 3934TIP3   OH233436   3.072   1.193   7.428 -0.0122  0.7156  0.1209
 3934TIP3    H133437   3.027   1.262   7.379 -0.5764  0.6447  0.5394
 3934TIP3    H233438   3.150   1.174   7.376  0.0401  1.5220 -0.1033
 3935TIP3   OH233439   6.727   2.329   2.519 -0.4033  0.0273  0.5386
 3935TIP3    H133440   6.662   2.374   2.572 -0.8381  0.1351 -0.0824
 3935TIP3    H233441   6.804   2.322   2.575 -0.3552  1.4795  0.6529
 3936TIP3   OH233442   3.705   0.081   7.543  0.7795  0.0879  0.4505
 3936TIP3    H133443   3.703   0.013   7.611  0.4882 -1.2880 -0.8971
 3936TIP3    H233444   3.634   0.140   7.566 -0.2953 -1.2028  0.5295
 3937TIP3   OH233445   6.431   6.192   6.654  0.2815 -0.5503 -0.2612
 3937TIP3    H133446   6.520   6.157   6.653  1.5223  2.4649 -1.1586
 3937TIP3    H233447   6.404   6.194   6.563 -0.1292 -0.0590 -0.1339
 3938TIP3   OH233448   5.644   4.426   1.686  0.2976 -0.1453 -0.0201
 3938TIP3    H133449   5.581   4.359   1.713  0.6890 -0.2052  0.7912
 3938TIP3    H233450   5.658   4.478   1.766 -0.0397  0.9319 -0.6569
 3939TIP3   OH233451   0.269   2.517   7.210 -0.6916 -0.2853  0.1060
 3939TIP3    H133452   0.211   2.446   7.182 -0.1457 -0.4306 -0.6513
 3939TIP3    H233453   0.310   2.548   7.130 -0.7441  0.7357  0.4597
 3940TIP3   OH233454   3.924   0.659   7.299  0.4317 -0.1833 -0.1979
 3940TIP3    H133455   3.931   0.734   7.358  0.5930 -0.6078  0.3227
 3940TIP3    H233456   3.901   0.585   7.355 -1.7589 -0.1304 -0.9930
 3941TIP3   OH233457   6.936   5.869   7.200  0.4014  0.0085  0.3059
 3941TIP3    H133458   6.846   5.896   7.183  0.1935 -0.2542  0.9709
 3941TIP3    H233459   6.952   5.798   7.138  0.6919  1.1309 -0.9156
 3942TIP3   OH233460   0.564   3.287   7.359  0.2469 -0.1408  0.0746
 3942TIP3    H133461   0.606   3.225   7.299  0.3790  0.0757 -0.0574
 3942TIP3    H233462   0.475   3.253   7.371  0.3950 -0.4948  0.2003
 3943TIP3   OH233463   5.674   5.688   1.075 -0.0914 -0.0834  0.1506
 3943TIP3    H133464   5.703   5.615   1.129  0.5322 -1.4107 -1.9116
 3943TIP3    H233465   5.578   5.688   1.083 -0.0569 -0.7788  0.5900
 3944TIP3   OH233466   0.580   6.150   2.021 -0.3640  0.0802  0.0480
 3944TIP3    H133467   0.649   6.099   2.065 -1.4020 -0.6266  0.8977
 3944TIP3    H233468   0.573   6.110   1.935 -2.5378 -2.5800  1.3926
 3945TIP3   OH233469   5.439   3.543   2.514  0.7146 -0.0914  0.4646
 3945TIP3    H133470   5.469   3.452   2.507  0.3378  0.0344 -3.6793
 3945TIP3    H233471   5.516   3.596   2.495 -0.2671  0.3266 -2.5802
 3946TIP3   OH233472   1.327   2.055   0.966  0.3641 -0.4529  0.1752
 3946TIP3    H133473   1.341   2.089   1.054 -1.2490  1.8220 -0.3888
 3946TIP3    H233474   1.242   2.011   0.970 -0.3771  0.8585 -0.5306
 3947TIP3   OH233475   3.288   1.205   1.254 -0.4376  0.5499  0.4145
 3947TIP3    H133476   3.364   1.201   1.311 -0.3951  0.0196  0.3301
 3947TIP3    H233477   3.228   1.139   1.289 -0.5287  0.4187  0.0221
 3948TIP3   OH233478   5.934   1.992   0.592 -0.1481  0.2173  0.1527
 3948TIP3    H133479   6.027   2.009   0.611 -0.4982 -0.2065  2.3239
 3948TIP3    H233480   5.928   1.897   0.587 -0.3947  0.2607 -0.4750
 3949TIP3   OH233481   0.976   5.652   7.873 -0.3006 -0.4687  0.0849
 3949TIP3    H133482   0.970   5.634   7.779 -2.1720  0.4697  0.0191
 3949TIP3    H233483   1.055   5.706   7.882 -0.0974 -0.5837 -0.9342
 3950TIP3   OH233484   1.087   2.177   7.093  0.2043  0.3015 -0.1287
 3950TIP3    H133485   1.116   2.173   7.002  0.7602 -1.2466  0.0914
 3950TIP3    H233486   1.151   2.124   7.141 -1.9513 -1.7480  0.6345
 3951TIP3   OH233487   3.490   1.467   6.663  0.2587 -0.0718 -0.0057
 3951TIP3    H133488   3.409   1.431   6.699  0.5104  0.5509  1.2382
 3951TIP3    H233489   3.517   1.533   6.727  2.4439 -1.1839  0.2497
 3952TIP3   OH233490   1.470   0.068   0.433 -0.3095 -0.3149  0.1507
 3952TIP3    H133491   1.560   0.073   0.402 -0.2748  3.5408  0.5660
 3952TIP3    H233492   1.471   0.110   0.519 -2.2345 -1.6045  0.8465
 3953TIP3   OH233493   4.122   5.050   1.058 -0.0987  0.4977 -0.7189
 3953TIP3    H133494   4.178   4.998   1.115 -0.1247 -0.4246 -1.5224
 3953TIP3    H233495   4.033   5.033   1.091  0.0224  1.3599  0.0723
 3954TIP3   OH233496   2.455   5.636   0.780  0.3343 -0.8673  0.1424
 3954TIP3    H133497   2.539   5.590   0.783 -0.5264 -2.3937  1.7281
 3954TIP3    H233498   2.390   5.566   0.787 -1.0265  0.4686  1.0403
 3955TIP3   OH233499   5.967   6.200   6.560  0.3425 -0.1588 -0.2362
 3955TIP3    H133500   6.054   6.181   6.595  0.2460  1.6975  1.0401
 3955TIP3    H233501   5.978   6.280   6.508 -0.2813 -0.8412 -1.4549
 3956TIP3   OH233502   0.744   4.212   7.900 -0.0356  0.0459  0.1538
 3956TIP3    H133503   0.791   4.258   7.831  1.0079 -0.9833  0.1665
 3956TIP3    H233504   0.662   4.185   7.859 -0.1640  0.9164 -0.1789
 3957TIP3   OH233505   4.108   1.699   6.884 -0.0159  0.4404 -0.4815
 3957TIP3    H133506   4.090   1.784   6.924 -0.4490  0.4420 -0.6739
 3957TIP3    H233507   4.024   1.671   6.848  0.2294  0.1476 -0.8336
 3958TIP3   OH233508   6.356   2.459   0.740  0.2007 -0.3215 -0.2457
 3958TIP3    H133509   6.351   2.481   0.833  1.0860 -1.0530 -0.0257
 3958TIP3    H233510   6.350   2.364   0.737  1.4667 -0.3878 -0.8478
 3959TIP3   OH233511   2.529   2.741   1.730  0.5463  0.2322  0.2902
 3959TIP3    H133512   2.519   2.659   1.778 -1.4763 -0.1015 -0.6365
 3959TIP3    H233513   2.439   2.772   1.717  1.0807  0.7353 -2.5152
 3960TIP3   OH233514   0.583   2.702   1.389  0.1513  0.5500 -0.1931
 3960TIP3    H133515   0.676   2.691   1.407 -0.2371  0.1449  1.7269
 3960TIP3    H233516   0.541   2.699   1.476 -1.6671  0.5009 -1.0405
 3961TIP3   OH233517   3.917   3.259   0.704 -0.2659 -0.2392  0.4399
 3961TIP3    H133518   3.990   3.317   0.682 -1.1110  1.4907  1.9984
 3961TIP3    H233519   3.858   3.314   0.755 -1.6160 -2.2136  1.0687
 3962TIP3   OH233520   0.201   3.001   0.862 -0.3384 -0.6670 -0.0950
 3962TIP3    H133521   0.105   2.993   0.867 -0.3106 -2.3377 -1.5860
 3962TIP3    H233522   0.233   2.919   0.900  0.4821 -0.5324 -0.5051
 3963TIP3   OH233523   2.284   6.943   0.321  0.1495 -0.3767  0.5049
 3963TIP3    H133524   2.293   6.980   0.233 -0.2491  1.9293  1.3859
 3963TIP3    H233525   2.363   6.971   0.367 -0.5598  0.1181  1.4468
 3964TIP3   OH233526   3.220   7.079   1.660 -0.6219  0.3474 -0.8568
 3964TIP3    H133527   3.298   7.049   1.706 -1.3978 -3.8588 -2.1518
 3964TIP3    H233528   3.170   7.126   1.727  2.2640  1.8197  0.3430
 3965TIP3   OH233529   3.643   2.586   2.172  0.4616  0.1882 -0.4469
 3965TIP3    H133530   3.736   2.586   2.191  1.1109  0.4399 -3.2921
 3965TIP3    H233531   3.625   2.674   2.139 -0.6031 -0.0758 -0.5971
 3966TIP3   OH233532   3.233   0.751   0.134 -0.0327  0.1177 -0.1664
 3966TIP3    H133533   3.166   0.781   0.195 -0.7256  0.9689 -1.3159
 3966TIP3    H233534   3.209   0.792   0.050  0.3154 -1.7941 -1.2365
 3967TIP3   OH233535   4.594   0.261   6.357 -0.6801 -0.3784  0.2593
 3967TIP3    H133536   4.686   0.246   6.377 -0.7335  0.9221  1.5850
 3967TIP3    H233537   4.589   0.263   6.262  0.7271 -0.0654  0.1875
 3968TIP3   OH233538   1.776   5.747   1.183 -0.2119  0.3312  0.0817
 3968TIP3    H133539   1.852   5.723   1.132 -1.8098 -0.2510 -2.0933
 3968TIP3    H233540   1.790   5.839   1.207  2.0680 -0.3293  1.4439
 3969TIP3   OH233541   4.965   1.814   5.998  0.0935  0.0269  0.1159
 3969TIP3    H133542   5.010   1.732   6.018  0.7118  0.3997  0.2549
 3969TIP3    H233543   4.874   1.798   6.023  0.3805 -0.3260  0.9451
 3970TIP3   OH233544   2.366   0.654   2.238 -0.2622  0.1451  0.5053
 3970TIP3    H133545   2.385   0.744   2.266  0.4597  0.4878 -1.0309
 3970TIP3    H233546   2.270   0.650   2.236 -0.2931  1.2817 -0.6596
 3971TIP3   OH233547   3.868   4.216   1.180 -0.1765  0.0835  0.3889
 3971TIP3    H133548   3.836   4.145   1.124  0.6613 -0.0190  0.0479
 3971TIP3    H233549   3.856   4.295   1.128 -0.5761  0.1365  0.5537
 3972TIP3   OH233550   4.151   4.947   8.091 -0.2042  0.2406  0.4675
 3972TIP3    H133551   4.162   4.853   8.074 -0.3315  0.3933 -0.5275
 3972TIP3    H233552   4.164   4.988   8.005  3.0406  1.4097  1.4681
 3973TIP3   OH233553   4.322   2.671   0.404 -0.0188  0.0697 -0.3154
 3973TIP3    H133554   4.368   2.593   0.373  1.0463  0.7128 -0.3964
 3973TIP3    H233555   4.343   2.739   0.340  3.5356  1.8446  2.4767
 3974TIP3   OH233556   3.772   4.188   1.708  0.5531 -0.3252  0.5345
 3974TIP3    H133557   3.777   4.113   1.649 -0.7598 -0.8355  1.0525
 3974TIP3    H233558   3.777   4.150   1.795  2.2676  0.4072  0.7724
 3975TIP3   OH233559   2.590   0.963   1.349 -0.3629  0.0468 -0.5177
 3975TIP3    H133560   2.611   1.027   1.416  1.5349  1.0731 -2.0612
 3975TIP3    H233561   2.675   0.931   1.318 -1.1925 -0.3381 -2.4864
 3976TIP3   OH233562   3.968   3.733   6.181  0.0719  0.2189 -0.3621
 3976TIP3    H133563   3.943   3.774   6.098 -0.1933 -0.5303 -0.6528
 3976TIP3    H233564   3.956   3.639   6.167  1.5066 -0.0348  0.0242
 3977TIP3   OH233565   2.132   3.598   1.570  0.2143  0.2019 -0.0083
 3977TIP3    H133566   2.209   3.545   1.550  0.7354  0.8514  0.3010
 3977TIP3    H233567   2.060   3.534   1.573  1.3905 -1.0874  3.9869
 3978TIP3   OH233568   2.352   6.437   1.746 -0.6957 -0.0605  0.1223
 3978TIP3    H133569   2.349   6.525   1.708  0.2087  0.3398  0.9521
 3978TIP3    H233570   2.382   6.381   1.674 -1.1746  0.3275 -0.3800
 3979TIP3   OH233571   1.662   2.795   1.125  0.0222 -0.0040 -0.4948
 3979TIP3    H133572   1.731   2.778   1.189  0.9369 -0.0401 -1.4799
 3979TIP3    H233573   1.680   2.734   1.054 -1.3808 -0.4210 -0.5003
 3980TIP3   OH233574   0.876   2.447   7.901  0.1579 -0.5373  0.0961
 3980TIP3    H133575   0.835   2.411   7.980 -1.8722  0.2326 -0.5973
 3980TIP3    H233576   0.875   2.542   7.913 -0.5793 -0.3892 -1.0538
 3981TIP3   OH233577   1.667   2.744   0.493 -0.3296  0.0774  0.0090
 3981TIP3    H133578   1.732   2.724   0.561 -0.4749 -0.6319 -0.0614
 3981TIP3    H233579   1.612   2.666   0.489 -1.1157  0.6360 -0.0193
 3982TIP3   OH233580   2.150   0.753   1.616 -0.0691  0.5835  0.4959
 3982TIP3    H133581   2.179   0.760   1.524  1.1975 -1.0659  0.7403
 3982TIP3    H233582   2.087   0.682   1.616 -0.8404  1.2580  0.7466
 3983TIP3   OH233583   0.643   6.389   2.118 -0.1886  0.0175 -0.0053
 3983TIP3    H133584   0.592   6.308   2.109 -1.2313  0.5296  1.3034
 3983TIP3    H233585   0.600   6.451   2.060  0.5307 -0.2985 -0.9041
 3984TIP3   OH233586   1.046   3.317   1.015 -0.0107  0.2653 -0.2318
 3984TIP3    H133587   1.140   3.321   0.993  0.2000  0.1244  0.6313
 3984TIP3    H233588   1.026   3.405   1.047  0.5265 -0.4902  2.3289
 3985TIP3   OH233589   0.087   4.984   0.100  0.7279  0.2603  0.0066
 3985TIP3    H133590   0.063   5.075   0.087 -0.5138  0.1491  1.4299
 3985TIP3    H233591   0.079   4.970   0.194  1.7513 -1.0924 -0.0806
 3986TIP3   OH233592   0.530   3.610   7.669 -0.1021 -0.0719  0.0476
 3986TIP3    H133593   0.587   3.628   7.744 -0.3817  0.8697  0.0382
 3986TIP3    H233594   0.584   3.557   7.611  0.1039 -0.8463  0.9330
 3987TIP3   OH233595   4.263   0.095   2.011 -0.2628 -0.0722  0.0432
 3987TIP3    H133596   4.294   0.013   1.970  0.6302  1.3418 -2.2039
 3987TIP3    H233597   4.336   0.156   2.000 -1.6258  1.5866  0.0474
 3988TIP3   OH233598   2.288   4.729   0.027 -0.0373  0.1757 -0.4644
 3988TIP3    H133599   2.321   4.640   0.016 -1.2789 -0.3660  0.0696
 3988TIP3    H233600   2.303   4.772  -0.057 -2.5708 -1.5852 -1.8595
 3989TIP3   OH233601   4.586   2.846   0.645 -0.2007  0.6838 -0.0066
 3989TIP3    H133602   4.588   2.794   0.564 -1.7360 -0.4828  0.6881
 3989TIP3    H233603   4.668   2.896   0.643  1.0642 -1.3498 -0.9707
 3990TIP3   OH233604   1.219   1.104   7.099 -0.6283 -0.0131 -0.3373
 3990TIP3    H133605   1.189   1.172   7.038  0.6158  0.5944 -0.2877
 3990TIP3    H233606   1.310   1.089   7.075 -0.1414  0.1842  1.3269
 3991TIP3   OH233607   2.026   5.379   7.284  0.3059 -0.1967  0.0369
 3991TIP3    H133608   1.976   5.333   7.352  1.2379 -1.9438 -0.4265
 3991TIP3    H233609   2.021   5.471   7.309 -2.7430 -0.3681  0.2539
 3992TIP3   OH233610   3.634   2.990   1.868 -0.0849  0.6229 -0.3155
 3992TIP3    H133611   3.691   2.955   1.937  0.3682 -0.2506 -1.1110
 3992TIP3    H233612   3.592   2.913   1.831 -1.4039  1.2241 -0.0822
 3993TIP3   OH233613   2.912   7.120   0.228  0.7895 -0.6514  0.2558
 3993TIP3    H133614   2.950   7.128   0.140 -2.3620 -2.5412 -1.3600
 3993TIP3    H233615   2.971   7.061   0.274  1.2483 -1.4598 -1.3357
 3994TIP3   OH233616   5.205   1.439   6.410 -0.3257  0.0275  0.2252
 3994TIP3    H133617   5.187   1.348   6.436  1.1166 -0.2277  0.3716
 3994TIP3    H233618   5.256   1.431   6.330  0.8788  0.6726  0.9126
 3995TIP3   OH233619   2.415   1.070   7.839 -0.6582  0.0786 -0.6136
 3995TIP3    H133620   2.338   1.030   7.878 -0.4963 -0.4370 -0.8270
 3995TIP3    H233621   2.426   1.026   7.755  1.0142 -1.2578  0.2612
 3996TIP3   OH233622   5.143   5.589   8.080  0.0476 -0.1091 -0.1047
 3996TIP3    H133623   5.125   5.522   8.014  0.4689 -0.1961 -0.1335
 3996TIP3    H233624   5.231   5.620   8.060 -0.1744  0.5039 -0.1325
 3997TIP3   OH233625   2.790   6.306   0.997 -0.5782  0.4157  0.4827
 3997TIP3    H133626   2.786   6.324   0.903 -1.4153 -0.1715  0.4056
 3997TIP3    H233627   2.699   6.297   1.024 -0.3238  0.1966  1.2809
 3998TIP3   OH233628   1.438   6.023   6.871  0.2750  0.8361 -0.0586
 3998TIP3    H133629   1.444   6.078   6.793  1.2888  1.8946  0.7540
 3998TIP3    H233630   1.422   6.085   6.943  1.3966  0.0882  0.8591
 3999TIP3   OH233631   1.399   6.830   1.037  0.0143  0.0291 -0.0613
 3999TIP3    H133632   1.376   6.826   0.944  0.3248 -0.7791 -0.1108
 3999TIP3    H233633   1.457   6.905   1.044 -1.9688  1.6055 -0.0751
 4000TIP3   OH233634   4.906   6.640   1.802 -0.6744 -0.3139  0.6012
 4000TIP3    H133635   4.848   6.623   1.876  0.4969  1.0188  1.8659
 4000TIP3    H233636   4.978   6.691   1.839  1.5379 -2.2723 -0.8298
 4001TIP3   OH233637   4.043   1.251   0.866  0.0419 -0.1912  0.3174
 4001TIP3    H133638   3.950   1.241   0.847 -0.1324  1.4961  0.2115
 4001TIP3    H233639   4.087   1.225   0.785 -0.5164  2.6015 -0.9457
 4002TIP3   OH233640   5.259   3.068   0.945  0.5296  0.7246  0.2888
 4002TIP3    H133641   5.263   3.027   1.031  1.1875  1.6856  0.7240
 4002TIP3    H233642   5.168   3.055   0.917  0.1175  1.0365  1.4481
 4003TIP3   OH233643   7.081   4.613   1.169  1.0924 -0.4441  0.0057
 4003TIP3    H133644   7.082   4.540   1.231  1.0378 -1.9809 -1.7686
 4003TIP3    H233645   6.988   4.627   1.149  1.2243 -1.3627 -1.3262
 4004TIP3   OH233646   1.459   3.009   6.464 -0.1148  1.1989 -0.2221
 4004TIP3    H133647   1.447   2.991   6.558 -1.1622  1.2457 -0.3403
 4004TIP3    H233648   1.474   2.923   6.425  0.1476  1.1585 -0.0301
 4005TIP3   OH233649   2.369   2.071   6.920 -0.0383 -0.7063  0.6850
 4005TIP3    H133650   2.309   2.114   6.860 -1.9429 -0.2054  2.8784
 4005TIP3    H233651   2.399   1.993   6.873  0.6914  1.1127 -1.9321
 4006TIP3   OH233652   6.561   1.131   7.591  0.8655  0.5153 -0.0071
 4006TIP3    H133653   6.569   1.202   7.528  0.5809  1.5190  1.0653
 4006TIP3    H233654   6.560   1.052   7.538  0.3347  1.3555 -1.2794
 4007TIP3   OH233655   1.159   2.899   7.357  0.1751  0.0083 -0.0523
 4007TIP3    H133656   1.068   2.870   7.368  0.0576  0.5211  0.3753
 4007TIP3    H233657   1.211   2.834   7.403 -0.1139  0.6700  1.2404
 4008TIP3   OH233658   2.943   2.339   0.874  0.1833  0.0713 -0.0971
 4008TIP3    H133659   2.906   2.423   0.850 -2.2849 -1.1959 -0.8318
 4008TIP3    H233660   2.939   2.338   0.970  0.2008  0.7646 -0.0859
 4009TIP3   OH233661   5.717   0.294   8.088  0.4779  0.4783  0.2798
 4009TIP3    H133662   5.628   0.269   8.116  0.3868 -1.5899 -1.7345
 4009TIP3    H233663   5.774   0.232   8.132  0.9874  1.9600  1.7637
 4010TIP3   OH233664   1.835   3.867   0.882  0.3124 -0.1691 -0.5097
 4010TIP3    H133665   1.770   3.838   0.945 -0.7025  0.9802 -0.9960
 4010TIP3    H233666   1.905   3.904   0.934 -0.8452  1.4385 -0.0435
 4011TIP3   OH233667   4.853   0.913   1.406  0.2199 -0.4241  0.2216
 4011TIP3    H133668   4.943   0.941   1.389 -0.0988 -0.3617 -1.4356
 4011TIP3    H233669   4.839   0.840   1.347 -1.7562  1.4240 -1.6876
 4012TIP3   OH233670   0.668   2.577   2.484 -0.3786 -0.0454 -0.1158
 4012TIP3    H133671   0.605   2.513   2.517 -1.5199  0.5239 -1.1196
 4012TIP3    H233672   0.653   2.655   2.537  0.7637 -0.4913  0.8698
 4013TIP3   OH233673   1.785   5.480   0.048 -0.1234  0.1982 -0.6343
 4013TIP3    H133674   1.697   5.446   0.065 -0.5857  1.1002 -1.1340
 4013TIP3    H233675   1.843   5.407   0.065 -0.9953 -0.4795 -0.5179
 4014TIP3   OH233676   1.185   7.016   1.300  0.4117 -0.1838 -0.0588
 4014TIP3    H133677   1.151   6.934   1.264 -0.3111  0.3478 -0.6138
 4014TIP3    H233678   1.111   7.055   1.347  0.5979  0.3924 -0.2351
 4015TIP3   OH233679   3.325   3.403   6.665 -0.0225 -0.1235  0.2757
 4015TIP3    H133680   3.284   3.332   6.714  0.1916  0.7001  1.6864
 4015TIP3    H233681   3.279   3.482   6.696  2.2981  0.7756  1.5758
 4016TIP3   OH233682   6.262   1.393   7.480  0.5344  0.1086  0.1182
 4016TIP3    H133683   6.350   1.372   7.449  0.6556  0.2740  0.3477
 4016TIP3    H233684   6.217   1.429   7.403  0.3779 -0.8132 -0.2342
 4017TIP3   OH233685   2.118   5.369   1.481 -0.2256 -0.2548 -0.6315
 4017TIP3    H133686   2.166   5.286   1.477  0.4108  0.1171 -0.7733
 4017TIP3    H233687   2.099   5.381   1.574  2.6551  1.1058 -0.1449
 4018TIP3   OH233688   3.883   0.645   0.890  0.1916 -0.6050 -0.3328
 4018TIP3    H133689   3.868   0.659   0.984  1.2969 -0.5779 -0.1499
 4018TIP3    H233690   3.822   0.576   0.865 -0.1503 -0.5684  0.3960
 4019TIP3   OH233691   2.763   5.146   0.272  0.0316  0.3519 -0.0781
 4019TIP3    H133692   2.773   5.135   0.177  2.8723  0.6461  0.1321
 4019TIP3    H233693   2.828   5.212   0.295  0.1020 -0.4760  2.2185
 4020TIP3   OH233694   4.481   0.068   1.485 -0.0625 -0.3190 -0.4678
 4020TIP3    H133695   4.426   0.048   1.561 -0.9061 -1.6865 -1.4104
 4020TIP3    H233696   4.546  -0.002   1.484  0.4099  0.1233 -0.5640
 4021TIP3   OH233697   1.732   6.691   1.077 -0.6343  0.4382 -0.0441
 4021TIP3    H133698   1.649   6.673   1.121 -0.1283 -0.2131  0.6664
 4021TIP3    H233699   1.710   6.753   1.008 -1.5778  0.8557  0.6228
 4022TIP3   OH233700   5.264   7.002   7.401  0.3102 -0.0166 -0.1300
 4022TIP3    H133701   5.323   7.048   7.342  0.9221  0.5477  0.9050
 4022TIP3    H233702   5.252   7.062   7.474 -0.5313 -0.6597  0.2696
 4023TIP3   OH233703   3.200   6.116   0.448 -0.6073  0.0846 -0.7552
 4023TIP3    H133704   3.188   6.198   0.495 -0.7931 -0.2526 -0.2181
 4023TIP3    H233705   3.251   6.141   0.370  0.7023  0.4466  0.2034
 4024TIP3   OH233706   4.527   0.037   7.361  0.1480  0.3777  0.0044
 4024TIP3    H133707   4.441   0.079   7.359  1.0691  2.3593  0.4952
 4024TIP3    H233708   4.509  -0.054   7.384 -2.0984 -0.0367 -3.1710
 4025TIP3   OH233709   2.541   4.352   0.105 -0.1459 -0.5690  0.4780
 4025TIP3    H133710   2.498   4.334   0.189 -1.0511  2.2756  0.6715
 4025TIP3    H233711   2.624   4.393   0.129  0.4397 -1.4363 -0.0150
 4026TIP3   OH233712   0.628   0.581   7.764 -0.3625  0.5921 -0.6021
 4026TIP3    H133713   0.671   0.500   7.737 -0.7760  0.5335 -1.0923
 4026TIP3    H233714   0.612   0.568   7.858 -0.1767  0.2212 -0.6168
 4027TIP3   OH233715   2.824   0.826   0.950 -0.0104 -0.2676  0.4700
 4027TIP3    H133716   2.901   0.795   0.997  0.3092 -2.4347 -1.4019
 4027TIP3    H233717   2.765   0.751   0.947 -1.7735  1.0638  0.9722
 4028TIP3   OH233718   2.707   1.865   1.523 -0.5305  0.0563  0.1205
 4028TIP3    H133719   2.732   1.932   1.587  1.3065 -0.1373 -0.3488
 4028TIP3    H233720   2.760   1.789   1.547  1.4070  0.4775 -2.5478
 4029TIP3   OH233721   4.060   6.695   0.290 -0.4310  0.1381 -0.3492
 4029TIP3    H133722   4.138   6.709   0.343 -0.6414  0.0811 -0.0185
 4029TIP3    H233723   4.082   6.731   0.204 -0.5715  1.4791  0.1614
 4030TIP3   OH233724   4.720   6.454   7.433 -0.1893 -0.4549 -0.0545
 4030TIP3    H133725   4.808   6.466   7.469 -1.1537  1.3028  1.8078
 4030TIP3    H233726   4.709   6.528   7.374 -1.0956  0.3478  1.1131
 4031TIP3   OH233727   2.603   2.790   1.419  0.6658  0.0543  0.0557
 4031TIP3    H133728   2.563   2.709   1.388  0.6944  0.4106 -0.9345
 4031TIP3    H233729   2.630   2.771   1.508  0.3165 -0.9030 -0.0373
 4032TIP3   OH233730   2.456   0.138   7.531  0.4894 -0.2691 -0.6485
 4032TIP3    H133731   2.520   0.164   7.598 -0.8299 -0.4152  0.6750
 4032TIP3    H233732   2.461   0.208   7.465 -0.7615  1.7624  1.3579
 4033TIP3   OH233733   3.050   6.302   1.266 -0.5073  0.0266 -0.3338
 4033TIP3    H133734   3.023   6.227   1.214  0.9501  1.0947 -2.7565
 4033TIP3    H233735   3.132   6.275   1.307 -1.2904 -0.5705  0.8507
 4034TIP3   OH233736   1.829   2.028   7.021  0.6683  0.2318  0.2860
 4034TIP3    H133737   1.898   1.965   7.040  0.7792 -0.9607 -3.6474
 4034TIP3    H233738   1.874   2.101   6.979 -0.1468  0.5356 -0.0738
 4035TIP3   OH233739   5.928   3.991   7.347  0.2114 -0.1545 -0.8013
 4035TIP3    H133740   5.921   3.936   7.425  0.6275  0.4440 -0.3391
 4035TIP3    H233741   6.020   4.018   7.345 -0.3116  1.7646 -0.1685
 4036TIP3   OH233742   2.757   2.290   1.890  0.1739  0.4375 -0.3162
 4036TIP3    H133743   2.830   2.250   1.937 -1.0611 -0.3402  0.9900
 4036TIP3    H233744   2.779   2.383   1.887  0.2280  0.5489  2.0123
 4037TIP3   OH233745   6.963   0.442   7.440  0.4740 -0.4195  0.1096
 4037TIP3    H133746   6.872   0.466   7.458  1.0485  2.0765 -0.1613
 4037TIP3    H233747   6.957   0.384   7.364 -0.8859 -0.1941  0.0217
 4038TIP3   OH233748   1.070   2.503   7.717  0.3880 -0.6750  0.2475
 4038TIP3    H133749   1.000   2.458   7.764 -0.1737 -0.6083 -0.5057
 4038TIP3    H233750   1.080   2.453   7.636  0.5251 -0.1078 -0.0926
 4039TIP3   OH233751   6.238   6.483   0.477 -0.0012  0.1740  0.1082
 4039TIP3    H133752   6.206   6.497   0.388 -0.6144 -1.7189  0.0024
 4039TIP3    H233753   6.300   6.554   0.492  1.0008 -0.1454 -2.2810
 4040TIP3   OH233754   3.370   2.122   7.043 -0.0294  0.4305  0.0953
 4040TIP3    H133755   3.296   2.116   7.104 -0.0193 -1.9088 -0.0705
 4040TIP3    H233756   3.329   2.126   6.956  0.0092 -0.7661  0.0097
 4041TIP3   OH233757   1.949   0.881   2.112  0.6252 -0.2031 -0.1934
 4041TIP3    H133758   1.960   0.973   2.133 -1.2201 -0.3175  1.3810
 4041TIP3    H233759   2.003   0.835   2.178  0.0665 -0.3097  0.1936
 4042TIP3   OH233760   3.270   6.141   1.775  0.2374 -0.3975  0.1272
 4042TIP3    H133761   3.255   6.092   1.856  2.3004  1.1843  1.5135
 4042TIP3    H233762   3.276   6.232   1.804 -0.1230  0.3070 -1.9746
 4043TIP3   OH233763   1.723   7.062   1.559  0.2766  0.2533  0.2511
 4043TIP3    H133764   1.675   6.989   1.599 -0.4504  0.2904 -0.5390
 4043TIP3    H233765   1.656   7.129   1.546  1.1598  1.5351  2.0783
 4044TIP3   OH233766   4.091   4.882   0.475 -0.0648  0.8303  0.3983
 4044TIP3    H133767   4.163   4.848   0.529  1.0433  0.9801 -0.9786
 4044TIP3    H233768   4.066   4.808   0.420 -0.8152  0.8543  0.6997
 4045TIP3   OH233769   4.559   0.270   2.204  0.1391 -0.0945 -0.2400
 4045TIP3    H133770   4.565   0.251   2.110  2.4163  0.0981 -0.1580
 4045TIP3    H233771   4.632   0.330   2.221  0.8008 -1.4695  1.9709
 4046TIP3   OH233772   1.963   1.156   8.049  0.5506 -0.1749  0.3855
 4046TIP3    H133773   1.997   1.135   8.136 -1.6754 -1.8160  0.9034
 4046TIP3    H233774   1.932   1.072   8.014 -0.4848  0.8051 -1.1333
 4047TIP3   OH233775   1.656   6.235   6.513  0.0206 -0.0093 -0.2321
 4047TIP3    H133776   1.607   6.317   6.505  0.9817  0.4483 -1.6896
 4047TIP3    H233777   1.661   6.201   6.424  3.2261  0.4974 -0.3096
 4048TIP3   OH233778   3.495   6.572   0.571  0.5124  0.5792 -0.3955
 4048TIP3    H133779   3.534   6.498   0.525  2.9352  0.1733  2.1436
 4048TIP3    H233780   3.566   6.635   0.579  0.4507  0.3350  3.2767
 4049TIP3   OH233781   2.567   4.947   0.008  0.2002  0.2791 -0.0607
 4049TIP3    H133782   2.485   4.978   0.046  0.3639  0.4158  0.1877
 4049TIP3    H233783   2.550   4.943  -0.086  0.7675  3.0132 -0.3250
 4050TIP3   OH233784   1.054   2.994   7.697  0.3406  0.5930 -0.0939
 4050TIP3    H133785   1.016   2.979   7.783  1.0363 -0.4550  0.0371
 4050TIP3    H233786   1.013   2.929   7.641  1.8295 -0.4553  0.0184
 4051TIP3   OH233787   2.546   2.831   7.399  0.0067  0.7030  0.1426
 4051TIP3    H133788   2.547   2.790   7.312 -0.7038 -0.8015  0.8230
 4051TIP3    H233789   2.612   2.783   7.449 -0.9056  0.3107  0.9841
 4052TIP3   OH233790   2.397   6.639   7.156 -0.0417 -0.0285  0.2225
 4052TIP3    H133791   2.307   6.666   7.138  0.7550  3.4911  1.3223
 4052TIP3    H233792   2.412   6.663   7.247  2.6683  1.2723 -0.5380
 4053TIP3   OH233793   0.092   0.619   1.117 -0.6798  0.2673 -0.2172
 4053TIP3    H133794   0.056   0.645   1.201 -2.5787 -0.5569 -0.7414
 4053TIP3    H233795   0.180   0.655   1.116 -0.5968  0.2088  2.1520
 4054TIP3   OH233796   4.435   3.000   1.653  0.3938  0.2298 -0.3601
 4054TIP3    H133797   4.450   2.906   1.665 -2.4437 -0.2272 -0.2276
 4054TIP3    H233798   4.458   3.017   1.562  1.0743 -0.5506 -0.3378
 4055TIP3   OH233799   2.964   2.618   1.097 -0.0005 -0.4272 -0.6718
 4055TIP3    H133800   2.984   2.689   1.158 -1.3584 -0.4806 -0.1544
 4055TIP3    H233801   2.931   2.663   1.019 -1.8812 -0.5379  0.0569
 4056TIP3   OH233802   6.498   1.194   7.841 -0.6630  0.0032 -0.5274
 4056TIP3    H133803   6.519   1.150   7.759 -0.3318  0.5348 -0.7276
 4056TIP3    H233804   6.581   1.199   7.889 -1.0658 -1.3337  0.3470
 4057TIP3   OH233805   6.472   1.058   6.724  0.2734  0.5560  0.0715
 4057TIP3    H133806   6.458   1.089   6.635  0.9787 -1.3206 -0.7204
 4057TIP3    H233807   6.402   1.099   6.775 -1.7757 -0.4376 -1.8571
 4058TIP3   OH233808   5.581   5.912   0.016 -0.3418  0.9220  0.4103
 4058TIP3    H133809   5.521   5.965   0.069 -0.7511  2.1012 -1.1942
 4058TIP3    H233810   5.668   5.948   0.034 -0.5106  1.4953  0.0908
 4059TIP3   OH233811   2.537   3.552   1.085 -0.4200 -0.3199 -0.1227
 4059TIP3    H133812   2.578   3.610   1.021  0.4003  0.1964  0.8346
 4059TIP3    H233813   2.611   3.505   1.124 -0.6971  0.6460  1.6569
 4060TIP3   OH233814   6.142   0.351   7.415  0.8949 -0.2616  0.1115
 4060TIP3    H133815   6.236   0.356   7.432  1.1080 -1.4131 -0.6851
 4060TIP3    H233816   6.118   0.440   7.391  2.1667 -0.3355 -1.5530
 4061TIP3   OH233817   2.733   0.212   7.636  0.0313  0.3532  0.6137
 4061TIP3    H133818   2.814   0.175   7.670 -0.6056 -0.7661  0.9275
 4061TIP3    H233819   2.754   0.304   7.621  1.7032 -0.1817 -0.4324
 4062TIP3   OH233820   1.416   6.087   0.260  0.5275  0.1995 -0.5670
 4062TIP3    H133821   1.408   6.014   0.199  1.9823  0.5488 -1.1730
 4062TIP3    H233822   1.344   6.146   0.236 -0.7910 -1.1124  0.0669
 4063TIP3   OH233823   2.013   4.684   7.373  1.1009 -0.0763  0.6245
 4063TIP3    H133824   2.038   4.775   7.386  0.6854  0.0270  0.7036
 4063TIP3    H233825   2.023   4.670   7.278  1.1160  0.0649  0.6046
 4064TIP3   OH233826   3.345   5.182   6.916  0.3645  0.0680  0.3589
 4064TIP3    H133827   3.363   5.251   6.980  2.2849  0.6454 -0.7726
 4064TIP3    H233828   3.428   5.137   6.905 -0.3041 -0.9424 -0.6529
 4065TIP3   OH233829   0.570   4.895   7.877 -0.6458 -0.1864 -0.0413
 4065TIP3    H133830   0.645   4.853   7.919 -1.1334 -0.2457  0.7855
 4065TIP3    H233831   0.506   4.905   7.948 -1.0151  0.8040 -0.5098
 4066TIP3   OH233832   1.690   2.799   2.074 -0.0782 -0.8197  0.1528
 4066TIP3    H133833   1.611   2.776   2.025 -0.3494 -1.7620  1.0058
 4066TIP3    H233834   1.681   2.753   2.157  0.4469  0.6518  1.0424
 4067TIP3   OH233835   1.809   6.828   6.745  0.1629 -0.3237  0.4205
 4067TIP3    H133836   1.847   6.916   6.747 -1.7456  0.5493 -0.8020
 4067TIP3    H233837   1.720   6.839   6.777  0.0892 -1.9365  0.8430
 4068TIP3   OH233838   5.304   6.536   0.637 -0.0527  0.6623  0.1524
 4068TIP3    H133839   5.259   6.562   0.557 -0.2895 -0.5360 -0.1059
 4068TIP3    H233840   5.394   6.567   0.626 -0.6305  2.4638  0.3768
 4069TIP3   OH233841   5.919   0.142   1.066 -0.6638  0.2341 -0.4717
 4069TIP3    H133842   5.960   0.056   1.067 -0.1927  0.3852  4.0586
 4069TIP3    H233843   5.827   0.125   1.044 -0.5265 -1.4096  0.1753
 4070TIP3   OH233844   2.376   1.338   7.316  0.4575  0.8146 -0.3287
 4070TIP3    H133845   2.301   1.391   7.289 -0.2945  0.8152  1.6746
 4070TIP3    H233846   2.437   1.344   7.243 -1.6837  0.4164 -2.2028
 4071TIP3   OH233847   0.469   2.892   7.489 -0.6858  0.3421  0.0074
 4071TIP3    H133848   0.394   2.833   7.496 -2.0841  1.5636 -3.6257
 4071TIP3    H233849   0.516   2.861   7.412  0.8688  1.4852  0.4856
 4072TIP3   OH233850   1.904   2.816   1.649  0.3423 -0.4234 -0.0297
 4072TIP3    H133851   1.878   2.898   1.691  1.4589 -0.3502  0.5269
 4072TIP3    H233852   1.944   2.843   1.566 -1.0140 -0.5203 -0.7369
 4073TIP3   OH233853   3.779   2.980   0.007 -0.3978  0.0799 -0.2903
 4073TIP3    H133854   3.729   2.900  -0.007  0.9422 -1.3894  2.7073
 4073TIP3    H233855   3.866   2.960  -0.028 -0.6767  1.0430 -1.5508
 4074TIP3   OH233856   0.713   3.454   1.022 -0.0924 -0.1592  0.1994
 4074TIP3    H133857   0.738   3.537   0.980  2.0765 -0.6957  0.3900
 4074TIP3    H233858   0.745   3.386   0.963 -0.2076 -0.8799  0.9592
 4075TIP3   OH233859   3.958   2.409   7.675  0.0146  0.0916 -0.2939
 4075TIP3    H133860   3.956   2.335   7.735 -0.4287 -0.7184 -1.2836
 4075TIP3    H233861   4.026   2.386   7.611  0.5870  1.0067 -0.0218
 4076TIP3   OH233862   0.486   2.121   1.724  0.4463  0.0365  0.1009
 4076TIP3    H133863   0.573   2.161   1.720 -0.2658  1.7250  0.8058
 4076TIP3    H233864   0.444   2.162   1.800 -0.8261 -1.0312 -0.0060
 4077TIP3   OH233865   2.147   1.620   2.347  0.2304  0.3520  0.1531
 4077TIP3    H133866   2.240   1.607   2.327  0.7298  2.0845  1.1860
 4077TIP3    H233867   2.115   1.676   2.277 -0.6577 -2.1482 -1.5072
 4078TIP3   OH233868   6.082   1.371   6.903 -0.1287  0.1657  0.0931
 4078TIP3    H133869   6.008   1.432   6.901  0.7986  1.2859 -1.9909
 4078TIP3    H233870   6.137   1.402   6.974 -0.3545  0.9289 -0.0628
 4079TIP3   OH233871   3.473   0.579   1.352  0.2120 -0.9965 -0.3176
 4079TIP3    H133872   3.441   0.634   1.424  1.7011 -1.6997  0.8983
 4079TIP3    H233873   3.412   0.505   1.350 -2.8993  1.4742 -3.1333
 4080TIP3   OH233874   0.231   2.050   8.125  0.2979  0.6338 -0.6231
 4080TIP3    H133875   0.206   2.072   8.215  1.0862 -0.5151 -0.1138
 4080TIP3    H233876   0.211   2.129   8.074  0.3516  1.4760  0.6536
 4081TIP3   OH233877   1.046   4.835   0.306  0.2456 -0.0221 -0.1001
 4081TIP3    H133878   1.138   4.817   0.289  0.1786  0.8227 -1.4264
 4081TIP3    H233879   1.004   4.749   0.302  0.3314  0.0470 -3.8006
 4082TIP3   OH233880   1.409   2.856   7.842 -0.0659  0.2650 -0.1598
 4082TIP3    H133881   1.373   2.916   7.907 -0.1842  0.3864 -0.3368
 4082TIP3    H233882   1.504   2.860   7.855 -0.1129 -0.0031  0.2599
 4083TIP3   OH233883   6.070   1.841   6.482  0.2548 -0.2798  0.4201
 4083TIP3    H133884   6.114   1.778   6.538 -0.4757 -0.8353  0.3736
 4083TIP3    H233885   6.124   1.845   6.403  0.9907  0.1041  0.9398
 4084TIP3   OH233886   1.043   1.999   1.217  0.3177  0.1151  0.2121
 4084TIP3    H133887   1.002   1.945   1.284 -0.0600 -0.0242 -0.1314
 4084TIP3    H233888   1.062   1.938   1.146  0.8745  0.2300  0.2570
 4085TIP3   OH233889   4.470   5.815   0.398  0.4939 -0.0848 -0.3401
 4085TIP3    H133890   4.432   5.896   0.433  1.4513  0.4381 -0.5006
 4085TIP3    H233891   4.409   5.747   0.425 -0.3090  0.6839 -0.1703
 4086TIP3   OH233892   4.930   5.039   1.228  0.7912 -0.0223 -0.5940
 4086TIP3    H133893   4.850   5.011   1.273  0.0816  0.4606 -1.5276
 4086TIP3    H233894   4.898   5.082   1.148  1.9664  0.7471 -0.6561
 4087TIP3   OH233895   0.542   1.070   0.082  0.6837 -0.1453  0.4962
 4087TIP3    H133896   0.556   0.982   0.117  0.2297 -0.2951  0.3045
 4087TIP3    H233897   0.553   1.061  -0.012 -1.1225 -0.3655  0.2877
 4088TIP3   OH233898   2.854   1.621   1.937 -0.4322 -0.3108 -0.3348
 4088TIP3    H133899   2.915   1.547   1.938 -0.4570 -0.3314  0.1348
 4088TIP3    H233900   2.846   1.646   2.030  1.5165  1.8759 -0.7083
 4089TIP3   OH233901   3.507   0.206   7.314  0.1446  0.5274 -0.1366
 4089TIP3    H133902   3.415   0.206   7.339 -0.1263  1.8988 -1.0761
 4089TIP3    H233903   3.521   0.292   7.274  1.7240  0.1713 -0.3782
 4090TIP3   OH233904   5.563   5.069   8.118  0.4477  0.3655 -0.1068
 4090TIP3    H133905   5.636   5.077   8.056  0.6907 -0.2734  0.0887
 4090TIP3    H233906   5.594   5.113   8.197  0.1167  1.2294 -0.4466
 4091TIP3   OH233907   2.260   7.116   7.883 -0.2944 -0.4562 -0.2381
 4091TIP3    H133908   2.238   7.169   7.960 -1.0093 -1.3212  0.1616
 4091TIP3    H233909   2.242   7.173   7.808 -0.3760  0.1053  0.2074
 4092TIP3   OH233910   5.021   7.134   6.407  0.5615 -0.9277 -0.3146
 4092TIP3    H133911   5.054   7.206   6.461  0.9502 -0.7704 -0.7593
 4092TIP3    H233912   5.095   7.109   6.352  0.0767 -0.8652 -1.0107
 4093TIP3   OH233913   1.167   6.640   7.867 -0.0485  0.8677 -0.3721
 4093TIP3    H133914   1.112   6.670   7.939 -0.0305 -0.3439  0.1636
 4093TIP3    H233915   1.136   6.551   7.848  2.0884 -0.0701  0.3421
 4094TIP3   OH233916   0.969   1.906   6.342  0.3757  0.0619  0.2530
 4094TIP3    H133917   0.889   1.947   6.309 -0.8298 -2.1780  0.3005
 4094TIP3    H233918   1.039   1.963   6.310 -1.1188  1.1365 -1.2368
 4095TIP3   OH233919   2.610   6.984   0.911 -0.1991 -0.5412  0.7405
 4095TIP3    H133920   2.547   7.025   0.970 -0.7879 -0.5915  0.1444
 4095TIP3    H233921   2.598   7.028   0.827  2.3522  1.2557  1.2468
 4096TIP3   OH233922   0.896   6.178   0.675  0.4074 -0.2460  0.3836
 4096TIP3    H133923   0.897   6.084   0.695 -3.8474 -0.8511 -1.5707
 4096TIP3    H233924   0.849   6.218   0.748  0.9720  0.1762  0.5201
 4097TIP3   OH233925   3.088   0.978   0.826 -0.2775  0.1834 -0.1812
 4097TIP3    H133926   3.124   1.046   0.769 -1.6360 -0.9233 -2.4708
 4097TIP3    H233927   3.041   1.026   0.894  0.6227  1.5493 -0.4949
 4098TIP3   OH233928   2.045   6.000   1.234 -0.5198 -0.0834  0.4449
 4098TIP3    H133929   1.998   6.050   1.301  0.7294 -0.6155  1.7394
 4098TIP3    H233930   2.098   5.937   1.284 -0.2752 -1.0971 -1.0794
 4099TIP3   OH233931   1.859   0.017   0.467  0.0596  0.2226  0.3141
 4099TIP3    H133932   1.809  -0.015   0.542 -1.5104  0.4412 -0.6071
 4099TIP3    H233933   1.932  -0.044   0.458 -0.5551 -0.6390  1.1373
 4100TIP3   OH233934   5.547   0.307   1.480 -0.0597  0.5923 -0.4728
 4100TIP3    H133935   5.531   0.386   1.531  2.0187 -0.0246  1.2140
 4100TIP3    H233936   5.591   0.247   1.541 -1.1979 -1.7020 -1.8358
 4101TIP3   OH233937   1.000   2.659   1.971 -0.2358 -0.3498  0.5686
 4101TIP3    H133938   0.958   2.744   1.982 -0.7039 -0.2559 -1.6726
 4101TIP3    H233939   0.941   2.610   1.914  2.1975 -0.5193 -1.9176
 4102TIP3   OH233940   3.124   2.295   0.561  0.3315  0.0297 -0.6693
 4102TIP3    H133941   3.086   2.235   0.626 -0.0684 -0.0111 -0.9377
 4102TIP3    H233942   3.055   2.304   0.495 -0.0405  1.6610 -0.0714
 4103TIP3   OH233943   1.142   2.388   1.741  0.3045  0.3912  0.3817
 4103TIP3    H133944   1.099   2.443   1.676  1.3678  1.1514  0.2957
 4103TIP3    H233945   1.079   2.319   1.761 -1.0515  1.6453  0.4967
 4104TIP3   OH233946   1.810   1.618   0.577 -0.5629 -0.7914  0.2182
 4104TIP3    H133947   1.746   1.609   0.648 -0.4345 -1.3304  0.2622
 4104TIP3    H233948   1.858   1.535   0.576 -1.0528 -1.0687 -0.9799
 4105TIP3   OH233949   3.058   5.178   6.809 -0.5407  0.2346 -0.7062
 4105TIP3    H133950   3.121   5.118   6.767  0.4858  0.4021  0.5364
 4105TIP3    H233951   3.112   5.230   6.869 -1.8695  0.4065  0.3572
 4106TIP3   OH233952   2.910   1.458   0.460  0.1035 -0.5014 -0.4411
 4106TIP3    H133953   2.910   1.406   0.379  0.9216 -0.7601 -0.2872
 4106TIP3    H233954   2.879   1.398   0.528  1.1255 -0.8287 -0.2486
 4107TIP3   OH233955   6.754   6.313   7.999 -0.1611  0.1096  0.3052
 4107TIP3    H133956   6.714   6.228   8.018  1.8233 -1.4369 -2.1430
 4107TIP3    H233957   6.693   6.356   7.940 -0.4812 -0.2248  0.3904
 4108TIP3   OH233958   5.621   5.399   0.209 -0.3867  0.7020 -0.6364
 4108TIP3    H133959   5.650   5.490   0.209  2.3915 -0.0263  4.4478
 4108TIP3    H233960   5.531   5.403   0.242 -1.7185  1.8566 -4.2181
 4109TIP3   OH233961   0.816   1.639   6.569 -0.3983  0.9068 -0.0080
 4109TIP3    H133962   0.761   1.561   6.567  0.3194  0.3853  0.5426
 4109TIP3    H233963   0.801   1.677   6.655  0.5043  0.4674  0.3494
 4110TIP3   OH233964   2.077   1.693   1.310 -0.2641 -0.5539 -0.2773
 4110TIP3    H133965   2.154   1.717   1.360 -0.9273 -0.7190  0.8414
 4110TIP3    H233966   2.013   1.666   1.376 -1.7508  0.9250 -1.0681
 4111TIP3   OH233967   4.694   1.068   0.628 -0.6870  0.5347  0.0637
 4111TIP3    H133968   4.608   1.045   0.593 -0.7463  2.2874 -0.9976
 4111TIP3    H233969   4.756   1.021   0.572 -0.9453 -1.5789  1.4818
 4112TIP3   OH233970   1.490   5.134   0.977  0.0340  0.4101  0.1514
 4112TIP3    H133971   1.492   5.048   1.019  0.2640  0.0781 -0.5373
 4112TIP3    H233972   1.582   5.160   0.971 -0.0290  0.6716  0.2784
 4113TIP3   OH233973   3.011   3.747   1.146 -0.4270  0.3115  0.2070
 4113TIP3    H133974   3.084   3.705   1.102 -0.4353  1.3295 -0.8125
 4113TIP3    H233975   2.976   3.680   1.205  0.3181 -0.6968 -0.4833
 4114TIP3   OH233976   2.405   4.015   7.073  0.2252  1.1563 -0.2824
 4114TIP3    H133977   2.372   4.092   7.027  0.2553  1.1373 -0.3355
 4114TIP3    H233978   2.490   3.997   7.034  0.4072  1.3481  0.0187
 4115TIP3   OH233979   1.141   1.897   0.696  0.1776  0.2543 -0.2477
 4115TIP3    H133980   1.217   1.898   0.638  0.9556 -0.9536  0.7440
 4115TIP3    H233981   1.125   1.804   0.713  0.3455  0.6183  1.9789
 4116TIP3   OH233982   3.741   5.029   6.174  0.1559  0.7206 -0.2586
 4116TIP3    H133983   3.678   4.974   6.129 -0.0944 -0.1439  1.1250
 4116TIP3    H233984   3.688   5.083   6.233  0.7429 -0.5545  1.4817
 4117TIP3   OH233985   3.706   1.986   0.715  0.3325 -0.0926 -0.9915
 4117TIP3    H133986   3.696   1.906   0.664 -0.0989  0.4360 -1.7443
 4117TIP3    H233987   3.623   2.032   0.705  0.4070  0.2264 -0.1785
 4118TIP3   OH233988   2.181   4.509   1.961 -0.1836  0.6711  0.5441
 4118TIP3    H133989   2.183   4.475   2.051  0.3551  1.3642  0.7968
 4118TIP3    H233990   2.271   4.533   1.942 -0.0034 -0.9027 -0.7550
 4119TIP3   OH233991   1.645   3.044   1.529  0.2021  0.3692 -0.1868
 4119TIP3    H133992   1.624   2.951   1.519  0.3800  0.3520 -0.4045
 4119TIP3    H233993   1.685   3.051   1.615  1.5226 -0.0013 -0.7538
 4120TIP3   OH233994   1.471   1.299   7.832  0.0182 -0.1501  0.6444
 4120TIP3    H133995   1.438   1.242   7.902 -0.5952  0.3475  0.7633
 4120TIP3    H233996   1.478   1.385   7.873  0.8310 -0.1134  0.4297
 4121TIP3   OH233997   1.535   6.907   7.118 -0.2344  0.3227 -0.2374
 4121TIP3    H133998   1.599   6.972   7.088 -0.2115 -0.7554 -2.5717
 4121TIP3    H233999   1.581   6.858   7.186  0.5666  1.1693 -0.1557
 4122TIP3   OH234000   4.501   4.227   7.384 -0.3838 -0.3520  0.4309
 4122TIP3    H134001   4.449   4.204   7.461  0.3684  0.7038  1.2744
 4122TIP3    H234002   4.509   4.322   7.389  1.0095 -0.4403 -0.0878
 4123TIP3   OH234003   3.492   4.164   7.870  0.5775 -0.2583  0.0351
 4123TIP3    H134004   3.553   4.159   7.796  2.1847  1.4270  1.2062
 4123TIP3    H234005   3.499   4.254   7.901  0.0593 -0.9911  2.3634
 4124TIP3   OH234006   2.924   5.036   7.152  0.1827 -0.4546 -0.7362
 4124TIP3    H134007   2.838   5.033   7.194  1.6246  1.0900  2.4920
 4124TIP3    H234008   2.938   5.128   7.132  1.0259 -0.7194 -1.3916
 4125TIP3   OH234009   0.092   4.737   0.598 -0.6280  0.5124 -0.2331
 4125TIP3    H134010   0.141   4.673   0.546 -0.4808 -0.1161  0.6824
 4125TIP3    H234011  -0.000   4.719   0.577 -0.4895  2.6307 -3.0760
 4126TIP3   OH234012   3.914   0.359   0.363  0.1569 -0.1246  0.2566
 4126TIP3    H134013   3.926   0.264   0.366 -1.0677 -0.2424  2.1433
 4126TIP3    H234014   3.955   0.391   0.443 -0.3572  0.8415  0.1403
 4127TIP3   OH234015   4.254   6.312   0.096  0.2290  0.0165  0.6077
 4127TIP3    H134016   4.327   6.251   0.106  1.2865  1.4005  1.4511
 4127TIP3    H234017   4.293   6.392   0.061 -1.2847 -0.0711 -1.3573
 4128TIP3   OH234018   2.308   0.508   7.109 -0.1647  0.8398  0.2679
 4128TIP3    H134019   2.276   0.437   7.165  1.1186  0.8591  1.0574
 4128TIP3    H234020   2.261   0.496   7.027  0.7980 -1.6300  0.0020
 4129TIP3   OH234021   5.851   4.485   0.326 -0.1765  0.3132 -0.3453
 4129TIP3    H134022   5.908   4.519   0.257  0.4505 -1.3866 -0.6930
 4129TIP3    H234023   5.911   4.458   0.396 -0.7542  1.2880  0.5365
 4130TIP3   OH234024   5.016   6.423   6.671 -0.4337 -0.5411  0.3710
 4130TIP3    H134025   5.000   6.419   6.765 -1.5323 -2.0922  0.1492
 4130TIP3    H234026   4.971   6.502   6.642  0.8103  0.5291  1.2903
 4131TIP3   OH234027   4.555   5.643   7.976 -0.0006 -0.0442 -0.0267
 4131TIP3    H134028   4.525   5.576   7.914 -0.4305 -0.4329  0.5975
 4131TIP3    H234029   4.548   5.725   7.928  1.8597 -0.5882 -1.2918
 4132TIP3   OH234030   4.083   3.272   7.673  0.2159  0.0721 -0.1305
 4132TIP3    H134031   4.035   3.219   7.736  1.1290  0.7206  1.1207
 4132TIP3    H234032   4.053   3.362   7.689  0.5645  0.2638 -0.5254
 4133TIP3   OH234033   3.597   0.673   5.910  0.0778 -0.2227 -0.7698
 4133TIP3    H134034   3.675   0.632   5.949 -0.3289  0.6380  1.0001
 4133TIP3    H234035   3.623   0.763   5.892 -0.4314  0.0046 -0.3882
 4134TIP3   OH234036   6.587   3.709   6.721 -0.2806 -0.2074 -0.2391
 4134TIP3    H134037   6.624   3.628   6.685  1.4466 -0.7170  2.5563
 4134TIP3    H234038   6.658   3.773   6.715 -1.1427  0.7051 -1.0056
 4135TIP3   OH234039   0.985   4.890   7.514 -0.7178 -0.4596 -0.2804
 4135TIP3    H134040   1.000   4.893   7.609 -0.2160 -0.4016 -0.3594
 4135TIP3    H234041   1.073   4.893   7.476 -0.9815  1.3730 -0.7976
 4136TIP3   OH234042   2.020   2.074   1.801 -0.4245 -0.5339 -0.3457
 4136TIP3    H134043   2.022   2.148   1.862 -0.9781  0.2650 -1.2784
 4136TIP3    H234044   2.071   2.006   1.845  0.1004  0.3942  0.5290
 4137TIP3   OH234045   5.931   0.683   7.203  0.2020  0.1754  0.3873
 4137TIP3    H134046   5.998   0.619   7.181  0.6222  0.3983  0.9941
 4137TIP3    H234047   5.973   0.768   7.190  0.0167  0.3174  0.6951
 4138TIP3   OH234048   4.029   2.893   8.051 -0.3302  0.1196  0.5982
 4138TIP3    H134049   4.050   2.923   7.962  2.4221 -1.2955  0.7203
 4138TIP3    H234050   3.987   2.808   8.039 -0.2698  0.0855  0.6262
 4139TIP3   OH234051   1.545   1.600   6.508 -0.1241 -0.2508 -0.0754
 4139TIP3    H134052   1.588   1.556   6.435  1.4524  0.4532  0.4087
 4139TIP3    H234053   1.458   1.560   6.513 -0.8448  0.7749 -3.3130
 4140TIP3   OH234054   4.067   0.652   1.430 -0.6044  0.8222 -0.3947
 4140TIP3    H134055   4.141   0.684   1.377  1.3796 -1.2900  0.9984
 4140TIP3    H234056   4.052   0.720   1.495  0.7357  0.8677 -0.1276
 4141TIP3   OH234057   3.221   0.789   0.977  0.0028 -0.3488 -0.3195
 4141TIP3    H134058   3.133   0.757   0.997  0.1536  1.0188  2.7898
 4141TIP3    H234059   3.206   0.859   0.913 -1.1566 -0.3270 -0.0454
 4142TIP3   OH234060   0.069   6.284   0.929 -0.9721  0.9734  0.4446
 4142TIP3    H134061   0.148   6.296   0.981 -0.8146  1.3598  0.1208
 4142TIP3    H234062   0.091   6.217   0.865 -1.3137  0.1618  1.1697
 4143TIP3   OH234063   4.379   2.259   0.095 -0.0424 -0.2148 -0.3620
 4143TIP3    H134064   4.471   2.255   0.070 -0.1125 -1.2106 -0.4833
 4143TIP3    H234065   4.379   2.245   0.189 -0.0969 -0.6881 -0.4285
 4144TIP3   OH234066   1.472   6.468   0.321  0.2138 -0.0029  0.0616
 4144TIP3    H134067   1.525   6.411   0.377  1.0601  0.5249 -0.1929
 4144TIP3    H234068   1.453   6.414   0.244 -2.0084 -1.1700  1.3681
 4145TIP3   OH234069   4.849   0.601   7.412 -0.1138  0.3964 -0.8089
 4145TIP3    H134070   4.927   0.638   7.455 -0.9944 -2.1299  3.2127
 4145TIP3    H234071   4.883   0.529   7.360  0.3542 -0.3774  0.5333
 4146TIP3   OH234072   1.973   3.754   1.300  0.3898  0.4764  0.1196
 4146TIP3    H134073   2.047   3.764   1.241 -0.0136 -1.9770 -0.8568
 4146TIP3    H234074   1.903   3.806   1.261  1.2215  1.8634  0.4380
 4147TIP3   OH234075   4.081   6.373   1.342  0.1480  0.0448  0.6905
 4147TIP3    H134076   4.058   6.303   1.280 -1.3339  0.2436  0.9801
 4147TIP3    H234077   4.166   6.405   1.313 -0.8298  0.5808 -1.6664
 4148TIP3   OH234078   4.556   1.810   1.611 -0.7121 -0.3424 -0.5176
 4148TIP3    H134079   4.508   1.809   1.528 -1.6748  0.9611  0.0001
 4148TIP3    H234080   4.617   1.737   1.604 -1.8506 -1.2108 -1.7480
 4149TIP3   OH234081   6.208   1.277   2.067 -0.2182  0.6678  0.1044
 4149TIP3    H134082   6.300   1.301   2.054 -0.2430  1.9171  2.1412
 4149TIP3    H234083   6.211   1.188   2.102  0.3266  1.4923  2.1985
 4150TIP3   OH234084   1.359   3.490   0.506  0.0720  0.2239 -0.4997
 4150TIP3    H134085   1.270   3.520   0.488  0.1796 -0.7310 -2.8539
 4150TIP3    H234086   1.348   3.405   0.547 -0.1211  1.1443  1.4148
 4151TIP3   OH234087   5.044   0.390   7.731 -0.0243 -0.1413  0.1023
 4151TIP3    H134088   4.954   0.387   7.765  0.1781 -0.7304  0.5820
 4151TIP3    H234089   5.091   0.442   7.796  1.1111 -3.9546  2.4950
 4152TIP3   OH234090   2.293   0.291   1.089 -0.3067  0.4490  0.1361
 4152TIP3    H134091   2.363   0.357   1.080  1.2898 -1.1574  0.4693
 4152TIP3    H234092   2.235   0.308   1.015  1.1563  0.9993 -0.9312
 4153TIP3   OH234093   2.684   0.402   2.296 -0.3474 -0.0318 -0.0765
 4153TIP3    H134094   2.763   0.433   2.339 -0.4369  0.4055 -0.2220
 4153TIP3    H234095   2.669   0.315   2.333  1.2763 -0.9339 -1.4334
 4154TIP3   OH234096   2.639   5.061   0.738 -0.3534  0.0980 -0.0691
 4154TIP3    H134097   2.701   5.087   0.806  1.0028  3.2391 -2.3755
 4154TIP3    H234098   2.688   4.999   0.683 -0.7754 -0.8615  0.6201
 4155TIP3   OH234099   3.306   3.259   7.945 -0.2441  0.2581  0.0979
 4155TIP3    H134100   3.230   3.302   7.985 -0.4521  0.0528 -0.0726
 4155TIP3    H234101   3.280   3.246   7.854 -0.1024 -0.0426  0.0999
 4156TIP3   OH234102   4.396   1.158   0.095  0.5361 -0.3599 -0.5881
 4156TIP3    H134103   4.332   1.100   0.136 -1.3788  0.8496 -1.7922
 4156TIP3    H234104   4.386   1.143   0.001 -0.2286  2.0957 -0.9387
 4157TIP3   OH234105   5.119   5.406   6.685 -0.0163  0.5395 -0.4233
 4157TIP3    H134106   5.139   5.364   6.601 -1.5160 -1.9388  0.4066
 4157TIP3    H234107   5.199   5.396   6.737 -0.5386 -1.9130 -0.0237
 4158TIP3   OH234108   6.925   6.535   1.429  0.3527  0.3879  0.0825
 4158TIP3    H134109   6.985   6.478   1.381 -0.8327 -0.3841 -0.5038
 4158TIP3    H234110   6.962   6.539   1.518 -0.8301 -3.3449  0.8679
 4159TIP3   OH234111   1.511   6.539   0.726  0.6737  0.6863  0.6065
 4159TIP3    H134112   1.525   6.594   0.649  0.2503 -2.8727 -2.1011
 4159TIP3    H234113   1.593   6.492   0.738 -0.1027 -0.6332  0.7999
 4160TIP3   OH234114   2.511   3.802   0.249 -0.0179 -0.3370 -0.6482
 4160TIP3    H134115   2.484   3.808   0.340  0.8855  0.4612 -0.4336
 4160TIP3    H234116   2.555   3.717   0.242  1.7263  0.4878  0.1444
 4161TIP3   OH234117   0.510   1.335   6.806 -0.6687  0.2528  0.5458
 4161TIP3    H134118   0.464   1.253   6.824 -0.0400 -0.2844 -0.2591
 4161TIP3    H234119   0.458   1.402   6.850 -1.5689 -0.4909  0.6211
 4162TIP3   OH234120   2.771   4.112   0.828  0.0632 -0.1322  0.0712
 4162TIP3    H134121   2.720   4.043   0.784 -1.4394  0.7955  0.3380
 4162TIP3    H234122   2.783   4.179   0.761  0.8536 -0.2865  0.0467
 4163TIP3   OH234123   5.306   2.779   7.357  0.0833  0.1669 -0.4019
 4163TIP3    H134124   5.335   2.818   7.274  1.0486 -0.1614 -0.2225
 4163TIP3    H234125   5.282   2.690   7.334  0.3623  0.0724 -0.3270
 4164TIP3   OH234126   2.323   3.186   1.604 -0.3691 -0.1041 -0.0312
 4164TIP3    H134127   2.357   3.218   1.520 -0.6416  2.2105  0.7062
 4164TIP3    H234128   2.382   3.224   1.669 -0.1945 -1.8339  0.8572
 4165TIP3   OH234129   4.847   6.169   0.935 -0.1587 -0.1514 -0.1642
 4165TIP3    H134130   4.799   6.234   0.883 -0.6927 -0.3965  0.0111
 4165TIP3    H234131   4.795   6.089   0.925 -0.5961 -0.0617  1.2121
 4166TIP3   OH234132   6.186   5.381   7.899  0.3743  0.1436 -0.5553
 4166TIP3    H134133   6.138   5.457   7.868  0.2660 -0.2518 -1.3587
 4166TIP3    H234134   6.135   5.349   7.974  1.0458  1.5375  0.5107
 4167TIP3   OH234135   5.870   5.547   0.392  0.1892 -0.2170 -0.2756
 4167TIP3    H134136   5.950   5.536   0.444 -0.4465 -0.5634  0.6457
 4167TIP3    H234137   5.899   5.542   0.301  1.2115 -0.3556  0.0558
 4168TIP3   OH234138   2.247   4.082   7.781  0.4498  0.2119  0.0666
 4168TIP3    H134139   2.282   4.031   7.854  1.5429  0.7705 -0.0632
 4168TIP3    H234140   2.219   4.015   7.718 -0.2377 -0.2652  0.8687
 4169TIP3   OH234141   3.651   2.030   0.412  0.3241  0.1303 -0.0358
 4169TIP3    H134142   3.568   1.991   0.387  0.3240  0.6355 -0.8242
 4169TIP3    H234143   3.656   2.017   0.507 -1.1235  0.9790  0.1702
 4170TIP3   OH234144   4.392   2.271   0.391 -0.2452  1.1212  0.5233
 4170TIP3    H134145   4.445   2.343   0.426  1.7626 -1.0645  2.0571
 4170TIP3    H234146   4.358   2.226   0.468  1.3858 -1.6534 -0.3285
 4171TIP3   OH234147   4.787   2.217   6.256  0.1445 -0.4257 -0.1772
 4171TIP3    H134148   4.805   2.200   6.164  0.9840  0.8692 -0.2668
 4171TIP3    H234149   4.847   2.288   6.280 -0.5056 -0.3087  1.1939
 4172TIP3   OH234150   3.969   0.926   0.763 -0.3224 -0.2869  0.1558
 4172TIP3    H134151   3.935   1.013   0.743  2.2426  0.5083 -1.0594
 4172TIP3    H234152   3.970   0.922   0.859 -0.5382  1.0206  0.2258
 4173TIP3   OH234153   3.645   5.503   7.998 -0.3949  0.1707  0.2853
 4173TIP3    H134154   3.684   5.489   8.084 -0.9930 -0.2346  0.4926
 4173TIP3    H234155   3.552   5.482   8.010 -0.3554 -0.5475 -0.6226
 4174TIP3   OH234156   2.540   1.914   7.942 -0.0653  0.1552  0.4147
 4174TIP3    H134157   2.595   1.845   7.978 -0.1173 -0.3897 -0.5434
 4174TIP3    H234158   2.452   1.892   7.971 -0.4487 -1.5359 -1.8593
 4175TIP3   OH234159   4.575   5.648   7.419  0.3263 -0.0492  0.4128
 4175TIP3    H134160   4.581   5.653   7.324  1.7808  2.4951  0.6076
 4175TIP3    H234161   4.499   5.700   7.442 -1.8039 -3.0489  0.5073
 4176TIP3   OH234162   2.328   3.065   6.305 -0.1279  0.3300 -0.0031
 4176TIP3    H134163   2.260   3.001   6.327 -1.2487  0.4669 -2.9093
 4176TIP3    H234164   2.299   3.145   6.349 -2.5383  0.7105 -2.1728
 4177TIP3   OH234165   3.341   0.069   6.748  0.3181 -0.1002  0.0991
 4177TIP3    H134166   3.277  -0.000   6.730  0.9728 -0.7973  0.4371
 4177TIP3    H234167   3.291   0.135   6.796 -1.1540  1.2329 -3.0736
 4178TIP3   OH234168   1.021   2.793   0.148  0.9282  0.3588  0.0912
 4178TIP3    H134169   0.934   2.754   0.155  0.3078  1.6516 -0.1028
 4178TIP3    H234170   1.003   2.884   0.124  2.2998  0.9075  1.1309
 4179TIP3   OH234171   4.496   6.181   0.810  0.6733  0.4635  0.0332
 4179TIP3    H134172   4.429   6.199   0.876  1.1360 -2.2330  1.3072
 4179TIP3    H234173   4.450   6.131   0.743  0.7727  1.0600 -0.4792
 4180TIP3   OH234174   5.804   2.787   0.556  0.0080  0.0951 -0.0816
 4180TIP3    H134175   5.759   2.783   0.641  0.2623  0.4028  0.0666
 4180TIP3    H234176   5.768   2.864   0.513  1.7269  1.4330  0.7973
 4181TIP3   OH234177   1.261   6.417   0.729 -0.0384 -0.7827  0.0066
 4181TIP3    H134178   1.341   6.470   0.724 -0.5487  0.0278  0.2304
 4181TIP3    H234179   1.220   6.444   0.811 -1.6139  0.4013 -1.1388
 4182TIP3   OH234180   3.429   2.687   0.708  0.3540 -0.1899 -0.2462
 4182TIP3    H134181   3.376   2.609   0.690 -0.8419  0.3979  0.6020
 4182TIP3    H234182   3.420   2.700   0.803  0.4823  1.0030 -0.3921
 4183TIP3   OH234183   4.407   2.438   1.132  0.2624 -0.0191 -0.3623
 4183TIP3    H134184   4.348   2.473   1.065 -2.2316  1.3392  2.4153
 4183TIP3    H234185   4.414   2.509   1.197  1.0092 -2.0066  1.7971
 4184TIP3   OH234186   6.448   1.038   1.976  0.1655  0.9011  0.2734
 4184TIP3    H134187   6.474   1.130   1.988  0.7384  0.9767 -1.3637
 4184TIP3    H234188   6.453   1.024   1.882  0.3095 -0.8875  0.5268
 4185TIP3   OH234189   4.271   0.995   1.659 -0.3632 -0.2203 -0.1744
 4185TIP3    H134190   4.340   0.931   1.673  1.5821  2.2000  1.9631
 4185TIP3    H234191   4.233   1.009   1.746 -2.3068 -0.1323 -1.0012
 4186TIP3   OH234192   6.286   1.060   0.207 -0.1441  0.8543  0.0151
 4186TIP3    H134193   6.256   1.040   0.296  0.7498  2.0023  0.5899
 4186TIP3    H234194   6.206   1.057   0.154 -0.8183  0.9810  0.9999
 4187TIP3   OH234195   3.996   6.265   0.091  0.4218 -0.8699 -0.6162
 4187TIP3    H134196   3.971   6.323   0.020  0.5117 -0.0023  0.0433
 4187TIP3    H234197   4.092   6.261   0.087  0.5730  0.6825  0.5757
 4188TIP3   OH234198   4.954   1.545   1.756 -0.0852  0.6896 -0.5796
 4188TIP3    H134199   4.936   1.486   1.829  0.5931  0.8903 -0.2400
 4188TIP3    H234200   4.969   1.630   1.798  1.0105  0.6566 -0.8855
 4189TIP3   OH234201   0.332   0.076   1.545  0.1109 -0.4025 -0.4251
 4189TIP3    H134202   0.282   0.129   1.484 -0.8408 -1.5928 -0.6834
 4189TIP3    H234203   0.359   0.137   1.613  0.2486  0.7026 -1.4618
 4190TIP3   OH234204   6.846   4.246   1.707 -0.2821 -0.0588 -0.7213
 4190TIP3    H134205   6.764   4.199   1.691 -0.6278 -0.2182  1.3437
 4190TIP3    H234206   6.915   4.184   1.681 -0.8063 -0.1841 -1.8082
 4191TIP3   OH234207   2.841   4.336   7.343 -0.0473  0.1312 -0.0323
 4191TIP3    H134208   2.785   4.340   7.266 -2.9674 -0.4974  1.9867
 4191TIP3    H234209   2.870   4.245   7.348  0.7011  0.3253 -0.7490
 4192TIP3   OH234210   3.232   0.678   6.682  0.0937  0.6452  0.0431
 4192TIP3    H134211   3.210   0.630   6.761  2.8292 -2.3369 -0.8985
 4192TIP3    H234212   3.174   0.643   6.614 -0.0526  0.9123  0.0293
 4193TIP3   OH234213   5.416   5.436   7.776  0.6961 -0.3213  0.1365
 4193TIP3    H134214   5.416   5.384   7.696  0.4556 -2.3806  1.4512
 4193TIP3    H234215   5.426   5.372   7.847 -2.5488  1.0841  1.9967
 4194TIP3   OH234216   3.400   1.887   0.364 -0.2527 -0.1908 -0.4299
 4194TIP3    H134217   3.399   1.885   0.268 -0.5360 -1.6789 -0.4026
 4194TIP3    H234218   3.314   1.853   0.390  0.7477 -2.2021  0.3722
 4195TIP3   OH234219   6.277   0.127   7.320 -0.3337 -0.1077  0.5041
 4195TIP3    H134220   6.204   0.170   7.363  0.4615  1.5579  0.2324
 4195TIP3    H234221   6.258   0.132   7.226 -0.0738 -0.0520  0.4519
 4196TIP3   OH234222   5.976   0.937   1.618  0.5085  0.0010  0.0320
 4196TIP3    H134223   5.914   0.870   1.648 -0.2347  0.1964 -1.0350
 4196TIP3    H234224   6.055   0.921   1.669  0.1939 -1.4289  0.1026
 4197TIP3   OH234225   4.245   1.212   1.474 -0.0772  0.2639 -0.0598
 4197TIP3    H134226   4.282   1.131   1.508  1.1214  0.2210 -1.4093
 4197TIP3    H234227   4.251   1.274   1.546  1.8977  0.0200  0.0087
 4198TIP3   OH234228   5.207   1.067   0.026  0.4720  0.2391 -0.2377
 4198TIP3    H134229   5.224   1.027   0.112 -1.4287  0.1680  0.1350
 4198TIP3    H234230   5.191   1.159   0.045 -0.3361  0.1495 -0.4537
 4199TIP3   OH234231   4.840   1.889   0.212 -0.3856  0.1973 -0.0984
 4199TIP3    H134232   4.753   1.870   0.176 -1.1838 -0.3122  1.9837
 4199TIP3    H234233   4.892   1.811   0.192 -0.4622  0.4185 -1.1682
 4200TIP3   OH234234   5.877   3.702   6.456 -0.2799  0.3340 -0.6185
 4200TIP3    H134235   5.895   3.699   6.362 -0.9261  0.3761 -0.7503
 4200TIP3    H234236   5.905   3.790   6.483  0.0432  0.2681 -0.7468
 4201TIP3   OH234237   6.365   5.568   0.214 -0.0571  0.1281  0.6428
 4201TIP3    H134238   6.303   5.526   0.275 -0.3274  0.5966  0.6916
 4201TIP3    H234239   6.449   5.563   0.258  0.9182 -4.7457 -1.3654
 4202TIP3   OH234240   6.252   2.583   0.526  0.4301 -0.1130  0.1959
 4202TIP3    H134241   6.287   2.545   0.607 -0.7177 -1.3599  0.1162
 4202TIP3    H234242   6.322   2.640   0.495  1.5703 -0.9646  1.1443
 4203TIP3   OH234243   4.088   2.960   1.764  0.4269  0.0738 -0.0632
 4203TIP3    H134244   4.147   2.917   1.826  0.7305  1.3952  0.5687
 4203TIP3    H234245   4.007   2.973   1.813  0.0260 -0.5712 -0.5375
 4204TIP3   OH234246   3.559   1.727   6.402 -0.0846 -0.3581  0.6074
 4204TIP3    H134247   3.508   1.743   6.481  0.6745  2.7770  0.5515
 4204TIP3    H234248   3.602   1.811   6.384  0.1939 -1.1516 -2.8212
 4205TIP3   OH234249   1.414   2.485   0.730 -0.1652 -0.1618  0.3980
 4205TIP3    H134250   1.451   2.491   0.642  0.8159 -3.2475  0.5474
 4205TIP3    H234251   1.482   2.442   0.782 -2.8085 -3.4907  1.3140
 4206TIP3   OH234252   3.932   1.901   1.371 -0.4995  0.6468 -0.2687
 4206TIP3    H134253   3.995   1.899   1.443 -2.1246  0.0567  1.1776
 4206TIP3    H234254   3.955   1.979   1.320  2.0243 -0.1202 -0.3766
 4207TIP3   OH234255   6.115   5.512   1.936  0.1634 -0.1034  0.5816
 4207TIP3    H134256   6.128   5.420   1.957 -0.2019 -0.3610 -0.2824
 4207TIP3    H234257   6.030   5.534   1.974 -1.1627 -0.9491 -1.7651
 4208TIP3   OH234258   0.816   6.338   1.221 -0.3580  0.3162  0.4923
 4208TIP3    H134259   0.779   6.379   1.299 -0.8583 -0.1254  0.4816
 4208TIP3    H234260   0.777   6.251   1.218 -1.1825  0.7307 -0.8706
 4209TIP3   OH234261   3.297   1.364   1.725  0.1211  0.4982  0.1405
 4209TIP3    H134262   3.356   1.394   1.794 -0.0691 -2.3935  1.6474
 4209TIP3    H234263   3.267   1.279   1.755 -1.4313 -0.0050 -2.6732
 4210TIP3   OH234264   6.155   4.883   0.382  0.0964  0.4685 -0.0871
 4210TIP3    H134265   6.117   4.812   0.329  1.0647 -0.5397  0.5514
 4210TIP3    H234266   6.248   4.882   0.361  0.4039  0.4044  1.2152
 4211TIP3   OH234267   6.580   1.066   1.495 -0.3989 -0.5376 -0.2527
 4211TIP3    H134268   6.650   1.044   1.434 -0.4100  0.1150 -0.5123
 4211TIP3    H234269   6.577   1.162   1.494 -0.1099 -0.5007  1.1149
 4212TIP3   OH234270   3.064   3.452   1.648  0.0935 -0.3450  0.1884
 4212TIP3    H134271   3.028   3.511   1.715 -1.4059  0.1645 -1.0402
 4212TIP3    H234272   3.110   3.510   1.587 -2.0807 -0.2834 -1.4745
 4213TIP3   OH234273   3.794   5.922   0.962  0.4385  0.0529  0.2632
 4213TIP3    H134274   3.710   5.931   0.918 -0.6670 -0.2655  2.2294
 4213TIP3    H234275   3.842   5.857   0.910 -1.1137 -0.8709 -0.0536
 4214TIP3   OH234276   4.278   0.496   8.019 -0.0143  0.3116 -0.6253
 4214TIP3    H134277   4.211   0.429   8.003  0.0226  0.2382 -0.4772
 4214TIP3    H234278   4.295   0.490   8.113  0.4124  0.1336 -0.7136
 4215TIP3   OH234279   2.028   5.648   7.523  0.6967 -0.4806 -0.0681
 4215TIP3    H134280   2.035   5.737   7.488 -0.0060 -0.6567 -0.6609
 4215TIP3    H234281   2.022   5.660   7.618  0.8781  0.0869 -0.1280
 4216TIP3   OH234282   6.404   0.742   1.237 -0.0009 -0.3383  0.2823
 4216TIP3    H134283   6.462   0.785   1.299  0.6118 -0.9671  0.1494
 4216TIP3    H234284   6.408   0.649   1.260 -1.6750 -0.2910  0.8762
 4217TIP3   OH234285   3.811   4.896   7.610  0.7327 -0.5976 -0.4593
 4217TIP3    H134286   3.872   4.908   7.683 -0.5111  2.8060  0.1358
 4217TIP3    H234287   3.820   4.804   7.585  3.1170 -1.1568  2.2464
 4218TIP3   OH234288   4.816   2.987   0.585 -0.1672 -0.0020  0.1384
 4218TIP3    H134289   4.875   2.913   0.570  0.4048  0.3677  0.5378
 4218TIP3    H234290   4.793   3.017   0.497  1.8565  1.1207 -0.0349
 4219TIP3   OH234291   3.632   0.755   7.290 -0.8419  0.0399 -0.1257
 4219TIP3    H134292   3.721   0.747   7.326 -0.1897 -0.6314 -1.8501
 4219TIP3    H234293   3.626   0.846   7.261  0.5568 -0.7666 -3.1782
 4220TIP3   OH234294   6.455   1.322   1.045  0.0042 -0.3859  0.5147
 4220TIP3    H134295   6.411   1.385   1.102  0.7545  0.7720 -0.1578
 4220TIP3    H234296   6.544   1.317   1.079 -0.1819 -1.4644  0.8591
 4221TIP3   OH234297   1.387   1.065   0.377 -0.2559  0.1709  0.4587
 4221TIP3    H134298   1.470   1.112   0.369 -0.1476  0.1372  1.3779
 4221TIP3    H234299   1.333   1.120   0.433 -0.7318  0.0263  0.1406
 4222TIP3   OH234300   5.428   1.700   7.065 -0.5704  0.2515 -0.0823
 4222TIP3    H134301   5.480   1.621   7.080  0.1785  0.5453 -1.1374
 4222TIP3    H234302   5.452   1.759   7.137  1.0029  0.6109 -0.8840
 4223TIP3   OH234303   5.576   7.018   1.507 -0.3108  0.1197  0.0971
 4223TIP3    H134304   5.525   6.948   1.466 -1.1151  0.5520  0.3603
 4223TIP3    H234305   5.576   7.088   1.442 -0.3239  0.2414  0.2286
 4224TIP3   OH234306   1.092   0.097   7.981 -0.7772  0.0951 -0.1260
 4224TIP3    H134307   1.139   0.177   7.959 -1.0325  0.1163 -0.5977
 4224TIP3    H234308   1.054   0.114   8.067 -0.9868  0.5472 -0.3096
 4225TIP3   OH234309   3.894   6.057   7.165  0.5627 -0.1469 -0.1212
 4225TIP3    H134310   3.835   6.133   7.159  0.5653 -0.0741  0.6594
 4225TIP3    H234311   3.844   5.992   7.214  0.7786 -0.4307 -0.2805
 4226TIP3   OH234312   2.635   6.683   6.736  0.4780 -0.1495 -0.2450
 4226TIP3    H134313   2.547   6.694   6.770  0.3422 -2.7335  0.3782
 4226TIP3    H234314   2.676   6.621   6.797  3.0174  1.6984 -0.0095
 4227TIP3   OH234315   5.013   3.925   0.094  0.3900  0.0978 -0.7022
 4227TIP3    H134316   5.096   3.952   0.132 -0.8441  0.5464  1.7449
 4227TIP3    H234317   5.033   3.844   0.046  1.9251 -0.6650  1.1851
 4228TIP3   OH234318   0.693   5.810   7.655  0.1070  0.2746  0.4397
 4228TIP3    H134319   0.671   5.718   7.640  0.7537  0.3846 -1.2243
 4228TIP3    H234320   0.611   5.857   7.640 -0.1795  0.0033  1.1115
 4229TIP3   OH234321   2.790   0.304   1.581  0.4167 -0.6390 -0.0385
 4229TIP3    H134322   2.774   0.340   1.668 -0.2157 -0.2491 -0.3159
 4229TIP3    H234323   2.812   0.380   1.526 -0.4360 -0.7311 -0.5082
 4230TIP3   OH234324   3.627   4.855   0.984  0.1907 -0.2908  0.3441
 4230TIP3    H134325   3.594   4.848   0.895 -1.2432  1.4348  0.7054
 4230TIP3    H234326   3.594   4.775   1.028 -0.5379 -0.3132 -0.2297
 4231TIP3   OH234327   0.416   6.367   7.917  0.1135 -0.1433 -0.2017
 4231TIP3    H134328   0.395   6.413   7.836 -0.7191  0.7550  0.5065
 4231TIP3    H234329   0.475   6.426   7.964 -2.5802  1.2212  1.6486
 4232TIP3   OH234330   6.918   2.085   0.626  0.0973 -0.1904 -0.2007
 4232TIP3    H134331   6.869   2.163   0.600 -1.3639 -0.7473  0.8042
 4232TIP3    H234332   6.892   2.070   0.717 -1.5005 -3.2097 -1.0733
 4233TIP3   OH234333   5.159   1.558   2.265  0.0218 -0.2499 -0.2583
 4233TIP3    H134334   5.142   1.493   2.196  0.8339 -0.4835 -0.2407
 4233TIP3    H234335   5.125   1.517   2.345 -1.8167  0.4260 -0.6637
 4234TIP3   OH234336   4.696   2.170   6.534 -0.2470  0.1340 -0.3172
 4234TIP3    H134337   4.689   2.188   6.440 -1.2020 -0.3251 -0.3367
 4234TIP3    H234338   4.781   2.206   6.559  0.1137  0.0587 -1.4072
 4235TIP3   OH234339   1.025   4.514   0.239  0.1029 -0.3362  0.5694
 4235TIP3    H134340   1.080   4.546   0.167  0.8000 -1.6793  0.4998
 4235TIP3    H234341   0.939   4.501   0.200  0.5255 -1.2376 -0.0708
 4236TIP3   OH234342   2.910   1.099   1.269 -0.4987 -0.1510 -0.0669
 4236TIP3    H134343   2.995   1.079   1.309  0.5335 -2.0786 -3.0800
 4236TIP3    H234344   2.866   1.014   1.264 -1.5124  0.4234 -0.9621
 4237TIP3   OH234345   6.388   1.056   1.244  0.6300  0.8265  0.0422
 4237TIP3    H134346   6.437   1.051   1.326 -1.5553 -0.1622  1.3237
 4237TIP3    H234347   6.305   1.097   1.267  0.2669  1.1908 -1.8218
 4238TIP3   OH234348   5.186   0.705   6.868 -0.0835 -0.5941  0.0434
 4238TIP3    H134349   5.213   0.632   6.812  0.7478 -1.9973  2.2354
 4238TIP3    H234350   5.266   0.757   6.879 -0.5727  0.4564 -1.1528
 4239TIP3   OH234351   0.270   0.366   1.070  0.0971  0.1648 -0.2122
 4239TIP3    H134352   0.193   0.419   1.086 -2.0738 -3.2029  0.9429
 4239TIP3    H234353   0.295   0.386   0.979 -0.9597  2.6587  0.0177
 4240TIP3   OH234354   4.385   5.840   7.498  0.0488  0.2422 -0.5671
 4240TIP3    H134355   4.341   5.921   7.473  0.8000  0.9586  0.3857
 4240TIP3    H234356   4.328   5.800   7.563  0.7974  1.1732  0.6737
 4241TIP3   OH234357   3.818   0.627   7.706 -0.4087 -0.0474  0.7152
 4241TIP3    H134358   3.738   0.658   7.748 -0.3121 -1.8206  2.2853
 4241TIP3    H234359   3.885   0.690   7.732 -0.9355  0.4659  0.8440
 4242TIP3   OH234360   1.742   2.150   1.985 -0.6274  0.4300 -0.3434
 4242TIP3    H134361   1.701   2.232   2.012  1.3051  1.2046  0.2956
 4242TIP3    H234362   1.835   2.171   1.977 -0.2150 -1.5179 -0.8908
 4243TIP3   OH234363   1.998   4.565   6.771 -0.0126  0.7725 -0.9889
 4243TIP3    H134364   1.981   4.628   6.701 -1.6032  2.9710  1.2931
 4243TIP3    H234365   2.074   4.600   6.817 -0.2256  0.4567 -0.3875
 4244TIP3   OH234366   1.342   1.221   6.562  0.0958  0.1281  0.0389
 4244TIP3    H134367   1.435   1.211   6.582  0.1266 -0.3987 -0.3441
 4244TIP3    H234368   1.336   1.303   6.513  0.3925  0.0518 -0.1241
 4245TIP3   OH234369   4.943   6.372   1.131 -0.4623  0.0743 -0.5904
 4245TIP3    H134370   4.891   6.323   1.067  0.2328 -2.3666  0.6258
 4245TIP3    H234371   4.892   6.365   1.212  0.0337  0.7517 -0.2184
 4246TIP3   OH234372   3.680   7.076   0.650 -0.2230  0.0720  0.1767
 4246TIP3    H134373   3.766   7.064   0.609 -0.6484 -0.5069 -0.5696
 4246TIP3    H234374   3.650   7.161   0.619 -0.0418  0.1524  0.2193
 4247TIP3   OH234375   2.380   1.005   1.559 -0.5705 -0.1911  0.2103
 4247TIP3    H134376   2.445   0.942   1.588 -0.5012 -0.9284 -1.5066
 4247TIP3    H234377   2.355   0.976   1.472 -0.8981  1.8636 -0.4163
 4248TIP3   OH234378   3.357   2.244   1.204  0.4063  0.1507 -0.0536
 4248TIP3    H134379   3.332   2.190   1.279  0.1277 -0.6963 -0.7504
 4248TIP3    H234380   3.336   2.190   1.127 -0.8137  1.6389 -0.7874
 4249TIP3   OH234381   6.065   0.381   1.464  0.0312  0.1362 -0.0093
 4249TIP3    H134382   6.010   0.373   1.386 -0.4068  0.6514  0.2437
 4249TIP3    H234383   6.085   0.290   1.489 -1.1410 -0.0743  0.1969
 4250TIP3   OH234384   5.202   5.446   0.551 -0.2299 -0.2679  0.5331
 4250TIP3    H134385   5.115   5.411   0.532 -0.1632  0.2788 -0.7787
 4250TIP3    H234386   5.214   5.429   0.645 -1.9242  0.0306  0.8243
 4251TIP3   OH234387   4.825   5.619   8.068 -0.6503 -0.6175 -0.3321
 4251TIP3    H134388   4.860   5.683   8.007 -2.1037  1.2175  0.7056
 4251TIP3    H234389   4.732   5.613   8.046 -0.9645 -0.7597  0.9854
 4252TIP3   OH234390   3.809   1.174   2.102  0.2651 -0.2367 -0.1880
 4252TIP3    H134391   3.817   1.084   2.068  0.0767 -0.5755  0.6559
 4252TIP3    H234392   3.891   1.190   2.148 -0.4639 -0.6684  1.2777
 4253TIP3   OH234393   4.047   1.028   0.443 -0.2885 -0.1317 -0.3396
 4253TIP3    H134394   3.972   1.086   0.428 -0.3167  0.0428  0.5052
 4253TIP3    H234395   4.008   0.941   0.449 -0.1914 -0.3401 -2.1941
 4254TIP3   OH234396   4.400   4.881   7.344  0.1214  0.1711  0.5177
 4254TIP3    H134397   4.482   4.846   7.379 -0.1608 -2.7483 -1.4978
 4254TIP3    H234398   4.414   4.886   7.249 -2.4113 -1.6039 -0.0146
 4255TIP3   OH234399   3.265   0.384   1.295  0.4922  0.1008 -0.1476
 4255TIP3    H134400   3.239   0.349   1.210  0.4060  0.6323 -0.3458
 4255TIP3    H234401   3.272   0.308   1.352  0.1139 -0.2114 -0.5201
 4256TIP3   OH234402   5.713   1.211   1.579 -0.1049 -0.7866  0.0018
 4256TIP3    H134403   5.664   1.285   1.614 -1.0918 -0.8778 -1.1784
 4256TIP3    H234404   5.744   1.164   1.657 -2.6192 -1.2224  0.7918
 4257TIP3   OH234405   2.073   5.615   6.725 -0.0638  0.0096  0.2916
 4257TIP3    H134406   1.990   5.607   6.771 -1.0956  3.2565 -0.7950
 4257TIP3    H234407   2.139   5.615   6.794 -1.0410 -1.4380  1.2577
 4258TIP3   OH234408   5.919   5.379   1.300 -0.4106  0.6282  0.2019
 4258TIP3    H134409   5.997   5.335   1.268 -0.3575  0.4237  0.6022
 4258TIP3    H234410   5.925   5.372   1.396 -1.1729  0.1451  0.2240
 4259TIP3   OH234411   4.958   5.047   7.364  0.3999 -0.4616 -0.3128
 4259TIP3    H134412   4.929   5.127   7.321 -2.8264 -0.7773  1.1840
 4259TIP3    H234413   4.893   4.981   7.340  1.9880 -2.1938 -0.0002
 4260TIP3   OH234414   0.624   2.502   6.602 -0.0725  0.1170 -0.9096
 4260TIP3    H134415   0.560   2.437   6.633  1.9930 -1.0233  1.1064
 4260TIP3    H234416   0.654   2.468   6.518 -1.0725 -0.0694 -1.1991
 4261TIP3   OH234417   3.569   1.249   1.988  0.2421  0.5001 -0.3637
 4261TIP3    H134418   3.522   1.330   1.970  0.3076  0.2041 -1.9193
 4261TIP3    H234419   3.651   1.277   2.027 -0.6387  1.0789  1.1075
 4262TIP3   OH234420   0.460   6.351   1.785 -0.4198 -0.0362 -0.0435
 4262TIP3    H134421   0.545   6.335   1.827  0.4518  0.6528 -1.5260
 4262TIP3    H234422   0.468   6.438   1.746 -0.6397 -1.2627 -2.9567
 4263TIP3   OH234423   2.670   4.157   1.832  0.0905 -0.4270  0.6881
 4263TIP3    H134424   2.606   4.086   1.831 -2.1056  1.5160 -0.2178
 4263TIP3    H234425   2.668   4.189   1.922 -0.7172  0.0714  0.4958
 4264TIP3   OH234426   6.907   1.585   7.931  0.1482  0.0504  0.3272
 4264TIP3    H134427   6.820   1.560   7.899  0.3915 -0.8964  0.3932
 4264TIP3    H234428   6.942   1.643   7.863 -0.2481 -0.1388 -0.0409
 4265TIP3   OH234429   3.262   2.485   6.584 -0.4066 -0.0553  0.4925
 4265TIP3    H134430   3.261   2.574   6.619 -0.5376 -0.2555  0.9988
 4265TIP3    H234431   3.187   2.482   6.524  0.7805  0.7833 -1.0698
 4266TIP3   OH234432   6.331   0.195   0.897  0.1475  0.5209  0.4258
 4266TIP3    H134433   6.291   0.270   0.853  0.7464  0.9393  0.5845
 4266TIP3    H234434   6.413   0.230   0.933 -1.5375  0.8678  4.1042
 4267TIP3   OH234435   5.479   1.529   1.535 -0.0529 -0.3376  0.0141
 4267TIP3    H134436   5.420   1.584   1.586 -0.4177  0.0522 -0.8120
 4267TIP3    H234437   5.567   1.554   1.565 -0.2518  0.0865  0.2496
 4268TIP3   OH234438   5.158   4.186   6.217 -0.6378 -0.1886  0.5092
 4268TIP3    H134439   5.192   4.276   6.218 -1.6967  0.2268 -0.1365
 4268TIP3    H234440   5.236   4.131   6.219  0.1151  0.7536 -1.7571
 4269TIP3   OH234441   0.111   0.395   0.022 -0.5132  0.2004  0.3166
 4269TIP3    H134442   0.028   0.375   0.066 -0.0652 -2.3779  0.0808
 4269TIP3    H234443   0.111   0.338  -0.056  0.9992  0.9613 -0.2607
 4270TIP3   OH234444   0.215   6.989   1.491 -0.0344  0.0423 -0.1562
 4270TIP3    H134445   0.134   7.036   1.469 -1.0024  0.2665  3.5162
 4270TIP3    H234446   0.277   7.058   1.514 -0.0274 -0.2690  0.7792
 4271TIP3   OH234447   2.192   2.796   6.702  0.2667 -0.3189 -0.1347
 4271TIP3    H134448   2.260   2.763   6.760 -0.3763 -1.6264 -0.0961
 4271TIP3    H234449   2.118   2.736   6.716 -0.4730  0.3630 -1.0569
 4272TIP3   OH234450   6.011   2.654   0.432 -0.4930 -0.0101  0.0210
 4272TIP3    H134451   5.941   2.681   0.492 -1.1956  1.1902 -1.3244
 4272TIP3    H234452   6.087   2.639   0.490 -0.8210  2.2967  1.1257
 4273TIP3   OH234453   3.021   5.807   6.068  0.2305  0.0891  0.6469
 4273TIP3    H134454   3.042   5.895   6.100  1.5070  0.6773 -1.6777
 4273TIP3    H234455   2.944   5.820   6.013  1.7416  0.2048 -1.5354
 4274TIP3   OH234456   4.530   3.572   1.185 -0.0591  0.3506 -0.3947
 4274TIP3    H134457   4.519   3.631   1.110  2.5655 -0.1845 -1.2380
 4274TIP3    H234458   4.484   3.492   1.159 -0.7308  0.8211 -0.6600
 4275TIP3   OH234459   5.559   6.678   0.520  0.1123  0.1933 -0.6084
 4275TIP3    H134460   5.586   6.769   0.506  0.0172  0.7374  2.3868
 4275TIP3    H234461   5.597   6.655   0.605 -1.6693 -1.8496 -0.3261
 4276TIP3   OH234462   3.120   6.098   7.402  0.1133  0.4305 -0.1734
 4276TIP3    H134463   3.030   6.108   7.369  0.4889 -0.1735 -1.4259
 4276TIP3    H234464   3.118   6.017   7.452 -0.5315  1.4994  1.5736
 4277TIP3   OH234465   3.371   4.850   7.067 -0.1770  0.1376  0.1412
 4277TIP3    H134466   3.316   4.910   7.018  0.3589  0.4103 -0.1322
 4277TIP3    H234467   3.365   4.767   7.019  0.5535  0.4755 -0.5383
 4278TIP3   OH234468   5.543   1.706   0.524  0.4136 -0.3398  0.6806
 4278TIP3    H134469   5.621   1.723   0.577  0.0762 -0.1924  1.1371
 4278TIP3    H234470   5.563   1.625   0.477  0.9943 -0.0851  0.4978
 4279TIP3   OH234471   0.611   4.567   0.462 -0.0296  0.2328 -0.0748
 4279TIP3    H134472   0.593   4.473   0.454  1.2915  0.1483 -2.2460
 4279TIP3    H234473   0.659   4.575   0.545 -1.8404 -0.7221  1.1110
 4280TIP3   OH234474   4.864   1.148   7.404 -0.0482 -0.0367 -0.2589
 4280TIP3    H134475   4.803   1.094   7.354 -0.3557 -1.2009  1.3120
 4280TIP3    H234476   4.807   1.202   7.460  0.3197 -0.6731  0.7529
 4281TIP3   OH234477   6.877   1.301   1.382 -0.0179 -0.3634  0.4419
 4281TIP3    H134478   6.965   1.290   1.347 -0.5660 -0.2859 -0.9754
 4281TIP3    H234479   6.870   1.395   1.401  0.2737 -0.4056  0.7747
 4282TIP3   OH234480   5.968   6.783   6.689  0.5965 -0.4682  0.3633
 4282TIP3    H134481   5.900   6.835   6.645 -1.2265 -2.4519  0.7559
 4282TIP3    H234482   5.957   6.695   6.654  1.1661 -1.3960  2.4692
 4283TIP3   OH234483   2.165   0.409   6.907 -0.2820 -0.0705 -0.1333
 4283TIP3    H134484   2.193   0.322   6.878 -1.1732  0.0452 -1.3823
 4283TIP3    H234485   2.112   0.442   6.834  0.0068  1.4930  0.3645
 4284TIP3   OH234486   5.219   4.314   0.034 -0.0079 -0.7326  0.5368
 4284TIP3    H134487   5.280   4.374  -0.009 -0.1578 -0.7031  0.3703
 4284TIP3    H234488   5.227   4.233  -0.016 -0.2568 -0.6670  0.3939
 4285TIP3   OH234489   1.947   3.907   7.451 -0.0687  0.0197 -0.2203
 4285TIP3    H134490   1.857   3.883   7.472  0.0886 -1.0298 -0.7388
 4285TIP3    H234491   1.945   3.931   7.358  0.3442 -0.8342 -0.4571
 4286TIP3   OH234492   5.874   1.870   5.719 -0.1655  0.0110 -0.0423
 4286TIP3    H134493   5.791   1.911   5.695  0.7015  0.8847 -1.6407
 4286TIP3    H234494   5.941   1.927   5.681  1.2446  0.2447  2.6675
 4287TIP3   OH234495   1.003   3.805   8.095  0.5791  0.0182 -0.0450
 4287TIP3    H134496   0.979   3.769   8.010  0.5816  0.7556 -0.3639
 4287TIP3    H234497   0.980   3.898   8.089  0.2799  0.0046  0.8705
 4288TIP3   OH234498   3.152   5.801   1.328 -0.0376 -0.0926 -0.0287
 4288TIP3    H134499   3.081   5.866   1.327 -1.5242 -1.6254 -3.5093
 4288TIP3    H234500   3.206   5.825   1.253  1.0481 -1.1125  0.4246
 4289TIP3   OH234501   3.965   1.125   7.481  0.5376  0.6197 -0.1430
 4289TIP3    H134502   4.039   1.139   7.541  0.1353 -0.2732  0.5732
 4289TIP3    H234503   3.960   1.206   7.430  0.8299  1.4457  1.1117
 4290TIP3   OH234504   2.450   3.208   0.310  0.1333  0.3319  0.4155
 4290TIP3    H134505   2.495   3.126   0.329  0.2568  0.2601 -0.1827
 4290TIP3    H234506   2.392   3.222   0.385 -1.9555 -1.7251 -0.7584
 4291TIP3   OH234507   3.463   6.966   8.027 -0.0434 -0.2217  0.1211
 4291TIP3    H134508   3.435   6.876   8.040 -2.0520  0.1911 -1.0661
 4291TIP3    H234509   3.443   7.010   8.109 -2.3655 -0.0864 -0.4857
 4292TIP3   OH234510   3.828   3.627   7.467 -0.7663  0.0350  0.0319
 4292TIP3    H134511   3.759   3.653   7.406 -0.8463  2.6943  1.1977
 4292TIP3    H234512   3.900   3.687   7.448 -0.0424 -0.4901  1.1327
 4293TIP3   OH234513   5.651   0.468   1.244  0.9964  0.2416  0.9339
 4293TIP3    H134514   5.672   0.561   1.234  0.0521  0.7425  3.3665
 4293TIP3    H234515   5.646   0.454   1.338 -0.1348 -1.9964  0.5827
 4294TIP3   OH234516   0.138   0.216   0.420  0.3203  0.1758 -0.0533
 4294TIP3    H134517   0.145   0.122   0.405 -0.4278 -0.1140  1.2839
 4294TIP3    H234518   0.185   0.256   0.347  2.8819 -1.2952  0.7489
 4295TIP3   OH234519   4.769   0.039   1.674 -0.6913  0.3142 -0.1365
 4295TIP3    H134520   4.692   0.002   1.718 -0.6829  2.3483  1.6698
 4295TIP3    H234521   4.843  -0.010   1.711 -1.0450 -1.3061 -1.5133
 4296TIP3   OH234522   6.029   6.659   1.645  0.0213 -0.3404  0.1635
 4296TIP3    H134523   6.118   6.676   1.677 -0.0639  0.9349 -0.2443
 4296TIP3    H234524   6.037   6.578   1.594  1.6058  1.3665 -2.4242
 4297TIP3   OH234525   2.130   3.361   1.815 -0.5522 -0.2644 -0.4128
 4297TIP3    H134526   2.196   3.321   1.872 -2.0183 -3.4484 -0.8490
 4297TIP3    H234527   2.099   3.438   1.864  0.9298 -0.7715  1.3728
 4298TIP3   OH234528   4.042   7.015   1.990 -0.1904 -0.0724 -0.3075
 4298TIP3    H134529   4.059   7.034   1.898  0.0234 -0.3352 -0.3223
 4298TIP3    H234530   3.948   7.027   2.000 -0.0656  1.0102 -0.3155
 4299TIP3   OH234531   2.169   5.093   0.007  0.2494  0.5408  0.3380
 4299TIP3    H134532   2.247   5.108   0.060  0.7990 -0.3218 -0.2190
 4299TIP3    H234533   2.099   5.079   0.071  0.6523  0.8016  0.8373
 4300TIP3   OH234534   4.600   1.842   0.766  0.5319  0.8209 -0.7917
 4300TIP3    H134535   4.670   1.897   0.802 -0.6513  1.9595 -0.1877
 4300TIP3    H234536   4.604   1.858   0.672  1.2748  0.6510 -0.7931
 4301TIP3   OH234537   5.519   6.815   6.364  0.3889 -0.3871  1.0590
 4301TIP3    H134538   5.577   6.864   6.306 -0.8242 -0.7806 -0.5079
 4301TIP3    H234539   5.575   6.748   6.403  1.0589 -0.5331 -0.1459
 4302TIP3   OH234540   0.919   1.680   8.121 -0.4218  0.3217 -0.0090
 4302TIP3    H134541   0.925   1.678   8.026  1.4501  1.9737  0.0361
 4302TIP3    H234542   0.943   1.770   8.145  1.6201 -0.7350  2.1406
 4303TIP3   OH234543   3.084   5.934   0.241  0.0775  0.0246 -0.7808
 4303TIP3    H134544   3.130   5.982   0.310 -2.1289  0.2654  0.5612
 4303TIP3    H234545   3.089   5.992   0.164 -0.2083  1.2068  0.0754
 4304TIP3   OH234546   3.664   0.410   0.163 -0.4524  0.1739  0.5139
 4304TIP3    H134547   3.639   0.329   0.207 -1.3348  0.0910 -0.1376
 4304TIP3    H234548   3.751   0.430   0.198  0.9601 -2.4869 -1.3389
 4305TIP3   OH234549   3.478   3.800   6.808  0.5659 -0.3079 -0.9000
 4305TIP3    H134550   3.464   3.770   6.719 -2.4748 -0.9118 -0.3043
 4305TIP3    H234551   3.487   3.720   6.860  0.6938 -0.0029 -0.4454
 4306TIP3   OH234552   2.896   1.319   2.017 -0.3861 -0.0369  0.0498
 4306TIP3    H134553   2.838   1.244   2.026 -0.6025 -0.0079 -1.0420
 4306TIP3    H234554   2.979   1.282   1.986 -0.0408  0.0067  0.9124
 4307TIP3   OH234555   5.006   2.186   0.472  0.1444  0.2912 -0.5184
 4307TIP3    H134556   4.930   2.189   0.530  0.5762 -3.0008  0.3380
 4307TIP3    H234557   4.982   2.240   0.397 -2.2122  0.9196  0.6406
 4308TIP3   OH234558   5.961   6.188   1.346  0.2607 -0.1587  0.1984
 4308TIP3    H134559   6.020   6.113   1.356 -0.6474 -0.6664  2.1340
 4308TIP3    H234560   5.989   6.250   1.414 -0.6197  0.1164  0.3287
 4309TIP3   OH234561   4.491   5.279   1.359 -0.9225  0.2711  0.2876
 4309TIP3    H134562   4.556   5.309   1.295 -1.5122  2.5915  0.7475
 4309TIP3    H234563   4.541   5.226   1.421 -0.0372 -0.5357 -1.0794
 4310TIP3   OH234564   1.617   3.512   0.444 -0.5667 -0.8240 -0.0192
 4310TIP3    H134565   1.627   3.489   0.351 -0.1593 -1.8678  0.2758
 4310TIP3    H234566   1.525   3.497   0.463 -0.5629 -1.0274 -0.1526
 4311TIP3   OH234567   2.033   0.599   0.412  0.1285 -0.3198  0.5316
 4311TIP3    H134568   2.073   0.686   0.413 -0.7721  0.0983  0.7984
 4311TIP3    H234569   2.021   0.577   0.505  1.4815 -1.2664  0.4985
 4312TIP3   OH234570   2.100   2.857   0.777 -0.2043  0.5887 -0.2582
 4312TIP3    H134571   2.178   2.891   0.733  0.9436 -0.6392  0.7763
 4312TIP3    H234572   2.096   2.905   0.859 -0.1337  0.1667 -0.0053
 4313TIP3   OH234573   5.051   1.509   1.470  0.2399  0.3066  0.0530
 4313TIP3    H134574   4.983   1.561   1.513  1.6922  0.2808  2.4955
 4313TIP3    H234575   5.098   1.570   1.415  0.7524  1.2043  1.4623
 4314TIP3   OH234576   2.085   5.589   8.068 -0.2805 -0.0082 -0.7629
 4314TIP3    H134577   2.047   5.521   8.013  1.1629 -0.4894 -1.1909
 4314TIP3    H234578   2.012   5.622   8.120 -1.5136 -0.0763 -2.4074
 4315TIP3   OH234579   4.173   5.082   7.845 -0.1307 -0.2515 -0.1214
 4315TIP3    H134580   4.246   5.143   7.858 -1.6895  1.4500  0.8265
 4315TIP3    H234581   4.177   5.059   7.753  0.1891  1.6922 -0.6111
 4316TIP3   OH234582   3.937   2.699   6.908 -0.5292 -0.2241 -0.7853
 4316TIP3    H134583   4.011   2.696   6.848 -0.2727  1.3343 -0.5612
 4316TIP3    H234584   3.888   2.619   6.890  0.1371 -0.2962 -2.3040
 4317TIP3   OH234585   0.100   2.249   0.637 -1.3128 -0.3525  0.3433
 4317TIP3    H134586   0.143   2.327   0.672 -3.3321  1.1030 -0.3603
 4317TIP3    H234587   0.007   2.270   0.639 -1.8975 -2.8128  0.2711
 4318TIP3   OH234588   0.481   2.143   0.964  0.6937 -0.6441 -0.4999
 4318TIP3    H134589   0.506   2.122   1.054 -0.0063  1.7168  0.2955
 4318TIP3    H234590   0.391   2.109   0.956  0.7839 -0.9239 -0.3340
 4319TIP3   OH234591   3.283   5.610   2.307  0.0528 -0.1624 -0.2927
 4319TIP3    H134592   3.373   5.578   2.312 -0.6555 -2.4982 -1.6822
 4319TIP3    H234593   3.266   5.647   2.394  1.7451 -1.3718  0.5792
 4320TIP3   OH234594   4.454   3.335   0.175 -0.0548  0.0963 -0.3037
 4320TIP3    H134595   4.543   3.368   0.193  0.2158 -0.2378 -1.0126
 4320TIP3    H234596   4.466   3.241   0.160 -0.7323 -0.2270  1.0407
 4321TIP3   OH234597   4.434   1.922   8.060  0.2639  0.2367  0.1688
 4321TIP3    H134598   4.368   1.931   7.991  0.5819  0.4808 -0.1084
 4321TIP3    H234599   4.387   1.942   8.141  0.2551  1.5429 -0.1456
 4322TIP3   OH234600   7.046   2.151   7.558 -0.4163  0.1724  0.6267
 4322TIP3    H134601   7.081   2.218   7.616 -3.0654  0.1217  2.3969
 4322TIP3    H234602   7.039   2.072   7.613 -3.9447  0.4004  0.6662
 4323TIP3   OH234603   3.747   2.733   6.686 -0.3195 -0.1648  0.4105
 4323TIP3    H134604   3.816   2.744   6.621  1.4104  0.9368  2.3977
 4323TIP3    H234605   3.759   2.644   6.719 -1.1091 -0.6738 -0.6236
 4324TIP3   OH234606   4.262   4.803   6.842  0.0461 -0.1388 -0.0729
 4324TIP3    H134607   4.247   4.863   6.769 -0.4992 -0.0759  0.0874
 4324TIP3    H234608   4.209   4.726   6.820 -2.8899  1.2356  1.9115
 4325TIP3   OH234609   3.255   6.370   7.482 -0.1003 -0.5020  0.4084
 4325TIP3    H134610   3.203   6.293   7.461 -0.0242 -0.3346 -0.4165
 4325TIP3    H234611   3.219   6.402   7.565  0.7308 -2.1740  1.4416
 4326TIP3   OH234612   2.681   0.332   1.850 -0.5339  0.0878  0.1740
 4326TIP3    H134613   2.637   0.314   1.933 -1.8881  0.0409 -0.5344
 4326TIP3    H234614   2.770   0.299   1.862 -1.5476 -2.6227  0.6218
 4327TIP3   OH234615   5.119   6.250   2.068 -0.5186 -0.0548  0.3611
 4327TIP3    H134616   5.169   6.221   2.145  0.0790 -0.7995 -0.2915
 4327TIP3    H234617   5.155   6.198   1.996 -0.2021  1.5304 -0.6471
 4328TIP3   OH234618   3.089   3.393   7.218  0.4490 -0.0409 -0.3497
 4328TIP3    H134619   3.023   3.457   7.244 -0.6854 -1.3629  0.0842
 4328TIP3    H234620   3.133   3.370   7.300 -0.0095 -0.7661 -0.3038
 4329TIP3   OH234621   4.469   0.466   2.534  0.2066  0.3416  0.4781
 4329TIP3    H134622   4.425   0.516   2.465 -0.5667  0.9299  1.3897
 4329TIP3    H234623   4.562   0.484   2.521 -0.0529  1.7792  0.6194
 4330TIP3   OH234624   2.276   6.303   7.959  0.5212 -0.0912 -0.5546
 4330TIP3    H134625   2.230   6.385   7.978 -0.6756 -0.5165 -1.5271
 4330TIP3    H234626   2.332   6.288   8.035  1.1051  1.8637 -0.5729
 4331TIP3   OH234627   5.876   4.621   8.078  0.1904 -0.2029 -0.0284
 4331TIP3    H134628   5.907   4.587   8.161  0.7183  1.1956  0.3637
 4331TIP3    H234629   5.920   4.568   8.012  1.3372  0.0152  0.5599
 4332TIP3   OH234630   0.915   1.957   6.664  0.0993 -0.3396 -0.4019
 4332TIP3    H134631   0.857   2.015   6.712 -0.2707 -0.7038 -0.4033
 4332TIP3    H234632   0.954   2.012   6.596  0.3056  0.0736  0.0526
 4333TIP3   OH234633   2.502   0.451   0.463  0.0674 -0.3818  0.1878
 4333TIP3    H134634   2.547   0.456   0.379  0.0882  1.6740  0.2991
 4333TIP3    H234635   2.571   0.433   0.527  0.3191 -0.1631 -0.0196
 4334TIP3   OH234636   2.643   2.226   0.994  0.0860 -0.2069  0.0413
 4334TIP3    H134637   2.588   2.223   0.915 -0.3220 -0.6161  0.3343
 4334TIP3    H234638   2.706   2.155   0.982  1.2119  0.9188 -0.7660
 4335TIP3   OH234639   3.376   4.752   1.264 -0.2451  0.2885 -0.1850
 4335TIP3    H134640   3.465   4.718   1.254 -0.0909  1.2339 -2.3353
 4335TIP3    H234641   3.336   4.696   1.330  2.0334  0.0373  1.0311
 4336TIP3   OH234642   5.359   1.705   1.723 -0.3920 -1.1897 -0.0377
 4336TIP3    H134643   5.268   1.713   1.750 -0.2232 -0.1756  0.2514
 4336TIP3    H234644   5.409   1.752   1.790  0.3768 -2.0182 -0.0131
 4337TIP3   OH234645   3.162   7.005   6.766  0.0057 -0.2646 -0.0859
 4337TIP3    H134646   3.102   6.933   6.745 -1.7097  1.2081 -0.3403
 4337TIP3    H234647   3.176   6.999   6.860  0.9313 -1.7015 -0.2876
 4338TIP3   OH234648   3.651   2.152   1.753 -0.1647 -0.5566 -0.7846
 4338TIP3    H134649   3.631   2.090   1.823 -0.7404 -2.6330 -2.7737
 4338TIP3    H234650   3.733   2.193   1.781 -1.1696 -0.1930  1.8530
 4339TIP3   OH234651   5.980   3.833   0.831 -0.2187  0.6309  0.4527
 4339TIP3    H134652   5.895   3.836   0.874 -1.5709  0.3456 -2.1397
 4339TIP3    H234653   5.972   3.893   0.757  2.0265  1.0181  0.4749
 4340TIP3   OH234654   3.961   4.547   1.442  0.3008  0.0973 -0.0359
 4340TIP3    H134655   3.937   4.639   1.429 -1.0148  0.0579  1.9079
 4340TIP3    H234656   3.994   4.519   1.356 -0.2866  2.0732 -0.9503
 4341TIP3   OH234657   3.856   2.650   1.968 -0.1549 -0.6385 -0.4105
 4341TIP3    H134658   3.890   2.664   2.056 -1.0280 -0.3243 -0.1185
 4341TIP3    H234659   3.846   2.738   1.931  0.7072 -0.7876 -1.0219
 4342TIP3   OH234660   1.670   3.145   8.004  0.4994 -0.6558  0.6491
 4342TIP3    H134661   1.668   3.049   7.999 -0.8836 -0.6875  1.3098
 4342TIP3    H234662   1.660   3.174   7.913  0.4411 -1.1487  0.4944
 4343TIP3   OH234663   5.362   3.169   7.554  0.1760 -0.1731  0.6395
 4343TIP3    H134664   5.451   3.201   7.541  0.0988 -0.4646 -0.5872
 4343TIP3    H234665   5.310   3.249   7.566  0.2001  0.1191 -1.1189
 4344TIP3   OH234666   0.849   2.394   6.486 -0.0817  0.4307  0.0648
 4344TIP3    H134667   0.813   2.461   6.428 -1.1672 -0.7903 -0.7077
 4344TIP3    H234668   0.938   2.380   6.455 -0.4652  0.2035 -0.9652
 4345TIP3   OH234669   1.147   4.092   1.435  0.2301  0.1035 -0.3961
 4345TIP3    H134670   1.163   4.001   1.459 -1.9834 -0.2933 -0.2862
 4345TIP3    H234671   1.105   4.087   1.349 -2.4022  0.8336  0.8064
 4346TIP3   OH234672   2.570   5.896   7.189  0.0764  0.2009 -0.2556
 4346TIP3    H134673   2.564   5.857   7.277  0.2178  1.6310  0.4001
 4346TIP3    H234674   2.518   5.976   7.195  0.3838  0.4907 -1.3917
 4347TIP3   OH234675   3.932   2.942   1.989 -0.3119  0.5081 -0.0509
 4347TIP3    H134676   3.995   2.906   2.052 -1.1410  0.5340  0.8023
 4347TIP3    H234677   3.901   3.023   2.030 -0.8935  0.4975 -0.4686
 4348TIP3   OH234678   6.954   2.307   1.844 -0.1889 -0.0641 -0.0509
 4348TIP3    H134679   7.049   2.311   1.837 -0.1006 -1.4346  0.1503
 4348TIP3    H234680   6.937   2.319   1.938 -0.1445 -0.6858  0.0433
 4349TIP3   OH234681   1.831   3.289   0.031  0.0353  0.4270 -0.0071
 4349TIP3    H134682   1.877   3.227   0.088  2.6161  0.0076 -2.4596
 4349TIP3    H234683   1.775   3.234  -0.024 -0.6107  0.6336  0.4332
 4350TIP3   OH234684   5.836   7.062   7.005  0.2724  0.8243 -0.3851
 4350TIP3    H134685   5.873   7.077   7.092  0.0781 -1.0421  0.0392
 4350TIP3    H234686   5.743   7.085   7.015  0.7910  3.3170 -0.8644
 4351TIP3   OH234687   6.947   6.383   2.110  0.1405 -0.1919  0.4297
 4351TIP3    H134688   7.022   6.440   2.127  0.1144  0.1253 -0.5074
 4351TIP3    H234689   6.985   6.305   2.070 -0.0574  0.1045 -0.3474
 4352TIP3   OH234690   4.442   4.137   2.030  0.2788  0.0529  0.0224
 4352TIP3    H134691   4.408   4.074   1.966 -1.3718  0.8437  0.1006
 4352TIP3    H234692   4.536   4.116   2.038  0.3209 -0.5680 -2.0358
 4353TIP3   OH234693   5.290   1.228   0.955 -0.3230 -0.4573  0.0417
 4353TIP3    H134694   5.274   1.285   1.031 -1.1376  0.0154 -0.4866
 4353TIP3    H234695   5.204   1.193   0.932  0.1578 -1.9358  0.3684
 4354TIP3   OH234696   2.386   0.550   1.067 -0.1604 -0.5684 -0.1932
 4354TIP3    H134697   2.416   0.555   1.158  1.8744  1.1694 -0.9155
 4354TIP3    H234698   2.352   0.637   1.049  2.3814  0.1037 -2.0326
 4355TIP3   OH234699   7.141   2.948   6.914  0.8693 -0.7777 -0.2349
 4355TIP3    H134700   7.064   2.913   6.959 -1.9610  1.4261 -3.1834
 4355TIP3    H234701   7.180   3.009   6.977  0.3545 -2.0188  1.3307
 4356TIP3   OH234702   3.027   6.740   1.864 -0.0666 -0.0843  0.3026
 4356TIP3    H134703   2.959   6.735   1.931  0.7349 -0.9685  1.0529
 4356TIP3    H234704   3.076   6.820   1.886  2.1786 -2.0457  2.6995
 4357TIP3   OH234705   1.222   4.755   7.327 -0.2171  0.2862  0.2138
 4357TIP3    H134706   1.156   4.782   7.263  1.9847 -0.5456 -2.5183
 4357TIP3    H234707   1.223   4.659   7.321  0.7102  0.2519  0.7640
 4358TIP3   OH234708   3.650   2.060   7.842 -0.2226 -0.4095 -0.1130
 4358TIP3    H134709   3.741   2.048   7.870 -0.5102 -0.4015  0.8546
 4358TIP3    H234710   3.622   1.973   7.815 -0.9412 -1.1152  2.7294
 4359TIP3   OH234711   5.604   1.991   1.816  0.3234 -0.0013  0.7264
 4359TIP3    H134712   5.660   1.944   1.755 -0.1538  0.6817 -0.2406
 4359TIP3    H234713   5.566   1.923   1.871  0.6819 -0.6257  0.2081
 4360TIP3   OH234714   2.647   3.439   6.600  0.4808  0.3170 -0.2158
 4360TIP3    H134715   2.575   3.459   6.541  1.1744 -0.7927 -1.4646
 4360TIP3    H234716   2.605   3.424   6.685 -0.6694  0.4680 -0.7480
 4361TIP3   OH234717   6.115   3.227   1.174 -0.2061  0.0623  0.3684
 4361TIP3    H134718   6.083   3.301   1.226 -0.1278  1.1757 -1.1095
 4361TIP3    H234719   6.142   3.267   1.091  1.6897 -1.3729  0.2800
 4362TIP3   OH234720   0.895   3.881   1.016 -0.2823 -0.2423 -0.3154
 4362TIP3    H134721   0.811   3.836   1.022 -0.6560  0.4252 -0.5815
 4362TIP3    H234722   0.875   3.973   1.034  0.5577 -0.2547  0.6985
 4363TIP3   OH234723   4.541   4.609   6.335  0.5261  0.0825 -0.3639
 4363TIP3    H134724   4.564   4.645   6.421 -1.0711  2.3595 -0.8183
 4363TIP3    H234725   4.487   4.533   6.354  1.8923 -0.6522  0.6449
 4364TIP3   OH234726   3.930   3.247   1.635 -0.1778 -0.0378 -0.5436
 4364TIP3    H134727   3.878   3.166   1.634  0.8970 -0.7184 -2.1740
 4364TIP3    H234728   3.905   3.293   1.555 -0.5068  1.0979  0.1970
 4365TIP3   OH234729   3.144   6.802   0.955 -0.3620  0.0758 -0.3293
 4365TIP3    H134730   3.080   6.749   0.907 -2.1819  0.6488  1.4133
 4365TIP3    H234731   3.185   6.741   1.017 -1.8244  0.4824  1.0613
 4366TIP3   OH234732   3.998   5.952   7.458  0.4497 -0.2044  0.3874
 4366TIP3    H134733   4.061   5.964   7.387  2.4878 -2.3587  1.7177
 4366TIP3    H234734   4.003   6.033   7.508 -0.4356  1.0217 -1.4781
 4367TIP3   OH234735   4.917   1.199   7.888 -0.3690 -0.4343 -0.2904
 4367TIP3    H134736   4.893   1.264   7.822  1.0193  0.2588 -0.1089
 4367TIP3    H234737   4.930   1.249   7.968 -0.7511 -1.1186  0.2017
 4368TIP3   OH234738   5.216   1.929   8.112  0.0317  0.0708 -0.1310
 4368TIP3    H134739   5.218   1.905   8.019 -4.5943  1.7606 -0.7681
 4368TIP3    H234740   5.192   1.849   8.157  0.5910 -0.3315 -0.5270
 4369TIP3   OH234741   2.771   1.348   0.245  0.1782  0.2952  0.1142
 4369TIP3    H134742   2.811   1.262   0.251  1.7212  1.0136  0.2934
 4369TIP3    H234743   2.702   1.338   0.179  0.0420 -1.1782  0.4697
 4370TIP3   OH234744   7.036   6.922   0.817  0.2550 -0.1111 -0.1687
 4370TIP3    H134745   6.990   6.867   0.881  1.5324 -0.0874  0.7876
 4370TIP3    H234746   7.085   6.860   0.764 -1.0867 -0.1595 -1.3754
 4371TIP3   OH234747   2.394   5.666   0.475 -0.2087  0.7014 -0.4739
 4371TIP3    H134748   2.425   5.706   0.557  1.6932 -0.7135 -0.4704
 4371TIP3    H234749   2.379   5.574   0.497  0.5454  0.2561 -1.7654
 4372TIP3   OH234750   4.993   3.622   5.947  0.1292  0.0883  0.0723
 4372TIP3    H134751   4.951   3.539   5.971  1.1750 -0.7877 -1.0735
 4372TIP3    H234752   4.974   3.632   5.854  2.8717 -0.5807 -0.5989
 4373TIP3   OH234753   0.224   1.436   0.852 -0.0051 -0.2064  0.2843
 4373TIP3    H134754   0.291   1.477   0.797  0.5939 -0.4331  0.8403
 4373TIP3    H234755   0.244   1.343   0.850 -1.0089 -0.4168 -0.4912
 4374TIP3   OH234756   1.129   3.221   6.682  0.5592 -0.0229 -0.2864
 4374TIP3    H134757   1.199   3.277   6.647  0.3904 -1.4154 -2.9618
 4374TIP3    H234758   1.175   3.159   6.738  0.8037  2.4214  2.3383
 4375TIP3   OH234759   1.719   1.931   1.178 -0.6535 -0.4591  0.6994
 4375TIP3    H134760   1.645   1.912   1.237 -3.9898 -1.2982 -3.4875
 4375TIP3    H234761   1.725   1.855   1.121  0.0562  1.7601 -2.3415
 4376TIP3   OH234762   1.407   5.610   0.163  0.2709 -0.7323  0.2362
 4376TIP3    H134763   1.479   5.549   0.146  0.9024 -0.3120  1.3417
 4376TIP3    H234764   1.352   5.566   0.227  0.1154 -0.6144  0.1842
 4377TIP3   OH234765   1.207   1.503   1.495 -0.2274 -0.3788  0.1122
 4377TIP3    H134766   1.211   1.570   1.562  2.0840  1.3373 -1.6469
 4377TIP3    H234767   1.142   1.440   1.527  0.2513  0.7803  3.5249
 4378TIP3   OH234768   5.087   6.763   0.552 -0.1550  0.0679 -0.3096
 4378TIP3    H134769   5.108   6.718   0.634 -0.7454 -1.5347 -1.0311
 4378TIP3    H234770   5.096   6.856   0.574  2.3711 -0.3925  0.8452
 4379TIP3   OH234771   1.951   1.304   1.117  0.4962  0.0821 -0.0828
 4379TIP3    H134772   1.973   1.242   1.048  0.4618  1.1456 -1.0776
 4379TIP3    H234773   2.025   1.365   1.119 -0.2829  1.0612 -0.3905
 4380TIP3   OH234774   6.522   7.044   1.221  0.5577 -0.2178 -0.4788
 4380TIP3    H134775   6.438   7.015   1.185 -1.1756  1.7529  1.7815
 4380TIP3    H234776   6.547   6.975   1.282 -0.6624  0.2824  0.6176
 4381TIP3   OH234777   4.969   1.799   6.753  0.9968 -0.8704  0.2157
 4381TIP3    H134778   5.016   1.855   6.692  0.4226 -0.6879 -0.0686
 4381TIP3    H234779   5.019   1.803   6.834  1.3676 -0.5437 -0.0306
 4382TIP3   OH234780   6.865   0.589   0.989 -0.6804  0.1978  0.1065
 4382TIP3    H134781   6.861   0.597   1.085  0.5606 -0.0074  0.1883
 4382TIP3    H234782   6.783   0.547   0.965 -0.9180  0.0703  1.1015
 4383TIP3   OH234783   2.516   6.839   0.620  0.1842  0.2069  0.2284
 4383TIP3    H134784   2.430   6.858   0.657  0.3484  0.4234  0.5023
 4383TIP3    H234785   2.520   6.893   0.540  0.1755  0.4086  0.3645
 4384TIP3   OH234786   6.702   1.601   0.904 -0.2561  0.1684 -0.3363
 4384TIP3    H134787   6.612   1.612   0.932 -0.4203 -0.9143 -0.4272
 4384TIP3    H234788   6.697   1.543   0.828  0.6664 -1.2706  0.6901
 4385TIP3   OH234789   1.422   0.455   0.003  0.6019  0.3934  0.2975
 4385TIP3    H134790   1.349   0.513   0.025  0.5326  0.0107  1.1057
 4385TIP3    H234791   1.414   0.383   0.065  0.0357 -1.0294 -1.3932
 4386TIP3   OH234792   2.465   2.706   6.376 -0.1083 -0.1975 -0.2999
 4386TIP3    H134793   2.509   2.709   6.292  1.2541 -0.7813  0.3792
 4386TIP3    H234794   2.520   2.759   6.434 -1.3078  0.6294  0.1129
 4387TIP3   OH234795   6.669   3.473   6.391  0.8793  0.1585  0.3090
 4387TIP3    H134796   6.654   3.545   6.331  1.5438 -0.7051 -0.9147
 4387TIP3    H234797   6.636   3.396   6.345  0.1997 -0.3316  1.5842
 4388TIP3   OH234798   1.300   2.168   1.823  0.5486  0.2068 -0.3569
 4388TIP3    H134799   1.319   2.179   1.916  0.8045 -0.1018 -0.3672
 4388TIP3    H234800   1.238   2.237   1.802  1.3352  0.9643 -0.2060
 4389TIP3   OH234801   1.394   0.753   1.013  0.7187  0.0929  0.0316
 4389TIP3    H134802   1.413   0.834   0.966  0.1040 -0.0779 -0.5290
 4389TIP3    H234803   1.442   0.686   0.966 -0.9954 -0.2901 -1.2004
 4390TIP3   OH234804   0.458   5.499   7.764 -0.6444 -0.2871 -0.2114
 4390TIP3    H134805   0.542   5.518   7.722 -0.7736  0.5003 -0.1245
 4390TIP3    H234806   0.480   5.490   7.857 -0.8499  1.2914  0.0073
 4391TIP3   OH234807   0.392   5.153   7.828  0.1668  0.5192  0.2141
 4391TIP3    H134808   0.476   5.199   7.823  0.7423 -0.5600 -0.1789
 4391TIP3    H234809   0.393   5.111   7.913 -0.4693  1.4269  0.6767
 4392TIP3   OH234810   2.943   2.321   0.259  0.3636  0.2411  0.2918
 4392TIP3    H134811   2.962   2.410   0.285  0.8912  0.1588  0.1786
 4392TIP3    H234812   2.868   2.295   0.314  0.6449  0.5120  0.7983
 4393TIP3   OH234813   5.474   2.916   7.536 -0.5384  0.4233 -0.1756
 4393TIP3    H134814   5.424   2.863   7.474  0.4851  1.1708 -1.6803
 4393TIP3    H234815   5.436   3.003   7.531 -1.8311 -0.0020  1.8543
 4394TIP3   OH234816   6.437   6.052   1.144 -0.1185 -0.0569 -0.5494
 4394TIP3    H134817   6.528   6.033   1.120 -0.0721 -0.4524 -0.0799
 4394TIP3    H234818   6.412   5.979   1.200 -1.2371 -0.7553 -1.9207
 4395TIP3   OH234819   6.207   1.383   0.920 -0.0482  0.1382  0.1081
 4395TIP3    H134820   6.288   1.346   0.955 -0.8938 -0.2610  1.7028
 4395TIP3    H234821   6.211   1.364   0.826  2.1848  1.0681 -0.0144
 4396TIP3   OH234822   3.593   4.130   1.274  0.3726 -0.1372  0.1597
 4396TIP3    H134823   3.593   4.037   1.295  0.9208 -0.2003 -0.1037
 4396TIP3    H234824   3.686   4.154   1.270  0.2414  0.3490 -0.0878
 4397TIP3   OH234825   6.297   6.214   0.493 -0.7038 -0.2594  0.1728
 4397TIP3    H134826   6.303   6.309   0.503 -0.1087 -0.1895 -0.8020
 4397TIP3    H234827   6.221   6.189   0.545 -2.6343  1.1083 -1.9177
 4398TIP3   OH234828   4.825   5.262   1.941 -0.2117 -0.5965 -0.0513
 4398TIP3    H134829   4.818   5.218   2.026  0.7521 -1.1340 -0.2365
 4398TIP3    H234830   4.902   5.318   1.951 -0.4156 -0.2592 -0.3922
 4399TIP3   OH234831   0.241   6.776   0.263  0.3367  0.7595  0.2096
 4399TIP3    H134832   0.200   6.771   0.349 -2.7887  1.1422 -1.1893
 4399TIP3    H234833   0.274   6.688   0.246 -1.2684  0.0550  0.7464
 4400TIP3   OH234834   6.503   6.120   0.679 -0.2483 -0.0317 -0.6796
 4400TIP3    H134835   6.473   6.154   0.763 -0.1868 -0.6721 -0.3932
 4400TIP3    H234836   6.441   6.155   0.615 -0.4243  0.2775 -0.3404
 4401TIP3   OH234837   2.898   6.299   7.694 -0.1518  0.0982 -0.3107
 4401TIP3    H134838   2.928   6.330   7.780 -2.0105  1.8671 -0.2733
 4401TIP3    H234839   2.918   6.206   7.694  0.2713  0.1594  1.8744
 4402TIP3   OH234840   0.784   2.163   0.348 -1.2411  0.0254  0.5465
 4402TIP3    H134841   0.698   2.136   0.316 -0.3287 -2.0147 -0.2887
 4402TIP3    H234842   0.785   2.138   0.440 -0.5860 -2.5341 -0.0989
 4403TIP3   OH234843   7.152   0.035   1.447 -0.0012 -0.2930  0.1552
 4403TIP3    H134844   7.070  -0.008   1.469  0.1712 -0.4366  0.5263
 4403TIP3    H234845   7.145   0.122   1.488 -0.7639  0.4126 -1.4323
 4404TIP3   OH234846   1.063   0.501   1.013  0.0801 -0.0985 -0.2395
 4404TIP3    H134847   1.129   0.442   1.049  0.0578  0.0834  0.1009
 4404TIP3    H234848   1.066   0.578   1.069  0.5410  0.4907 -1.0594
 4405TIP3   OH234849   2.671   1.675   6.650  0.6252  0.1126  0.9118
 4405TIP3    H134850   2.730   1.606   6.681  0.7722 -0.6287 -0.9600
 4405TIP3    H234851   2.611   1.631   6.590 -1.4004  1.0076  2.2166
 4406TIP3   OH234852   6.274   6.160   0.888 -0.0052 -0.0029  0.2041
 4406TIP3    H134853   6.209   6.201   0.946 -1.0739 -2.3763  0.7246
 4406TIP3    H234854   6.341   6.127   0.948 -1.8016 -3.7188  0.3194
 4407TIP3   OH234855   0.092   0.917   8.037 -0.1923  0.0409  0.1661
 4407TIP3    H134856   0.157   0.961   7.983  0.3023 -0.3985  0.4026
 4407TIP3    H234857   0.119   0.826   8.039 -1.6042 -0.4277 -0.8944
 4408TIP3   OH234858   3.119   0.617   1.341  0.2538 -0.0000  0.7264
 4408TIP3    H134859   3.173   0.539   1.331  0.6533  0.3239  0.3401
 4408TIP3    H234860   3.070   0.602   1.422  2.5889  0.6920  2.3439
 4409TIP3   OH234861   4.845   5.874   0.659 -0.2112  0.1907 -0.4652
 4409TIP3    H134862   4.785   5.851   0.730 -0.7456  0.6634 -0.7670
 4409TIP3    H234863   4.813   5.957   0.625 -0.2309 -0.2547 -1.5655
 4410TIP3   OH234864   5.094   3.318   2.152 -0.2550 -0.2861 -0.4595
 4410TIP3    H134865   5.145   3.397   2.170  0.7125 -0.8514 -0.7406
 4410TIP3    H234866   5.011   3.333   2.198  0.9965 -0.3627  1.8936
 4411TIP3   OH234867   6.554   0.529   0.706 -0.3734 -0.0018 -0.3523
 4411TIP3    H134868   6.474   0.479   0.723  0.1267 -0.6664  0.0708
 4411TIP3    H234869   6.561   0.589   0.780 -0.8564  0.5435 -0.7479
 4412TIP3   OH234870   3.045   1.801   1.435  0.0683  0.5398 -0.5408
 4412TIP3    H134871   2.977   1.735   1.451  2.1486 -1.6897 -0.5443
 4412TIP3    H234872   3.123   1.765   1.477  1.3435  2.8917 -0.8133
 4413TIP3   OH234873   4.336   4.016   7.291 -0.1632  0.5407 -0.0174
 4413TIP3    H134874   4.292   3.972   7.364 -0.5579  0.5388 -0.2582
 4413TIP3    H234875   4.429   4.014   7.315 -0.5118  2.8794  1.7898
 4414TIP3   OH234876   0.959   1.162   1.049 -0.1061  0.0509  0.0105
 4414TIP3    H134877   0.981   1.069   1.043 -0.7874 -0.0057 -1.6939
 4414TIP3    H234878   0.885   1.166   1.110 -1.0976 -0.6917 -1.1368
 4415TIP3   OH234879   4.110   6.919   7.353 -0.0199  0.5999 -0.3790
 4415TIP3    H134880   4.088   6.826   7.360 -0.0173  0.7049  1.1821
 4415TIP3    H234881   4.154   6.927   7.268 -0.1710 -0.7831 -0.6010
 4416TIP3   OH234882   6.569   5.827   0.989 -0.4051  0.6073 -0.0766
 4416TIP3    H134883   6.584   5.761   1.057 -0.1175 -0.5002 -1.2059
 4416TIP3    H234884   6.478   5.813   0.962  0.4126 -1.0997 -2.1448
 4417TIP3   OH234885   5.907   2.875   6.513  0.5678 -0.9416  0.1241
 4417TIP3    H134886   5.936   2.878   6.422  2.8023 -1.3229  0.8037
 4417TIP3    H234887   5.813   2.890   6.508  0.2780 -3.1753 -2.4408
 4418TIP3   OH234888   1.927   1.115   1.347 -0.3914  0.0092  0.1173
 4418TIP3    H134889   1.882   1.168   1.282  0.5028  0.0910 -0.4471
 4418TIP3    H234890   2.005   1.166   1.370 -1.4285  0.6351  2.3138
 4419TIP3   OH234891   6.286   2.341   0.400  0.0150  0.0989  0.2885
 4419TIP3    H134892   6.287   2.425   0.447  1.7719  0.9879 -1.2829
 4419TIP3    H234893   6.199   2.306   0.417 -0.2415  1.5598  2.1726
 4420TIP3   OH234894   6.287   0.220   2.197 -0.0365  0.0714  0.1056
 4420TIP3    H134895   6.205   0.263   2.222 -0.6529 -1.6541  1.1295
 4420TIP3    H234896   6.290   0.142   2.251  1.1993 -1.0404 -1.5198
 4421TIP3   OH234897   1.042   4.874   7.813 -0.2710 -0.3772  0.0460
 4421TIP3    H134898   1.075   4.961   7.794  0.4907 -0.9179 -1.2168
 4421TIP3    H234899   1.003   4.881   7.900 -1.3404  1.5238 -0.5525
 4422TIP3   OH234900   3.775   1.466   6.902  0.3194 -0.1968  0.4025
 4422TIP3    H134901   3.810   1.540   6.853  0.5234 -0.6855 -0.1974
 4422TIP3    H234902   3.746   1.404   6.834 -1.0930 -0.0844  0.8871
 4423TIP3   OH234903   6.677   2.231   6.335 -0.6180 -0.7821 -0.1873
 4423TIP3    H134904   6.687   2.319   6.373 -2.3182 -0.7386  0.2368
 4423TIP3    H234905   6.607   2.241   6.271 -2.2014 -2.2277  1.2586
 4424TIP3   OH234906   6.283   0.545   6.925  0.1113 -0.6092 -0.5569
 4424TIP3    H134907   6.215   0.581   6.869 -0.8001 -1.1598  0.1814
 4424TIP3    H234908   6.360   0.540   6.869 -0.6567 -0.6786 -1.6126
 4425TIP3   OH234909   4.909   0.243   1.579 -0.0579  0.2515  0.0123
 4425TIP3    H134910   4.856   0.163   1.584 -3.1516  2.2552  0.2497
 4425TIP3    H234911   4.961   0.242   1.659 -0.6166 -1.1193  0.3722
 4426TIP3   OH234912   2.042   0.201   0.631 -0.0778 -0.2166 -0.0098
 4426TIP3    H134913   2.043   0.286   0.587  0.0060 -0.7120 -0.9788
 4426TIP3    H234914   2.065   0.138   0.563 -0.0402 -1.0103  0.7231
 4427TIP3   OH234915   3.366   3.961   7.998 -0.0402  0.1030 -0.4302
 4427TIP3    H134916   3.386   3.976   8.090 -0.9619 -0.4447 -0.1371
 4427TIP3    H234917   3.421   4.023   7.951  1.3068 -0.4246  0.4279
 4428TIP3   OH234918   0.011   6.181   1.994 -0.6503 -0.2469 -0.2904
 4428TIP3    H134919   0.010   6.088   1.973  0.5332 -0.6381  1.3174
 4428TIP3    H234920   0.075   6.218   1.932  0.5014 -0.8727  0.5170
 4429TIP3   OH234921   6.639   0.131   6.536  0.9625 -0.9243  0.2941
 4429TIP3    H134922   6.630   0.120   6.441 -0.5100 -1.2313  0.4514
 4429TIP3    H234923   6.560   0.089   6.572 -0.0499  1.9041  1.4790
 4430TIP3   OH234924   5.614   5.626   0.559  0.0213 -0.5635  0.0046
 4430TIP3    H134925   5.518   5.624   0.559 -0.0238  0.8299 -0.6042
 4430TIP3    H234926   5.638   5.620   0.651 -0.6248 -1.3334  0.1362
 4431TIP3   OH234927   0.305   6.283   7.301  0.4159 -0.3990 -0.4036
 4431TIP3    H134928   0.302   6.260   7.208 -0.4891 -1.4676 -0.1219
 4431TIP3    H234929   0.396   6.264   7.327  0.7586  0.2158 -1.1378
 4432TIP3   OH234930   4.476   2.744   1.678  0.3098  0.2323 -0.0349
 4432TIP3    H134931   4.489   2.713   1.767 -2.1028  0.3582  0.3692
 4432TIP3    H234932   4.536   2.690   1.625  1.7843  0.1948  1.6396
 4433TIP3   OH234933   2.483   5.599   7.869  0.1275 -0.1185 -0.2293
 4433TIP3    H134934   2.444   5.565   7.949 -0.0143 -1.5358 -0.8839
 4433TIP3    H234935   2.408   5.623   7.814  0.2113 -0.6810 -0.5855
 4434TIP3   OH234936   7.079   1.600   6.329 -0.2390 -0.8015  0.2205
 4434TIP3    H134937   7.010   1.667   6.327 -0.5276 -1.1093 -0.6192
 4434TIP3    H234938   7.148   1.637   6.384  0.0917  0.6572 -1.1503
 4435TIP3   OH234939   6.673   0.030   1.032 -0.2766  0.4510 -0.5221
 4435TIP3    H134940   6.642  -0.031   1.099  0.2583 -0.8513 -1.4426
 4435TIP3    H234941   6.644  -0.009   0.949  3.7431 -0.8553 -1.4272
 4436TIP3   OH234942   1.069   5.098   0.379  0.1731  0.2922  0.1304
 4436TIP3    H134943   1.046   5.005   0.377 -0.4108  0.4335  0.5199
 4436TIP3    H234944   1.135   5.107   0.310  1.6828 -0.8008  1.3811
 4437TIP3   OH234945   0.775   6.068   7.113 -0.0725  0.4434 -0.5827
 4437TIP3    H134946   0.763   6.162   7.094  0.8112  0.4517 -1.1411
 4437TIP3    H234947   0.746   6.024   7.034  0.4691  0.2982 -0.7008
 4438TIP3   OH234948   5.214   0.078   8.062  0.0494  0.7053 -0.3877
 4438TIP3    H134949   5.204   0.023   8.140 -0.8851 -0.4627 -1.3222
 4438TIP3    H234950   5.156   0.039   7.997  3.0883 -0.1844 -2.6852
 4439TIP3   OH234951   0.740   1.222   0.214  0.6408 -0.1845  0.0845
 4439TIP3    H134952   0.784   1.261   0.138  0.3724  1.0850  0.5682
 4439TIP3    H234953   0.673   1.164   0.177  0.5438  0.3912 -0.6394
 4440TIP3   OH234954   1.673   3.108   0.246  0.0496  0.6020  0.0134
 4440TIP3    H134955   1.595   3.140   0.200 -1.4302  0.3982  2.3050
 4440TIP3    H234956   1.737   3.092   0.177 -2.2280 -0.0506 -1.9841
 4441TIP3   OH234957   2.767   5.947   0.188  0.1555  0.1066 -0.1460
 4441TIP3    H134958   2.778   5.853   0.205 -0.7232  0.3578  2.0517
 4441TIP3    H234959   2.833   5.989   0.244 -1.4098  0.9065  1.1262
 4442TIP3   OH234960   1.376   2.785   7.563 -0.5449  0.4029 -0.7637
 4442TIP3    H134961   1.368   2.816   7.654 -1.7996 -0.4634 -0.5609
 4442TIP3    H234962   1.465   2.808   7.537 -0.9928  2.9997 -0.1690
 4443TIP3   OH234963   0.110   1.877   6.040 -0.3603  0.0030 -0.1877
 4443TIP3    H134964   0.066   1.895   6.124 -2.6815  3.1378 -1.9463
 4443TIP3    H234965   0.059   1.806   6.001 -0.0888 -0.5575  0.4700
 4444TIP3   OH234966   0.741   2.043   1.895 -0.2182  0.4756 -0.4039
 4444TIP3    H134967   0.752   2.070   1.986  0.4449  0.8066 -0.5765
 4444TIP3    H234968   0.803   1.971   1.883 -0.4736  0.2750 -0.5294
 4445TIP3   OH234969   7.049   5.113   7.961  0.4583  0.3384  0.1915
 4445TIP3    H134970   7.061   5.207   7.976  0.0955  0.2996  0.7631
 4445TIP3    H234971   6.998   5.109   7.880  1.2145  0.6021 -0.3056
 4446TIP3   OH234972   5.832   7.002   1.611 -0.4237  1.1401 -0.1999
 4446TIP3    H134973   5.743   7.035   1.600 -0.5529  0.2869 -1.8712
 4446TIP3    H234974   5.824   6.907   1.608  0.3411  1.0058  1.4063
 4447TIP3   OH234975   7.124   3.537   1.297 -0.0874 -0.5086  0.0235
 4447TIP3    H134976   7.106   3.445   1.279 -0.2752 -1.0908  2.9287
 4447TIP3    H234977   7.070   3.557   1.374 -0.6836  2.2711 -1.0778
 4448TIP3   OH234978   7.062   4.991   1.246 -0.4555  0.0838 -0.2449
 4448TIP3    H134979   7.124   5.016   1.315  0.4759  0.0572 -1.0610
 4448TIP3    H234980   7.109   5.007   1.165 -0.8138 -1.7579 -0.8452
 4449TIP3   OH234981   4.301   1.424   0.394 -0.2381  0.4436  0.3961
 4449TIP3    H134982   4.348   1.470   0.464 -0.3322  0.3706  0.5072
 4449TIP3    H234983   4.369   1.378   0.345 -0.1047  0.9501  0.0963
 4450TIP3   OH234984   5.044   2.911   0.859  0.5162 -0.1044  0.2416
 4450TIP3    H134985   5.077   2.927   0.770 -1.2892  0.7000 -0.3158
 4450TIP3    H234986   5.098   2.839   0.892  2.0333  0.4097 -1.0476
 4451TIP3   OH234987   4.364   0.217   7.640  0.1589 -0.2724 -0.1489
 4451TIP3    H134988   4.341   0.217   7.547  0.2067 -0.0921 -0.1604
 4451TIP3    H234989   4.426   0.289   7.650  0.7417 -0.7725 -0.1189
 4452TIP3   OH234990   6.619   2.179   2.322 -0.6332 -0.4915  0.3391
 4452TIP3    H134991   6.671   2.230   2.384  0.1953 -2.1779  1.0595
 4452TIP3    H234992   6.562   2.243   2.280  2.6267  1.5614 -1.0984
 4453TIP3   OH234993   6.728   2.942   1.519 -0.0445 -0.5731 -0.6209
 4453TIP3    H134994   6.758   2.926   1.608  0.7739  1.3387 -0.5348
 4453TIP3    H234995   6.735   2.856   1.476 -0.1945 -1.4462  1.0622
 4454TIP3   OH234996   5.666   4.527   1.178 -0.2573  0.0953  0.1427
 4454TIP3    H134997   5.697   4.519   1.269  0.5846  1.7450  0.0048
 4454TIP3    H234998   5.739   4.566   1.131 -1.7763  2.0334 -0.6442
 4455TIP3   OH234999   6.386   2.193   1.596 -0.2870  0.0674  0.0528
 4455TIP3    H135000   6.408   2.267   1.653 -0.2778  0.4040 -0.3875
 4455TIP3    H235001   6.368   2.121   1.656 -2.4244  0.9972  0.5698
 4456TIP3   OH235002   1.147   0.599   1.778  0.2051 -0.1124  0.0166
 4456TIP3    H135003   1.140   0.689   1.809  1.9608  0.5195 -1.3220
 4456TIP3    H235004   1.064   0.558   1.802 -0.7450  1.9545  0.3198
 4457TIP3   OH235005   7.103   0.001   0.743  0.2959  0.3256  0.6220
 4457TIP3    H135006   7.023   0.052   0.760 -0.1010  0.4138 -1.3741
 4457TIP3    H235007   7.079  -0.089   0.765 -1.5235 -0.2386 -3.1350
 4458TIP3   OH235008   4.068   1.380   1.378  0.2136 -0.0207 -0.1504
 4458TIP3    H135009   4.146   1.338   1.413 -0.6212 -3.2932 -2.0182
 4458TIP3    H235010   4.074   1.366   1.283 -1.5354  1.6560 -0.5449
 4459TIP3   OH235011   5.472   6.499   1.275 -0.0643 -0.2858  0.0451
 4459TIP3    H135012   5.393   6.459   1.311 -0.0597 -1.5687 -1.3237
 4459TIP3    H235013   5.534   6.427   1.264  0.2452  0.2093 -1.6717
 4460TIP3   OH235014   2.486   1.175   6.905  0.3243  0.0717 -0.0872
 4460TIP3    H135015   2.459   1.251   6.855  2.4982  0.7452 -0.2924
 4460TIP3    H235016   2.531   1.119   6.842  1.7856  0.2459  0.7731
 4461TIP3   OH235017   4.845   1.739   0.991  0.2122  0.6734  0.7495
 4461TIP3    H135018   4.836   1.831   0.966  2.4658  1.1723  1.6935
 4461TIP3    H235019   4.898   1.701   0.921 -1.0550 -0.0146  0.1519
 4462TIP3   OH235020   6.816   3.090   1.127  0.3435  0.2673 -0.0430
 4462TIP3    H135021   6.886   3.133   1.079  0.4446 -0.5210 -0.6036
 4462TIP3    H235022   6.857   3.062   1.209  0.3397  1.0096  0.2150
 4463TIP3   OH235023   6.474   6.351   1.175  0.2137 -0.1438  0.2507
 4463TIP3    H135024   6.415   6.419   1.207  1.2905  0.9052  0.0750
 4463TIP3    H235025   6.417   6.280   1.146 -0.9563  0.9197 -0.0902
 4464TIP3   OH235026   6.913   2.799   7.732 -0.1424  0.2563 -0.3577
 4464TIP3    H135027   6.848   2.864   7.757  0.0801  0.5943 -0.6486
 4464TIP3    H235028   6.862   2.727   7.695 -0.4993 -0.3636  1.2710
 4465TIP3   OH235029   5.221   6.388   1.197  0.4299  0.5963  0.1739
 4465TIP3    H135030   5.128   6.398   1.178  0.0671 -1.9436  0.3832
 4465TIP3    H235031   5.266   6.438   1.129 -1.0757  1.9793  0.1792
 4466TIP3   OH235032   5.773   0.929   0.026 -0.3581 -0.2536  0.0145
 4466TIP3    H135033   5.772   0.856  -0.037  2.2513 -0.8267  0.5757
 4466TIP3    H235034   5.751   0.888   0.110  0.7043 -0.3298  0.2596
 4467TIP3   OH235035   5.616   2.725   2.103  0.3195  0.0380  0.1335
 4467TIP3    H135036   5.532   2.684   2.085  1.5192 -1.9707 -1.0291
 4467TIP3    H235037   5.662   2.663   2.160  1.3170  0.7575  0.1324
 4468TIP3   OH235038   3.577   6.991   7.288  0.5148  0.0044  0.0775
 4468TIP3    H135039   3.551   6.919   7.346 -2.5029 -0.1352 -1.3748
 4468TIP3    H235040   3.614   6.946   7.211  1.4286  0.1025  0.4545
 4469TIP3   OH235041   5.641   2.218   0.162 -0.2652  0.3992 -0.2495
 4469TIP3    H135042   5.685   2.188   0.242  0.7417  0.0857 -0.9078
 4469TIP3    H235043   5.584   2.145   0.138 -1.0906  0.7640  0.5514
 4470TIP3   OH235044   6.930   0.232   1.261  0.0238 -0.4409 -0.6617
 4470TIP3    H135045   7.010   0.228   1.314 -1.4682  1.4916  1.8058
 4470TIP3    H235046   6.887   0.147   1.276  0.4213 -0.5393 -0.0570
 4471TIP3   OH235047   1.540   4.083   7.793 -0.0307  0.3613 -0.1207
 4471TIP3    H135048   1.585   4.009   7.751  0.0676  0.8765 -0.9250
 4471TIP3    H235049   1.610   4.131   7.836 -0.0752  0.0624  0.2846
 4472TIP3   OH235050   2.120   0.852   7.674 -0.0765  0.3833 -0.0659
 4472TIP3    H135051   2.124   0.786   7.743 -1.1497 -0.0186 -0.3785
 4472TIP3    H235052   2.038   0.898   7.689 -0.7521 -0.2888 -1.5860
 4473TIP3   OH235053   5.704   5.308   1.558 -0.6083 -0.2743  0.3283
 4473TIP3    H135054   5.634   5.370   1.581  0.5254  1.3213 -0.4016
 4473TIP3    H235055   5.762   5.310   1.635  0.3807  0.9861 -0.4291
 4474TIP3   OH235056   2.566   0.563   6.737  0.2010 -0.4468  0.2141
 4474TIP3    H135057   2.523   0.482   6.709 -0.7684  0.5148 -1.1465
 4474TIP3    H235058   2.647   0.565   6.686 -0.9466  0.6545 -1.5906
 4475TIP3   OH235059   4.815   5.591   1.900  0.0083 -0.5049  0.3128
 4475TIP3    H135060   4.824   5.599   1.995 -1.6360 -0.7256  0.5103
 4475TIP3    H235061   4.892   5.541   1.872  0.7332 -0.0448  1.4689
 4476TIP3   OH235062   6.357   5.420   1.202 -0.5683  0.6374  0.3191
 4476TIP3    H135063   6.338   5.501   1.249 -0.0338  1.0120 -0.1068
 4476TIP3    H235064   6.413   5.370   1.261 -0.9060  0.5687  0.5861
 4477TIP3   OH235065   2.411   7.061   1.096 -0.1199  0.3764 -0.0830
 4477TIP3    H135066   2.347   7.084   1.028  1.0203  1.9240 -0.6564
 4477TIP3    H235067   2.403   7.130   1.161 -0.7158 -0.7377  1.0555
 4478TIP3   OH235068   5.472   2.699   7.805  0.0446  0.7841 -0.4545
 4478TIP3    H135069   5.516   2.766   7.858 -0.3859  0.0768  0.8188
 4478TIP3    H235070   5.534   2.626   7.803 -0.7045  0.1015  0.6459
 4479TIP3   OH235071   2.125   2.494   0.037  0.3820 -0.0075  0.2479
 4479TIP3    H135072   2.073   2.573   0.050 -0.4255 -0.4367 -0.2879
 4479TIP3    H235073   2.206   2.525  -0.003  0.4216  0.6403  0.8198
 4480TIP3   OH235074   1.179   0.364   7.645  0.4382  0.1649  0.5934
 4480TIP3    H135075   1.095   0.408   7.654  1.0835  1.6143 -0.3070
 4480TIP3    H235076   1.177   0.327   7.556  1.9146  2.7894 -0.5956
 4481TIP3   OH235077   6.891   6.785   1.364  0.1620 -0.3251 -0.2095
 4481TIP3    H135078   6.834   6.805   1.439 -1.8451 -1.3835 -1.4244
 4481TIP3    H235079   6.899   6.690   1.365  1.6594 -0.2112 -0.2637
 4482TIP3   OH235080   4.592   3.025   6.798 -0.3502  0.3053  0.4087
 4482TIP3    H135081   4.549   2.970   6.863  1.6706 -1.7136  0.1079
 4482TIP3    H235082   4.681   3.038   6.832  0.5202 -0.2107 -1.5653
 4483TIP3   OH235083   5.594   0.785   6.678  0.8752 -0.4003 -0.2130
 4483TIP3    H135084   5.673   0.740   6.647  1.0968 -1.0096  1.1923
 4483TIP3    H235085   5.618   0.877   6.680  0.9123 -0.3595 -1.6467
 4484TIP3   OH235086   5.136   2.350   1.066  0.0038  0.4612  0.0088
 4484TIP3    H135087   5.211   2.291   1.077 -0.5563 -0.3482 -0.4048
 4484TIP3    H235088   5.072   2.319   1.130 -0.3975  0.4393 -0.3957
 4485TIP3   OH235089   4.989   1.699   0.679 -0.5261  0.0968  0.0437
 4485TIP3    H135090   5.006   1.698   0.585 -0.0664  0.5676  0.1219
 4485TIP3    H235091   5.022   1.615   0.710 -0.7272 -0.0825 -0.2189
 4486TIP3   OH235092   1.692   0.658   1.268  0.0787  0.2270  0.3647
 4486TIP3    H135093   1.663   0.567   1.271 -1.4010  0.7100  1.2659
 4486TIP3    H235094   1.786   0.654   1.282 -0.1559 -1.0921  1.6570
 4487TIP3   OH235095   3.578   1.294   7.323  0.0440  0.3330  0.0549
 4487TIP3    H135096   3.647   1.268   7.384 -0.8009  2.0829  1.8259
 4487TIP3    H235097   3.623   1.348   7.258  0.5832  0.3170  0.4099
 4488TIP3   OH235098   5.531   2.133   0.456 -0.0387 -0.1859 -0.1314
 4488TIP3    H135099   5.520   2.116   0.550 -0.0007  2.9459  0.5088
 4488TIP3    H235100   5.441   2.141   0.423 -0.0348  1.0281  0.1305
 4489TIP3   OH235101   2.502   7.070   6.634  0.3737  0.2606 -0.4260
 4489TIP3    H135102   2.571   7.007   6.615 -0.5229 -0.2680 -2.1091
 4489TIP3    H235103   2.462   7.088   6.548 -1.6888  0.3925  0.5220
 4490TIP3   OH235104   6.942   0.963   1.958 -0.4003 -0.2026 -0.0551
 4490TIP3    H135105   6.900   0.888   1.918  1.0195  0.3017 -2.5753
 4490TIP3    H235106   6.906   0.966   2.047 -1.9681 -2.6337 -0.5651
 4491TIP3   OH235107   2.852   1.036   7.522 -0.1944  0.0072  0.1562
 4491TIP3    H135108   2.779   1.035   7.459  0.2538  1.9818 -0.4155
 4491TIP3    H235109   2.928   1.061   7.470  0.4217  0.4643  1.2673
 4492TIP3   OH235110   3.736   6.656   1.104 -0.9056  0.4091 -0.3948
 4492TIP3    H135111   3.750   6.681   1.013 -0.6063  0.6453 -0.2820
 4492TIP3    H235112   3.801   6.705   1.153  0.5341 -1.5332 -0.2972
 4493TIP3   OH235113   1.151   0.575   0.062  0.3677  0.1112 -0.1027
 4493TIP3    H135114   1.131   0.601   0.152 -0.2214  1.5456 -0.6319
 4493TIP3    H235115   1.087   0.507   0.042  0.0592  0.2721  0.3236
 4494TIP3   OH235116   6.651   4.074   0.410  0.1770 -0.1323 -0.1215
 4494TIP3    H135117   6.639   4.168   0.396 -0.2252 -0.2148 -0.3384
 4494TIP3    H235118   6.605   4.055   0.492  0.1942 -0.1541 -0.1167
 4495TIP3   OH235119   6.379   2.191   1.336  0.5603  1.2425 -0.6399
 4495TIP3    H135120   6.361   2.178   1.429 -1.6526  0.7594 -1.1017
 4495TIP3    H235121   6.371   2.286   1.324  4.0575  1.7238  0.2444
 4496TIP3   OH235122   5.118   4.894   2.173  0.1179  0.1665  0.0045
 4496TIP3    H135123   5.197   4.947   2.182  0.2720  0.4314 -2.5817
 4496TIP3    H235124   5.060   4.947   2.118 -0.7663 -1.2287 -0.4266
 4497TIP3   OH235125   5.393   1.073   6.300  0.1350  0.4371  0.2298
 4497TIP3    H135126   5.329   1.118   6.356  0.4525  1.3519 -0.1203
 4497TIP3    H235127   5.364   0.982   6.298  0.8525  0.1097  2.9573
 4498TIP3   OH235128   5.084   0.571   0.292  0.7246  0.5579  0.2749
 4498TIP3    H135129   5.030   0.600   0.219  0.3683  1.6017  0.9406
 4498TIP3    H235130   5.122   0.488   0.262 -0.3206  0.3898 -0.6464
 4499TIP3   OH235131   4.903   0.992   7.685 -0.3187  0.0177  0.2435
 4499TIP3    H135132   4.839   1.050   7.644  1.8891  1.9511 -0.5720
 4499TIP3    H235133   4.927   1.037   7.766 -0.4671 -1.0178  0.8712
 4500TIP3   OH235134   0.794   6.719   1.643 -0.0666  0.5421  0.6716
 4500TIP3    H135135   0.861   6.778   1.678  0.1330  0.5227  0.3270
 4500TIP3    H235136   0.843   6.652   1.595 -0.4010  1.3739 -0.8520
 4501TIP3   OH235137   3.654   4.433   7.864 -0.8811  0.3341  0.2048
 4501TIP3    H135138   3.581   4.457   7.807  0.5437  1.5562 -1.1538
 4501TIP3    H235139   3.630   4.470   7.949 -3.0813 -1.6075  0.4837
 4502TIP3   OH235140   4.070   2.059   0.428 -0.3527  0.7295  0.0005
 4502TIP3    H135141   4.058   2.119   0.354  2.7110  0.1483 -1.0567
 4502TIP3    H235142   4.092   2.115   0.502 -1.4541  1.1626  0.0134
 4503TIP3   OH235143   0.234   6.540   0.826 -0.4885 -0.2129  0.3071
 4503TIP3    H135144   0.218   6.446   0.839 -0.7765 -0.1845  0.1597
 4503TIP3    H235145   0.307   6.543   0.764 -0.5986 -0.3428  0.1680
 4504TIP3   OH235146   6.250   7.112   2.340 -0.5022 -0.1323 -0.3835
 4504TIP3    H135147   6.314   7.043   2.322 -2.7497 -1.7449 -2.3622
 4504TIP3    H235148   6.230   7.103   2.433  2.7401  0.9642  0.4928
 4505TIP3   OH235149   5.539   0.730   1.134 -0.0415 -0.0835  0.2833
 4505TIP3    H135150   5.635   0.735   1.137 -0.0513 -0.1673  0.7349
 4505TIP3    H235151   5.517   0.756   1.045  0.2317  2.3133  0.8935
 4506TIP3   OH235152   5.693   6.637   2.054 -0.7838  0.1303 -0.0953
 4506TIP3    H135153   5.689   6.722   2.097 -0.6876  0.0447  0.0811
 4506TIP3    H235154   5.784   6.610   2.061 -0.9630 -0.3235  0.4943
 4507TIP3   OH235155   4.171   1.483   0.691  0.0738 -0.1348 -0.1821
 4507TIP3    H135156   4.122   1.519   0.618  0.8600 -0.3616 -0.8197
 4507TIP3    H235157   4.104   1.455   0.753 -0.5494  1.7611  0.0098
 4508TIP3   OH235158   0.755   5.946   2.070  0.1313  0.2529  0.6131
 4508TIP3    H135159   0.823   5.888   2.103  0.5254  0.7901  0.7511
 4508TIP3    H235160   0.674   5.897   2.082  0.8119 -2.0318 -3.1125
 4509TIP3   OH235161   3.573   0.448   6.932  0.4535  0.0023  0.4919
 4509TIP3    H135162   3.664   0.478   6.937  0.1090  1.5801 -2.1156
 4509TIP3    H235163   3.540   0.461   7.021  2.8253 -0.8522  1.5614
 4510TIP3   OH235164   3.137   3.980   1.611  0.0967 -0.2737 -0.2184
 4510TIP3    H135165   3.126   4.014   1.522  2.9871  2.8668  0.5290
 4510TIP3    H235166   3.052   3.994   1.653 -0.8122 -0.3251 -1.9903
 4511TIP3   OH235167   2.801   3.213   6.504  0.6631  0.3019  0.2991
 4511TIP3    H135168   2.718   3.170   6.482  0.9470 -0.3292  0.4498
 4511TIP3    H235169   2.775   3.298   6.539 -0.0641 -0.9222  2.8696
 4512TIP3   OH235170   4.997   0.566   0.897 -0.2795  0.0938 -0.4937
 4512TIP3    H135171   5.032   0.548   0.984  2.3210  2.0574 -1.0459
 4512TIP3    H235172   5.073   0.557   0.839 -2.0083 -1.3642 -2.6028
 4513TIP3   OH235173   6.170   2.719   1.241 -0.3094 -0.3737  0.5890
 4513TIP3    H135174   6.174   2.800   1.190 -0.5867  0.1158  1.3371
 4513TIP3    H235175   6.147   2.748   1.329  1.5582 -1.0496  1.3292
 4514TIP3   OH235176   3.080   2.712   7.811 -0.0777 -0.0671 -0.5662
 4514TIP3    H135177   3.142   2.783   7.823 -2.7813  2.0292  1.6245
 4514TIP3    H235178   3.022   2.742   7.741 -0.5486 -0.6575 -0.4362
 4515TIP3   OH235179   2.521   0.824   1.759 -0.0559 -0.3659 -0.4204
 4515TIP3    H135180   2.445   0.775   1.790  0.7015 -1.0961  0.2996
 4515TIP3    H235181   2.540   0.887   1.828  0.0928 -0.2903 -0.5286
 4516TIP3   OH235182   3.040   6.102   1.025 -0.1394 -0.2045 -0.1697
 4516TIP3    H135183   3.126   6.105   0.983 -0.5294  0.2593 -0.9484
 4516TIP3    H235184   3.002   6.188   1.007  0.1488  0.4192  2.1388
 4517TIP3   OH235185   3.122   1.113   7.674  0.1557 -0.3783  0.1884
 4517TIP3    H135186   3.109   1.151   7.587 -0.6526  1.0241  0.9071
 4517TIP3    H235187   3.212   1.082   7.673  0.4740  0.5549 -0.7955
 4518TIP3   OH235188   4.799   3.662   0.600  0.4248  0.1498 -0.0191
 4518TIP3    H135189   4.805   3.712   0.682 -0.2038  0.8380 -0.3818
 4518TIP3    H235190   4.705   3.643   0.590  0.5612 -0.3796 -0.3164
 4519TIP3   OH235191   1.248   7.114   0.608 -0.4899 -0.0370  0.0324
 4519TIP3    H135192   1.261   7.135   0.515 -1.5705 -0.7154 -0.2833
 4519TIP3    H235193   1.167   7.064   0.610  0.6735 -1.9393  1.0773
 4520TIP3   OH235194   5.907   5.788   0.549 -0.0178  0.3190  0.4049
 4520TIP3    H135195   5.963   5.864   0.531  0.5361 -0.5216 -1.5229
 4520TIP3    H235196   5.968   5.721   0.581 -0.1901 -0.0058  0.0542
 4521TIP3   OH235197   1.973   2.284   0.834  0.6745 -0.7772 -0.1738
 4521TIP3    H135198   1.986   2.249   0.746  0.2016 -0.2368 -0.4580
 4521TIP3    H235199   1.901   2.232   0.870 -0.4795  0.3142 -0.8381
 4522TIP3   OH235200   4.932   2.977   6.331 -0.3774 -0.1320 -0.6153
 4522TIP3    H135201   4.972   3.034   6.397 -0.3819 -0.5336 -0.2692
 4522TIP3    H235202   4.871   3.035   6.284  0.8424  0.5775 -1.3802
 4523TIP3   OH235203   0.443   1.431   7.802 -0.2088 -0.2640 -0.5028
 4523TIP3    H135204   0.405   1.386   7.877 -0.8394  1.8790  0.5105
 4523TIP3    H235205   0.514   1.484   7.838 -1.2550  1.6812 -1.1972
 4524TIP3   OH235206   6.955   0.533   6.972  0.1801  0.0518 -0.2517
 4524TIP3    H135207   6.996   0.537   7.058  0.3929  1.5520 -0.4057
 4524TIP3    H235208   6.924   0.622   6.956 -1.4308 -0.6150 -0.9771
 4525TIP3   OH235209   1.339   5.559   1.322 -0.5236  0.0222  0.4387
 4525TIP3    H135210   1.398   5.634   1.327 -1.3869  0.5982  2.1438
 4525TIP3    H235211   1.354   5.510   1.403 -0.9940 -0.8771 -0.0052
 4526TIP3   OH235212   6.483   0.483   7.399 -0.2564  0.4039 -0.8381
 4526TIP3    H135213   6.567   0.519   7.425 -0.7257  0.2389  0.9446
 4526TIP3    H235214   6.481   0.494   7.304  1.9813 -0.0651 -0.9734
 4527TIP3   OH235215   5.135   2.502   1.537  0.5452 -0.0851 -0.1316
 4527TIP3    H135216   5.182   2.478   1.617  0.3179 -0.3349 -0.0715
 4527TIP3    H235217   5.167   2.589   1.515  0.2713  0.1787  0.4945
 4528TIP3   OH235218   5.720   3.813   0.118 -0.7659  0.7111  0.3261
 4528TIP3    H135219   5.748   3.873   0.049 -0.1598  0.2585  0.1734
 4528TIP3    H235220   5.678   3.740   0.071  0.8046 -0.2275  0.3378
 4529TIP3   OH235221   4.631   4.459   1.632 -0.3193  0.4026 -0.0831
 4529TIP3    H135222   4.630   4.382   1.575 -0.8083  1.0958 -1.0228
 4529TIP3    H235223   4.568   4.438   1.701 -2.1029  0.8246 -1.5274
 4530TIP3   OH235224   6.587   0.291   0.979 -0.7440 -0.0248  0.4906
 4530TIP3    H135225   6.632   0.214   1.014 -1.5852 -0.2591  1.0710
 4530TIP3    H235226   6.624   0.302   0.891 -1.2543 -1.6346  0.0524
 4531TIP3   OH235227   6.552   1.763   0.250 -0.0611  0.4610 -0.0804
 4531TIP3    H135228   6.561   1.668   0.248 -1.1256  0.3084  1.4651
 4531TIP3    H235229   6.531   1.783   0.342 -0.9230  2.0760 -0.6144
 4532TIP3   OH235230   6.449   1.464   8.022 -0.4769 -0.1178  0.1791
 4532TIP3    H135231   6.436   1.372   7.997  3.9853 -0.7688 -0.2139
 4532TIP3    H235232   6.480   1.461   8.112  0.9818  0.8555 -0.2641
 4533TIP3   OH235233   1.796   0.378   7.981 -0.0521  0.4649 -0.4660
 4533TIP3    H135234   1.835   0.313   7.924  0.6524  1.5087 -1.1851
 4533TIP3    H235235   1.756   0.327   8.052  1.8078 -0.6520 -0.2002
 4534TIP3   OH235236   4.773   0.443   7.795  0.0825  0.6154  0.0871
 4534TIP3    H135237   4.705   0.402   7.742 -1.4974  0.3514  2.2637
 4534TIP3    H235238   4.780   0.387   7.872  2.8477  0.6012 -0.1098
 4535TIP3   OH235239   5.186   0.645   7.471 -0.5645  1.0873 -0.1650
 4535TIP3    H135240   5.167   0.689   7.554  1.4126  2.4546 -0.4073
 4535TIP3    H235241   5.165   0.553   7.487 -1.0106  1.4747  1.5825
 4536TIP3   OH235242   1.030   5.548   7.618  0.2432  0.2363  0.7731
 4536TIP3    H135243   1.032   5.544   7.522 -0.6376  0.9006  0.7232
 4536TIP3    H235244   0.976   5.473   7.643  0.5291  0.0231  0.7596
 4537TIP3   OH235245   0.252   0.346   6.916 -0.3258 -0.4096 -0.4641
 4537TIP3    H135246   0.283   0.344   6.826  0.9705 -1.1177 -0.0226
 4537TIP3    H235247   0.326   0.380   6.966 -0.2968 -1.9519  0.5900
 4538TIP3   OH235248   0.722   2.271   1.595 -0.0501  0.0314  0.0885
 4538TIP3    H135249   0.702   2.341   1.658 -0.3994 -0.6617  0.7604
 4538TIP3    H235250   0.800   2.301   1.549 -1.0337  1.5262 -0.6305
 4539TIP3   OH235251   4.088   6.331   0.892 -0.2888  0.1803 -0.5366
 4539TIP3    H135252   4.012   6.292   0.848  0.9272 -1.1667 -1.4982
 4539TIP3    H235253   4.147   6.356   0.820  0.7843 -0.0778  0.2407
 4540TIP3   OH235254   6.020   2.363   7.668 -0.2823 -0.1162  0.1077
 4540TIP3    H135255   5.959   2.297   7.700 -1.9170  0.7846 -1.0777
 4540TIP3    H235256   6.014   2.434   7.731 -0.2762 -0.1304  0.1243
 4541TIP3   OH235257   6.979   6.309   6.678  0.3237  0.3483 -0.2464
 4541TIP3    H135258   7.064   6.283   6.643  0.2644 -1.9664  1.2653
 4541TIP3    H235259   6.915   6.274   6.616  0.3649 -0.6480  0.2628
 4542TIP3   OH235260   1.328   0.985   0.852 -0.4411 -0.0764  0.7466
 4542TIP3    H135261   1.246   0.985   0.803 -1.2965 -1.6979  2.1623
 4542TIP3    H235262   1.308   1.029   0.934 -0.2862 -1.7402  1.6998
 4543TIP3   OH235263   0.420   1.187   1.113 -0.0252 -0.0119 -0.6529
 4543TIP3    H135264   0.347   1.235   1.073 -1.0099 -1.2674 -0.3869
 4543TIP3    H235265   0.415   1.210   1.206 -3.4444 -4.2245  0.3613
 4544TIP3   OH235266   1.536   0.153   7.083  0.0481 -0.1289 -0.3159
 4544TIP3    H135267   1.622   0.176   7.048 -0.2189 -1.0173 -1.5553
 4544TIP3    H235268   1.474   0.190   7.021 -0.4760  0.4587  0.5486
 4545TIP3   OH235269   5.658   6.939   0.522  0.3084  0.6077  0.1957
 4545TIP3    H135270   5.735   6.958   0.575  0.2527  2.3902 -0.3367
 4545TIP3    H235271   5.671   6.990   0.442 -0.9619  0.1492 -0.3156
 4546TIP3   OH235272   3.550   1.530   0.209  0.5291 -0.6182  0.2489
 4546TIP3    H135273   3.543   1.602   0.146  0.1881 -0.1016  0.8662
 4546TIP3    H235274   3.492   1.556   0.281  1.0885 -1.0905  0.8747
 4547TIP3   OH235275   0.211   2.121   7.504 -0.1503 -0.1944  0.9629
 4547TIP3    H135276   0.238   2.088   7.418  1.2421 -0.0885  1.3408
 4547TIP3    H235277   0.191   2.042   7.554 -0.0286 -0.3054  0.8383
 4548TIP3   OH235278   1.060   1.515   7.194 -0.0607  0.1801  0.5162
 4548TIP3    H135279   1.120   1.471   7.254 -0.2345  0.6776  1.0638
 4548TIP3    H235280   1.074   1.608   7.211 -0.7170  0.3061  0.3838
 4549TIP3   OH235281   6.042   0.741   2.303 -1.3066 -0.2134 -0.3540
 4549TIP3    H135282   6.038   0.692   2.385 -2.7990 -1.6625 -1.2590
 4549TIP3    H235283   5.970   0.804   2.309 -1.6339 -0.5528 -0.6849
 4550TIP3   OH235284   4.109   0.147   7.759  0.4057 -0.9039 -0.4556
 4550TIP3    H135285   4.075   0.206   7.826 -2.7316 -1.2052 -1.7207
 4550TIP3    H235286   4.187   0.191   7.725 -0.1439  1.0444  0.7676
 4551TIP3   OH235287   1.886   0.380   1.460 -0.5319 -0.3756  0.7056
 4551TIP3    H135288   1.913   0.436   1.387  0.9223 -0.5077  1.1255
 4551TIP3    H235289   1.882   0.439   1.535 -1.0372 -0.4399  0.7320
 4552TIP3   OH235290   6.688   5.091   1.007 -0.0291 -1.4746  0.7397
 4552TIP3    H135291   6.635   5.094   0.927  0.0875 -0.2010  0.7015
 4552TIP3    H235292   6.735   5.008   1.001 -0.3122 -1.5680 -0.3277
 4553TIP3   OH235293   1.040   6.559   0.449 -0.4397  0.1616  0.0154
 4553TIP3    H135294   1.096   6.604   0.512 -0.8633  1.2961 -0.4085
 4553TIP3    H235295   1.058   6.466   0.463  2.1549  0.5148 -0.6670
 4554TIP3   OH235296   1.788   4.610   0.635 -0.2009 -0.1240 -0.0332
 4554TIP3    H135297   1.877   4.578   0.619  0.1393  0.7692  0.0387
 4554TIP3    H235298   1.738   4.531   0.656  1.0125 -0.4077  1.8981
 4555TIP3   OH235299   6.151   3.757   1.070  0.4585  0.3571 -0.4033
 4555TIP3    H135300   6.185   3.669   1.085 -0.8135  0.1949  1.7756
 4555TIP3    H235301   6.108   3.752   0.985  2.0910 -0.5932 -1.1900
 4556TIP3   OH235302   4.074   2.988   7.805  0.2881  0.2782  0.0002
 4556TIP3    H135303   4.133   2.990   7.730  0.0250  1.4789 -0.1933
 4556TIP3    H235304   4.006   2.926   7.781  1.1265 -0.6442 -0.0362
 4557TIP3   OH235305   3.445   1.620   7.146 -0.4554 -0.2079  0.6229
 4557TIP3    H135306   3.416   1.560   7.215 -3.9205  0.4464 -0.1569
 4557TIP3    H235307   3.388   1.697   7.155 -0.7652  0.0552 -2.6558
 4558TIP3   OH235308   6.842   4.212   0.584 -0.2707  0.2840  0.0699
 4558TIP3    H135309   6.810   4.178   0.667 -0.8236 -1.7583 -0.9224
 4558TIP3    H235310   6.763   4.242   0.538 -0.3058 -1.0704 -0.7770
 4559TIP3   OH235311   6.039   4.292   1.521  0.0939 -0.7058 -0.4700
 4559TIP3    H135312   6.016   4.271   1.431 -3.7495 -1.0609  0.5029
 4559TIP3    H235313   6.019   4.385   1.530  2.7993 -0.0700 -0.6090
 4560TIP3   OH235314   5.031   5.433   2.001 -0.1549 -0.5180  0.5674
 4560TIP3    H135315   5.093   5.504   2.015  0.7019 -1.4572  1.6479
 4560TIP3    H235316   5.071   5.380   1.931 -0.7895  0.0440 -0.2351
 4561TIP3   OH235317   6.310   0.505   1.394 -0.4345  0.0930 -0.3404
 4561TIP3    H135318   6.221   0.478   1.414 -0.4303  0.3916  0.0896
 4561TIP3    H235319   6.361   0.424   1.393 -0.7800 -0.1136 -0.9426
 4562TIP3   OH235320   5.147   5.419   7.844  0.4372  0.2478 -0.6017
 4562TIP3    H135321   5.094   5.364   7.786 -1.1067  0.0089  0.9917
 4562TIP3    H235322   5.237   5.408   7.812 -0.2744 -0.5275 -2.4073
 4563TIP3   OH235323   7.099   6.754   7.095  0.0262  0.1156 -0.3107
 4563TIP3    H135324   7.103   6.698   7.018 -0.7571  0.1472 -0.3833
 4563TIP3    H235325   7.130   6.839   7.064 -0.5441  0.1987 -0.6650
 4564TIP3   OH235326   1.330   3.296   7.132 -0.3190  0.2911  0.1221
 4564TIP3    H135327   1.301   3.285   7.223 -2.3915  0.1849 -0.5155
 4564TIP3    H235328   1.335   3.207   7.097 -0.3284  0.3796 -0.1049
 4565TIP3   OH235329   3.302   4.258   0.478 -0.0792 -0.1647 -0.1646
 4565TIP3    H135330   3.260   4.189   0.529 -1.0938  0.4097 -0.2229
 4565TIP3    H235331   3.236   4.326   0.470  0.8868  0.7816 -0.1959
 4566TIP3   OH235332   0.763   2.878   1.750 -0.8225 -0.1667  0.3190
 4566TIP3    H135333   0.671   2.902   1.762 -1.0567 -1.4717  1.2539
 4566TIP3    H235334   0.765   2.830   1.667 -0.8297  0.5789 -0.1208
 4567TIP3   OH235335   1.670   2.347   7.735  0.1537  0.4063  0.4624
 4567TIP3    H135336   1.588   2.322   7.778 -0.9420  1.3115 -1.0579
 4567TIP3    H235337   1.660   2.440   7.716  1.8383  0.6898  0.9032
 4568TIP3   OH235338   2.258   1.450   0.240  0.0452 -0.5838 -0.1452
 4568TIP3    H135339   2.309   1.521   0.201 -1.4458  0.0119 -1.0660
 4568TIP3    H235340   2.287   1.447   0.331  1.2372  0.1750 -0.4913
 4569TIP3   OH235341   1.350   0.233   6.909  0.2973 -0.9261 -0.0925
 4569TIP3    H135342   1.267   0.204   6.871  0.3243  1.0516 -1.7689
 4569TIP3    H235343   1.360   0.323   6.877  2.6977 -0.8842  0.7320
 4570TIP3   OH235344   0.103   0.202   2.027 -0.2637 -0.9482  0.3675
 4570TIP3    H135345   0.050   0.188   2.106 -0.2749  0.4584  0.6340
 4570TIP3    H235346   0.190   0.173   2.052  0.2626  1.5911  1.7066
 4571TIP3   OH235347   6.899   3.257   0.923  0.5838 -0.6644  0.0641
 4571TIP3    H135348   6.912   3.329   0.862  1.1399 -0.8625 -0.0560
 4571TIP3    H235349   6.868   3.185   0.869 -2.7868  0.3141  0.6022
 4572TIP3   OH235350   4.198   2.578   2.181 -0.2231 -1.0674  0.2421
 4572TIP3    H135351   4.219   2.509   2.118 -0.3434 -2.0053  1.2077
 4572TIP3    H235352   4.246   2.553   2.260 -2.2881 -1.4380  1.4157
 4573TIP3   OH235353   7.056   3.691   0.567  0.3658 -0.1007 -0.0979
 4573TIP3    H135354   7.034   3.780   0.541 -1.5413 -0.4178  0.3325
 4573TIP3    H235355   7.068   3.643   0.485 -1.0119 -0.0083 -0.3569
 4574TIP3   OH235356   0.656   4.821   1.557  0.1292 -0.2411 -0.2184
 4574TIP3    H135357   0.605   4.835   1.637  0.5457 -0.8925  0.1622
 4574TIP3    H235358   0.660   4.908   1.517 -0.2025  0.0661  0.3912
 4575TIP3   OH235359   5.796   5.419   7.660 -0.6599  0.1181 -0.5238
 4575TIP3    H135360   5.875   5.407   7.608 -0.0119  0.1880  0.4309
 4575TIP3    H235361   5.766   5.507   7.638 -0.6186 -0.0047 -1.0766
 4576TIP3   OH235362   2.015   2.635   7.589 -0.0403  0.3072  0.0770
 4576TIP3    H135363   1.993   2.687   7.513 -1.1559  0.7056  0.6565
 4576TIP3    H235364   1.967   2.676   7.661  1.3873  0.2421  1.0885
 4577TIP3   OH235365   7.001   5.430   0.275 -0.0769  0.2195 -0.0042
 4577TIP3    H135366   6.970   5.363   0.214 -0.2975  0.3097  0.0071
 4577TIP3    H235367   6.935   5.499   0.269 -0.0000  0.3088  0.1970
 4578TIP3   OH235368   0.503   0.859   1.448 -0.6241  0.1523  1.0970
 4578TIP3    H135369   0.465   0.774   1.426  1.0981 -0.6126  0.9924
 4578TIP3    H235370   0.545   0.845   1.533  1.1783  0.3996  0.2616
 4579TIP3   OH235371   5.431   0.594   0.623 -0.3744  0.0917  0.6018
 4579TIP3    H135372   5.451   0.534   0.696 -2.1654 -0.3627  0.7522
 4579TIP3    H235373   5.449   0.681   0.658 -0.7260 -0.1586  1.4307
 4580TIP3   OH235374   6.258   0.047   0.537 -0.1297  0.6994  0.4578
 4580TIP3    H135375   6.237   0.057   0.630  0.4559 -0.2082  0.6976
 4580TIP3    H235376   6.288  -0.044   0.530  1.4259  1.2634 -0.3049
 4581TIP3   OH235377   5.293   0.896   0.295  0.0940  0.1203  0.1152
 4581TIP3    H135378   5.230   0.894   0.368 -2.6331 -0.4090 -2.1585
 4581TIP3    H235379   5.352   0.823   0.312 -0.9289 -0.4126  1.4565
 4582TIP3   OH235380   1.154   3.802   2.210 -0.0410 -0.0312  0.1908
 4582TIP3    H135381   1.137   3.708   2.198 -0.9137 -0.0626  1.6263
 4582TIP3    H235382   1.172   3.834   2.121 -0.0576 -1.4848 -0.3587
 4583TIP3   OH235383   3.787   4.451   1.011  0.0659  0.2252  0.4952
 4583TIP3    H135384   3.772   4.398   0.933 -1.3193  0.5694  0.5283
 4583TIP3    H235385   3.772   4.541   0.983  1.3680  0.5303  0.7113
 4584TIP3   OH235386   0.173   1.557   7.823  0.2164 -0.0327  0.1202
 4584TIP3    H135387   0.124   1.499   7.881  1.0048  0.0729  0.9040
 4584TIP3    H235388   0.246   1.504   7.791  1.0124  0.5360  0.9407
 4585TIP3   OH235389   2.962   5.411   0.879  0.2737  0.6765 -0.1596
 4585TIP3    H135390   2.890   5.460   0.840  0.5523  0.7068 -0.6440
 4585TIP3    H235391   2.925   5.325   0.899  0.3193  0.4308 -1.1393
 4586TIP3   OH235392   1.199   4.755   0.624 -0.4970 -0.3349 -0.2345
 4586TIP3    H135393   1.117   4.801   0.642 -0.2828  0.5948 -1.5723
 4586TIP3    H235394   1.245   4.756   0.709 -1.1191  0.6701  0.1099
 4587TIP3   OH235395   3.918   1.290   8.110 -0.6825  0.4086 -0.2407
 4587TIP3    H135396   3.962   1.312   8.192  1.1701  0.1905 -1.1620
 4587TIP3    H235397   3.930   1.195   8.101  1.2066  0.7856 -1.9445
 4588TIP3   OH235398   3.356   1.429   1.128  0.0483 -0.4836  0.0019
 4588TIP3    H135399   3.313   1.348   1.154  0.1319 -0.0749  1.4732
 4588TIP3    H235400   3.445   1.422   1.165  0.1880  0.0894 -0.2178
 4589TIP3   OH235401   4.425   4.385   1.152  0.7341 -0.1407 -0.8790
 4589TIP3    H135402   4.509   4.388   1.198  1.4124 -1.8803 -1.9324
 4589TIP3    H235403   4.375   4.316   1.196  0.6942 -0.5669 -1.5658
 4590TIP3   OH235404   5.198   2.626   0.234  0.6379 -0.0251 -0.0213
 4590TIP3    H135405   5.266   2.592   0.176  1.1125 -2.3509  1.8350
 4590TIP3    H235406   5.246   2.661   0.309 -0.1715 -1.8336  1.3761
 4591TIP3   OH235407   1.939   3.373   2.167 -0.4398 -0.1567  0.1903
 4591TIP3    H135408   1.846   3.354   2.156 -0.6554 -0.7471  2.6524
 4591TIP3    H235409   1.985   3.294   2.138 -0.7328 -0.0152 -0.6464
 4592TIP3   OH235410   5.663   2.683   1.597 -0.5059  0.0090  0.0484
 4592TIP3    H135411   5.596   2.650   1.657 -0.5012  0.7464  0.4661
 4592TIP3    H235412   5.639   2.774   1.582  0.2782  0.2147  0.0334
 4593TIP3   OH235413   2.248   3.442   2.544 -0.1304  0.1750  0.1419
 4593TIP3    H135414   2.190   3.494   2.488  0.2575  0.7243  0.2509
 4593TIP3    H235415   2.188   3.392   2.599 -0.5099  0.5045  0.0361
 4594TIP3   OH235416   2.203   3.787   2.242  0.0857  0.3124  0.3072
 4594TIP3    H135417   2.263   3.850   2.202 -1.3540  0.8673 -1.0235
 4594TIP3    H235418   2.122   3.795   2.192 -0.6822 -1.3859  1.2126
 4595TIP3   OH235419   5.046   6.315   7.165  0.1124 -0.4052  0.5028
 4595TIP3    H135420   5.074   6.294   7.076  0.2989 -2.2109  0.9803
 4595TIP3    H235421   5.076   6.405   7.179  1.9229 -0.8366 -0.5028
 4596TIP3   OH235422   3.942   3.698   7.997 -0.0056 -0.0344 -0.2520
 4596TIP3    H135423   3.868   3.662   7.947  0.4032 -0.8539 -0.2807
 4596TIP3    H235424   3.993   3.746   7.932 -1.7423  2.5762  0.2000
 4597TIP3   OH235425   0.111   4.930   7.936  0.3474  0.2953  0.0134
 4597TIP3    H135426   0.034   4.986   7.944  0.6653  0.9388 -1.4334
 4597TIP3    H235427   0.148   4.928   8.025 -0.8973  0.5825  0.5541
 4598TIP3   OH235428   5.513   2.470   0.489 -0.3306 -0.0575  0.5021
 4598TIP3    H135429   5.445   2.431   0.544 -0.3378  2.3074  2.3058
 4598TIP3    H235430   5.513   2.563   0.515  1.8972  0.4573 -1.2219
 4599TIP3   OH235431   6.885   2.676   0.776  0.0774 -0.2836 -0.1613
 4599TIP3    H135432   6.808   2.643   0.729 -2.0231  0.9548  2.3587
 4599TIP3    H235433   6.850   2.716   0.855  3.0795  2.9302 -0.3638
 4600TIP3   OH235434   2.925   5.294   1.959  0.5436 -0.0463  1.3037
 4600TIP3    H135435   2.924   5.210   2.005  0.4804 -0.5647  0.3769
 4600TIP3    H235436   2.839   5.331   1.975  0.8051  0.1457  2.2678
 4601TIP3   OH235437   2.442   4.132   8.063  0.0345 -0.0626  0.1971
 4601TIP3    H135438   2.423   4.215   8.108 -1.5187  0.2278 -0.9349
 4601TIP3    H235439   2.393   4.067   8.113  1.9235 -0.4425  1.5832
 4602TIP3   OH235440   5.237   4.435   0.273 -0.7298 -0.0974  0.1557
 4602TIP3    H135441   5.214   4.399   0.187 -0.6227  2.2259 -0.8832
 4602TIP3    H235442   5.331   4.451   0.268 -0.5600 -0.7715  1.0417
 4603TIP3   OH235443   6.651   4.051   2.196  0.2343 -0.1937 -0.4512
 4603TIP3    H135444   6.579   4.009   2.149 -0.2821 -0.0002  0.1666
 4603TIP3    H235445   6.724   3.989   2.187 -0.2641 -0.8057 -0.3137
 4604TIP3   OH235446   6.961   1.805   6.870 -0.3309  0.0615 -0.3853
 4604TIP3    H135447   6.868   1.780   6.866 -0.3185 -0.0343 -0.0755
 4604TIP3    H235448   6.991   1.771   6.954  0.0523 -0.1323 -0.6032
 4605TIP3   OH235449   5.978   3.741   0.208 -0.7534  0.1066 -0.2642
 4605TIP3    H135450   6.005   3.825   0.246 -3.1072 -0.0080  1.7882
 4605TIP3    H235451   5.890   3.757   0.175 -0.7971 -1.2759 -0.8508
 4606TIP3   OH235452   1.850   2.970   6.735  0.4024 -0.5678 -0.3497
 4606TIP3    H135453   1.809   3.056   6.729  0.5905 -0.4294  0.3485
 4606TIP3    H235454   1.796   2.914   6.678 -1.2641 -0.5758  1.1936
 4607TIP3   OH235455   0.106   3.781   1.511  0.1210  0.2960 -0.0558
 4607TIP3    H135456   0.088   3.874   1.520  1.2619  0.5678 -0.5055
 4607TIP3    H235457   0.100   3.747   1.600  0.8408  1.0179  0.2783
 4608TIP3   OH235458   6.885   3.105   1.395  0.4902 -0.3014  0.0669
 4608TIP3    H135459   6.963   3.115   1.450 -0.0053 -1.2306  0.9636
 4608TIP3    H235460   6.838   3.031   1.434 -1.3318  0.8479  0.1296
 4609TIP3   OH235461   2.558   2.103   2.006 -0.4209 -0.5639 -0.6975
 4609TIP3    H135462   2.582   2.174   1.945  2.0352  0.4774  1.3640
 4609TIP3    H235463   2.531   2.148   2.086 -3.4221 -1.9236 -0.8747
 4610TIP3   OH235464   4.729   3.257   2.197 -0.4054 -0.4431  0.3267
 4610TIP3    H135465   4.774   3.327   2.244 -3.2440 -0.0547  2.5693
 4610TIP3    H235466   4.797   3.191   2.181  2.2377  2.6320 -1.5721
 4611TIP3   OH235467   4.681   3.539   1.966 -0.1627 -0.0105 -0.2420
 4611TIP3    H135468   4.605   3.508   1.917  1.5851 -0.1954 -2.9547
 4611TIP3    H235469   4.659   3.629   1.992 -2.0559 -0.7277  0.7480
 4612TIP3   OH235470   4.732   0.211   7.342 -0.0815  0.2555 -0.6910
 4612TIP3    H135471   4.678   0.134   7.356 -0.3915  0.7804  1.0311
 4612TIP3    H235472   4.670   0.284   7.339  0.0861  0.3641 -3.4058
 4613TIP3   OH235473   6.672   0.893   8.027 -0.1824  0.3460 -0.4597
 4613TIP3    H135474   6.763   0.911   8.007  0.0544 -1.5813 -1.1381
 4613TIP3    H235475   6.674   0.817   8.085 -1.4192 -0.4221 -1.3979
 4614TIP3   OH235476   2.230   0.997   1.229 -0.1098 -0.2556 -0.3702
 4614TIP3    H135477   2.211   1.065   1.293  0.9397 -1.7553  1.6107
 4614TIP3    H235478   2.303   1.031   1.178  0.6924 -0.0654  0.8979
 4615TIP3   OH235479   2.713   1.422   2.222  0.2949  0.1815  0.2420
 4615TIP3    H135480   2.795   1.418   2.172  0.5699  0.6919  0.6476
 4615TIP3    H235481   2.681   1.332   2.222  1.4387 -0.2488  1.0530
 4616TIP3   OH235482   1.296   4.699   5.616  0.0859  0.1539  0.0480
 4616TIP3    H135483   1.239   4.711   5.539  1.1773  1.4892 -0.5626
 4616TIP3    H235484   1.236   4.673   5.686 -1.2658  1.4090 -0.6235
 4617TIP3   OH235485   0.392   1.840   1.715  0.1431 -0.4168  0.1614
 4617TIP3    H135486   0.319   1.820   1.773 -0.0227 -0.0057  0.0980
 4617TIP3    H235487   0.414   1.931   1.736 -0.2273 -0.1136 -0.7584
 4618TIP3   OH235488   1.819   1.389   1.445 -0.3673 -0.4352 -0.1501
 4618TIP3    H135489   1.894   1.441   1.474 -2.3561  1.0926  2.4713
 4618TIP3    H235490   1.788   1.433   1.366 -0.5530  0.9625  0.6844
 4619TIP3   OH235491   0.323   1.018   0.509  0.5351  0.4903  0.1628
 4619TIP3    H135492   0.305   1.028   0.416 -0.0213  0.6732  0.2865
 4619TIP3    H235493   0.238   0.994   0.547  1.3956 -2.9273  0.1407
 4620TIP3   OH235494   1.722   6.697   0.518  0.2497 -0.6964  0.1512
 4620TIP3    H135495   1.732   6.604   0.498  2.7908 -0.4357  0.0665
 4620TIP3    H235496   1.757   6.742   0.441  0.2171  0.3395  0.7281
 4621TIP3   OH235497   7.084   2.638   1.981 -0.7444 -0.1299 -0.1145
 4621TIP3    H135498   7.118   2.696   2.050  0.6757 -0.1579 -0.7690
 4621TIP3    H235499   7.000   2.607   2.015 -2.0240  3.0828 -0.1491
 4622TIP3   OH235500   2.433   3.443   2.357 -0.1281 -0.0331  0.4043
 4622TIP3    H135501   2.379   3.415   2.431  0.9598 -3.0541  0.1406
 4622TIP3    H235502   2.505   3.492   2.396 -0.1546 -0.6668  1.2597
 4623TIP3   OH235503   0.143   0.471   1.903  0.5917 -0.5126 -0.2022
 4623TIP3    H135504   0.092   0.402   1.860 -0.5336  1.3093 -1.8896
 4623TIP3    H235505   0.111   0.472   1.993 -0.3186 -1.2904 -0.5077
 4624TIP3   OH235506   5.842   0.366   0.507  0.0597 -0.3051  0.6425
 4624TIP3    H135507   5.801   0.382   0.591 -0.3730 -1.2761  0.6239
 4624TIP3    H235508   5.775   0.391   0.442  0.3563  0.3494  0.5800
 4625TIP3   OH235509   4.241   0.981   0.241  0.2151 -0.5288 -0.1162
 4625TIP3    H135510   4.179   1.020   0.302 -0.7582  0.4128 -1.6863
 4625TIP3    H235511   4.288   0.915   0.293 -0.0921  0.7523  1.8052
 4626TIP3   OH235512   1.697   5.532   7.170 -0.4892  0.7514 -0.6563
 4626TIP3    H135513   1.680   5.462   7.106  0.7629 -0.3310  0.1765
 4626TIP3    H235514   1.616   5.536   7.221 -0.4921 -0.2559 -0.5584
 4627TIP3   OH235515   4.357   7.120   1.061 -0.5456 -0.6866  0.0926
 4627TIP3    H135516   4.388   7.173   0.988  1.1518 -1.5955  0.1413
 4627TIP3    H235517   4.307   7.181   1.115 -0.4794  0.3440 -0.9921
 4628TIP3   OH235518   6.549   2.766   1.920 -0.6484  0.0169 -0.2789
 4628TIP3    H135519   6.573   2.692   1.976 -2.1902 -1.3084 -1.3189
 4628TIP3    H235520   6.563   2.843   1.975  0.0854 -1.1131  1.1501
 4629TIP3   OH235521   6.094   1.630   7.736  0.1823 -0.0413  0.5121
 4629TIP3    H135522   6.107   1.568   7.807  2.2273 -0.2686 -0.0215
 4629TIP3    H235523   6.172   1.686   7.738 -0.4617  0.9145 -0.5653
 4630TIP3   OH235524   0.450   0.395   0.495  0.1566  0.0048  0.2483
 4630TIP3    H135525   0.369   0.436   0.527  0.6422  0.5820  0.7570
 4630TIP3    H235526   0.431   0.373   0.404 -0.3420  0.7742  0.1571
 4631TIP3   OH235527   0.521   1.359   0.310  0.5003  0.0482 -0.3191
 4631TIP3    H135528   0.482   1.419   0.248 -0.7514 -1.3207 -0.8814
 4631TIP3    H235529   0.585   1.309   0.259 -0.1293 -0.6921 -0.3944
 4632TIP3   OH235530   3.902   4.029   6.917  0.1597 -0.0986  0.2452
 4632TIP3    H135531   3.939   4.013   6.830 -0.1314  0.6589 -0.0216
 4632TIP3    H235532   3.809   4.043   6.902  0.2294  0.8137  0.5718
 4633TIP3   OH235533   2.743   3.391   1.170  0.7114 -0.3482  0.5525
 4633TIP3    H135534   2.783   3.436   1.245  0.4661  1.3520 -0.3156
 4633TIP3    H235535   2.800   3.412   1.096 -1.3125  1.4150 -0.5370
 4634TIP3   OH235536   1.535   0.146   1.146  0.3395  0.5141  0.6680
 4634TIP3    H135537   1.520   0.179   1.057 -0.7992  1.7191  1.2966
 4634TIP3    H235538   1.599   0.207   1.183 -0.0422  0.6886  1.0490
 4635TIP3   OH235539   4.296   5.830   7.809  0.3188  0.0767 -0.2193
 4635TIP3    H135540   4.247   5.909   7.830 -0.6233 -0.1515 -1.4660
 4635TIP3    H235541   4.229   5.767   7.781  0.8261 -1.8190  2.6311
 4636TIP3   OH235542   0.184   4.516   6.754  0.5800  0.3600  0.1600
 4636TIP3    H135543   0.218   4.436   6.715  0.1074  0.2832 -0.1001
 4636TIP3    H235544   0.261   4.570   6.769  0.7278  0.6165 -1.4001
 4637TIP3   OH235545   1.265   2.542   1.326  0.0304 -0.0968  0.0565
 4637TIP3    H135546   1.351   2.578   1.303  0.0138  0.0546  0.2285
 4637TIP3    H235547   1.217   2.616   1.363 -0.1055 -0.2270  0.1420
 4638TIP3   OH235548   2.879   0.500   0.631  0.3283 -0.1733  0.0039
 4638TIP3    H135549   2.841   0.434   0.689  0.1770 -0.0927 -0.0012
 4638TIP3    H235550   2.937   0.451   0.572  1.2645 -0.1225  0.8809
 4639TIP3   OH235551   0.283   0.747   6.822  0.2607 -0.2997  0.3831
 4639TIP3    H135552   0.295   0.763   6.916  0.0157  1.0078  0.2002
 4639TIP3    H235553   0.198   0.705   6.815  1.1894 -2.2980  0.9389
 4640TIP3   OH235554   3.668   3.680   0.448 -0.1499  0.3260 -0.3814
 4640TIP3    H135555   3.685   3.766   0.411 -1.7259  0.3509 -1.1227
 4640TIP3    H235556   3.635   3.629   0.374  0.1223 -0.7088  0.2018
 4641TIP3   OH235557   1.107   5.399   1.390 -0.8167  0.2321  0.0361
 4641TIP3    H135558   1.115   5.408   1.295 -2.3429 -0.3551 -0.1710
 4641TIP3    H235559   1.129   5.307   1.408 -0.2124  0.4278  0.2809
 4642TIP3   OH235560   1.201   1.965   1.673 -0.3953 -0.2907  0.0466
 4642TIP3    H135561   1.248   2.034   1.720  0.9231 -1.6786  0.8324
 4642TIP3    H235562   1.149   2.011   1.607  0.1057  1.4681  0.8557
 4643TIP3   OH235563   5.450   2.985   0.733 -0.4052 -0.1527 -0.3317
 4643TIP3    H135564   5.432   3.001   0.640 -0.5293 -0.6363 -0.3918
 4643TIP3    H235565   5.415   3.062   0.778  1.7835  1.2066 -0.8991
 4644TIP3   OH235566   0.709   2.411   0.985  0.6359  0.1691 -0.2047
 4644TIP3    H135567   0.767   2.337   1.003 -0.2127 -0.0731  1.7901
 4644TIP3    H235568   0.740   2.480   1.043  0.2284  0.7306 -0.6520
 4645TIP3   OH235569   4.948   5.639   7.723 -0.0172 -0.0049  0.2036
 4645TIP3    H135570   4.987   5.697   7.657  1.6193 -1.5027 -0.1943
 4645TIP3    H235571   5.023   5.590   7.758 -1.0526 -0.1838  2.2277
 4646TIP3   OH235572   5.370   5.716   8.025 -0.1731 -0.2196  0.0479
 4646TIP3    H135573   5.423   5.785   8.065  2.1783 -1.8524 -0.2229
 4646TIP3    H235574   5.393   5.719   7.933 -1.4753 -0.1582 -0.2876
 4647TIP3   OH235575   0.640   4.466   2.093 -0.0232  0.1639 -0.1726
 4647TIP3    H135576   0.596   4.530   2.148  0.0417 -0.6632  0.8563
 4647TIP3    H235577   0.712   4.433   2.147  0.5975  0.0044 -1.0832
 4648TIP3   OH235578   5.875   4.803   6.709 -0.4546  0.2960  0.3631
 4648TIP3    H135579   5.834   4.716   6.716  0.2913 -0.1586 -0.7477
 4648TIP3    H235580   5.964   4.785   6.679 -1.2404  1.6191 -2.9518
 4649TIP3   OH235581   3.232   2.022   1.057  0.6917 -0.1524 -0.0423
 4649TIP3    H135582   3.283   1.949   1.024  1.1397  0.5329 -0.9070
 4649TIP3    H235583   3.144   1.987   1.072  0.7957 -0.7514 -0.8623
 4650TIP3   OH235584   0.118   1.048   6.767  0.7069 -0.3946  0.2370
 4650TIP3    H135585   0.142   1.140   6.774  1.6514 -0.6504  0.3602
 4650TIP3    H235586   0.097   1.035   6.674 -0.5599  0.2125  0.4246
 4651TIP3   OH235587   0.769   0.539   0.118 -0.0408 -0.1284 -0.0148
 4651TIP3    H135588   0.846   0.547   0.175 -1.5517  0.7538  1.9513
 4651TIP3    H235589   0.782   0.606   0.051  0.7626  0.1928  0.4550
 4652TIP3   OH235590   2.056   5.058   0.260  0.2476 -0.9598 -0.3695
 4652TIP3    H135591   2.087   4.983   0.309 -1.6717 -2.3644 -1.2547
 4652TIP3    H235592   1.965   5.071   0.289 -0.1632 -0.3865 -1.8493
 4653TIP3   OH235593   6.253   0.408   0.732  0.2315 -0.1467  0.5250
 4653TIP3    H135594   6.208   0.463   0.796 -0.6850  2.6543 -2.3993
 4653TIP3    H235595   6.196   0.409   0.655  2.6239 -1.1422 -1.3158
 4654TIP3   OH235596   0.886   1.115   2.150  0.7475 -0.3709  0.4869
 4654TIP3    H135597   0.815   1.105   2.087 -0.3620  1.2796  1.4406
 4654TIP3    H235598   0.959   1.152   2.100  1.2699 -2.8777 -0.6812
 4655TIP3   OH235599   1.340   2.561   1.629  0.6218 -0.0056 -0.2755
 4655TIP3    H135600   1.297   2.639   1.664  1.5233  1.0568 -1.4719
 4655TIP3    H235601   1.289   2.488   1.663 -1.7972  1.1887 -1.2296
 4656TIP3   OH235602   0.690   3.055   1.356 -0.0276 -0.5318  0.2584
 4656TIP3    H135603   0.727   3.123   1.300  1.8088 -1.3025  0.5197
 4656TIP3    H235604   0.711   2.973   1.312 -0.5136 -1.0321  0.9540
 4657TIP3   OH235605   1.322   3.008   1.019  0.0103 -0.0230 -0.2056
 4657TIP3    H135606   1.289   2.923   1.048 -1.5110  0.3679 -0.7897
 4657TIP3    H235607   1.399   2.987   0.966  0.9806 -0.9087  1.4848
 4658TIP3   OH235608   3.044   1.725   7.187  0.4204 -0.1033  0.2248
 4658TIP3    H135609   3.102   1.745   7.113 -0.9418  2.0056 -0.3022
 4658TIP3    H235610   3.100   1.733   7.264  1.5495 -1.0889 -0.4562
 4659TIP3   OH235611   1.966   0.734   1.890 -0.1812  0.0879  0.2223
 4659TIP3    H135612   1.928   0.650   1.916  0.0068 -0.1728 -0.3540
 4659TIP3    H235613   1.937   0.795   1.958  1.0000 -0.7664  1.5152
 4660TIP3   OH235614   3.847   0.349   1.134  0.0361 -0.4428 -0.4243
 4660TIP3    H135615   3.934   0.390   1.133  0.7067 -1.7471  1.2479
 4660TIP3    H235616   3.865   0.255   1.130 -1.3399 -0.7007 -0.8720
 4661TIP3   OH235617   4.966   2.324   0.165 -0.0743 -0.1754 -0.5458
 4661TIP3    H135618   4.951   2.397   0.225 -1.2744 -0.6949 -0.1902
 4661TIP3    H235619   4.878   2.292   0.144  0.4376 -1.4783 -0.7455
 4662TIP3   OH235620   6.514   3.205   1.621  0.2326  0.2691  0.1647
 4662TIP3    H135621   6.526   3.127   1.567 -0.9911 -0.7255  1.2833
 4662TIP3    H235622   6.522   3.173   1.711 -0.0371  1.4771  0.6306
 4663TIP3   OH235623   2.512   4.936   7.858  0.3688  0.6829 -0.7510
 4663TIP3    H135624   2.559   4.854   7.841 -0.0507  0.0193  1.1653
 4663TIP3    H235625   2.518   4.984   7.775  0.7781 -1.1940 -1.8539
 4664TIP3   OH235626   5.754   0.585   0.189 -0.4639  1.0019  0.0218
 4664TIP3    H135627   5.819   0.515   0.189 -1.6361 -0.1218 -2.1084
 4664TIP3    H235628   5.804   0.664   0.209  1.9129  0.4491 -3.3419
 4665TIP3   OH235629   5.726   3.547   0.808 -0.1672  0.5136  0.0710
 4665TIP3    H135630   5.665   3.600   0.757  0.2445 -0.4427 -1.4921
 4665TIP3    H235631   5.713   3.458   0.775 -1.6508 -0.5867  3.4090
 4666TIP3   OH235632   0.601   0.554   1.169 -0.2532  0.1373 -0.3252
 4666TIP3    H135633   0.610   0.649   1.178 -1.7661  0.2916 -0.3723
 4666TIP3    H235634   0.663   0.518   1.232 -1.4766  1.1785  1.5147
 4667TIP3   OH235635   0.380   6.688   0.637 -0.5234  0.3109 -0.5224
 4667TIP3    H135636   0.474   6.670   0.632 -0.6563 -0.3606 -0.6832
 4667TIP3    H235637   0.373   6.768   0.688 -0.1401 -2.1734  3.6330
 4668TIP3   OH235638   7.018   1.621   0.717  0.6032  0.0837 -0.1393
 4668TIP3    H135639   7.073   1.698   0.733 -1.1208  1.6322 -1.3997
 4668TIP3    H235640   7.008   1.580   0.803  1.4833  1.3140  0.5665
 4669TIP3   OH235641   4.481   5.373   0.855  0.0173 -0.5608  0.0946
 4669TIP3    H135642   4.517   5.285   0.873  1.9297  0.2067  0.1638
 4669TIP3    H235643   4.485   5.417   0.940 -0.2703 -0.1681 -0.0984
 4670TIP3   OH235644   1.956   6.280   0.919 -0.3186 -0.8285 -0.4567
 4670TIP3    H135645   2.020   6.212   0.938  0.2208  0.0128  0.7868
 4670TIP3    H235646   1.970   6.346   0.986  0.7431  1.6124 -3.0044
 4671TIP3   OH235647   2.534   0.634   1.454  0.0703  0.2219 -0.2182
 4671TIP3    H135648   2.500   0.618   1.543 -0.5125  0.0953 -0.4594
 4671TIP3    H235649   2.479   0.705   1.421 -1.0806 -1.1278 -1.2462
 4672TIP3   OH235650   3.644   0.131   8.025  0.5093 -0.0163  0.7895
 4672TIP3    H135651   3.615   0.216   8.058  0.5671 -0.4854  2.0984
 4672TIP3    H235652   3.564   0.086   7.999  0.6232  1.1098 -1.6099
 4673TIP3   OH235653   2.300   6.323   6.276 -0.4259  1.0052  0.1385
 4673TIP3    H135654   2.326   6.357   6.190 -1.8430 -1.3503 -1.2875
 4673TIP3    H235655   2.371   6.348   6.334  1.8415  0.4105 -2.2831
 4674TIP3   OH235656   0.767   2.272   2.391 -0.4828 -0.0214  0.1142
 4674TIP3    H135657   0.687   2.238   2.432  0.0825 -0.0979  1.1623
 4674TIP3    H235658   0.796   2.202   2.334 -0.6466 -0.3623  0.4473
 4675TIP3   OH235659   4.131   3.284   1.827  0.4578 -0.6939  0.2306
 4675TIP3    H135660   4.069   3.284   1.754  1.2816 -0.6597 -0.4802
 4675TIP3    H235661   4.076   3.284   1.905 -0.4353 -0.4202 -0.3895
 4676TIP3   OH235662   4.152   2.402   7.157 -0.3020  0.6964 -0.4979
 4676TIP3    H135663   4.152   2.405   7.061 -2.7622 -3.4708 -0.7140
 4676TIP3    H235664   4.232   2.354   7.180 -0.8955 -0.3521 -0.5953
 4677TIP3   OH235665   6.679   2.343   0.766  0.2123 -0.4444  0.5452
 4677TIP3    H135666   6.691   2.326   0.673 -0.6540 -0.8822  0.5043
 4677TIP3    H235667   6.668   2.438   0.772 -0.3278 -0.4804  0.1282
 4678TIP3   OH235668   2.854   2.251   1.353  0.2965 -0.0690  0.3615
 4678TIP3    H135669   2.882   2.336   1.387  0.4349  0.6018 -1.3687
 4678TIP3    H235670   2.758   2.256   1.353  0.3075  0.1454  0.1129
 4679TIP3   OH235671   0.862   1.442   2.003  0.3130  0.2970 -0.3195
 4679TIP3    H135672   0.833   1.428   1.912 -0.1097  0.2322 -0.1753
 4679TIP3    H235673   0.928   1.375   2.017 -2.0970 -1.9590  0.5513
 4680TIP3   OH235674   4.207   4.089   0.658 -0.2986  0.1114 -0.7599
 4680TIP3    H135675   4.184   4.001   0.687 -0.5937  0.1412 -0.9033
 4680TIP3    H235676   4.199   4.086   0.563 -0.3001  0.2915 -0.7652
 4681TIP3   OH235677   0.048   6.576   2.227 -0.0710  0.3116  0.1234
 4681TIP3    H135678  -0.029   6.627   2.202 -0.6863  0.1101  1.5568
 4681TIP3    H235679   0.122   6.634   2.210 -0.5440  0.5706 -1.0997
 4682TIP3   OH235680   0.898   1.403   5.931 -0.4399  0.3762 -0.6002
 4682TIP3    H135681   0.841   1.476   5.955 -0.3515  0.3857 -0.4177
 4682TIP3    H235682   0.848   1.325   5.954  0.4615  0.3999  1.5286
 4683TIP3   OH235683   0.969   1.728   0.931  0.0398  0.3432 -0.9328
 4683TIP3    H135684   0.909   1.660   0.961  1.4608 -0.3161  0.5478
 4683TIP3    H235685   0.998   1.698   0.845  0.3870 -0.7859 -0.4401
 4684TIP3   OH235686   2.094   5.318   0.844  0.2186  0.4408  0.1878
 4684TIP3    H135687   2.043   5.240   0.866 -1.6307  1.2395 -1.0987
 4684TIP3    H235688   2.141   5.339   0.924 -1.7993 -0.1127  1.5767
 4685TIP3   OH235689   2.306   3.423   1.012  0.0336 -0.1509 -0.1735
 4685TIP3    H135690   2.285   3.344   1.063  2.0270 -0.4624  0.2030
 4685TIP3    H235691   2.395   3.445   1.038 -0.8627  2.8655  0.5236
 4686TIP3   OH235692   1.938   2.303   0.222  0.0914  0.5851 -0.5877
 4686TIP3    H135693   1.848   2.332   0.240  1.1704  2.1363  2.5501
 4686TIP3    H235694   1.977   2.376   0.174  0.5324  1.2058  0.6802
 4687TIP3   OH235695   2.876   4.036   7.468  0.6258 -0.5604  0.1073
 4687TIP3    H135696   2.868   3.949   7.508 -1.7496 -0.6027 -0.3654
 4687TIP3    H235697   2.820   4.031   7.390  0.6772  1.3006 -0.0624
 4688TIP3   OH235698   0.945   1.558   1.663 -0.0204  0.2086  0.6999
 4688TIP3    H135699   0.914   1.613   1.735 -1.1936 -0.8550  1.0261
 4688TIP3    H235700   0.877   1.565   1.596  0.8364  0.8160 -0.1279
 4689TIP3   OH235701   0.988   3.011   5.944 -0.0937  0.3636 -0.1756
 4689TIP3    H135702   1.035   3.091   5.969  1.3396 -0.4714 -0.1774
 4689TIP3    H235703   0.919   3.042   5.885  1.9198  1.3416 -2.0861
 4690TIP3   OH235704   5.152   0.319   6.823 -0.3049 -0.0590 -0.2026
 4690TIP3    H135705   5.196   0.235   6.837  2.3726  1.5549  1.2242
 4690TIP3    H235706   5.154   0.363   6.908 -1.3396  1.6364 -1.0173
 4691TIP3   OH235707   0.908   1.228   0.415  0.1173 -0.6995 -0.0495
 4691TIP3    H135708   0.948   1.141   0.416 -0.5806 -1.0363 -0.7569
 4691TIP3    H235709   0.856   1.229   0.334  0.1102  0.3674 -0.0307
 4692TIP3   OH235710   1.620   1.981   0.483 -0.0394 -0.0087 -0.0166
 4692TIP3    H135711   1.547   1.951   0.428  0.2092 -0.9180  0.1348
 4692TIP3    H235712   1.582   1.986   0.571 -0.1222  0.2636 -0.0688
 4693TIP3   OH235713   4.261   4.687   7.611 -0.6335  0.0509  0.5053
 4693TIP3    H135714   4.235   4.779   7.622 -1.5554 -0.1985  0.4447
 4693TIP3    H235715   4.350   4.684   7.645 -1.1699  0.6366  1.9930
 4694TIP3   OH235716   1.578   4.936   1.294  0.2594  1.0125 -0.3223
 4694TIP3    H135717   1.623   5.019   1.311  0.7194  0.5831  0.5982
 4694TIP3    H235718   1.564   4.898   1.380  1.3315 -0.5417 -0.7936
 4695TIP3   OH235719   0.627   1.991   2.644 -0.2485 -0.2030 -0.1270
 4695TIP3    H135720   0.713   2.001   2.685 -0.5443  0.1043  0.4349
 4695TIP3    H235721   0.611   2.076   2.602 -0.0181 -0.4621 -0.7391
 4696TIP3   OH235722   1.582   1.667   1.103 -0.2471  0.3614  0.6884
 4696TIP3    H135723   1.639   1.600   1.141  0.1741  0.2221 -0.1733
 4696TIP3    H235724   1.496   1.649   1.141 -0.7767 -2.4441 -1.6089
 4697TIP3   OH235725   0.788   4.043   1.687 -0.0329 -0.0463  0.2755
 4697TIP3    H135726   0.761   4.068   1.598 -0.9033  0.6334  0.7259
 4697TIP3    H235727   0.788   4.125   1.736  0.8070 -0.3677  0.8153
 4698TIP3   OH235728   3.105   0.356   1.657  0.4956  0.6228 -0.1907
 4698TIP3    H135729   3.025   0.307   1.677 -1.1144  2.1939 -2.5063
 4698TIP3    H235730   3.157   0.295   1.604 -0.3302  0.4840 -0.8575
 4699TIP3   OH235731   6.249   1.828   1.245 -1.0592 -0.0057  0.7619
 4699TIP3    H135732   6.189   1.757   1.221 -0.7115  0.1681 -0.6800
 4699TIP3    H235733   6.215   1.904   1.197  0.7669 -0.0926 -0.7160
 4700TIP3   OH235734   6.832   1.627   1.858  0.1056  0.0264  0.2666
 4700TIP3    H135735   6.762   1.562   1.869 -1.2381  1.8017  2.3665
 4700TIP3    H235736   6.816   1.664   1.771  0.3100 -1.7046 -0.5538
 4701TIP3   OH235737   0.569   1.884   0.693  0.2671  0.2152 -0.0994
 4701TIP3    H135738   0.617   1.833   0.757  1.5005 -0.9320 -1.8780
 4701TIP3    H235739   0.489   1.912   0.738  1.2752 -0.2228  2.0157
 4702TIP3   OH235740   0.365   3.230   1.299  0.3074  0.2520 -0.0015
 4702TIP3    H135741   0.454   3.261   1.284  0.8575 -0.8234  0.9199
 4702TIP3    H235742   0.371   3.181   1.381 -1.4791  1.5569  0.9278
 4703TIP3   OH235743   6.794   2.573   2.045 -0.5026 -0.3688 -0.4189
 4703TIP3    H135744   6.709   2.543   2.013 -0.9225 -0.7861  1.0374
 4703TIP3    H235745   6.809   2.522   2.124  0.9512 -0.0445 -0.4761
 4704TIP3   OH235746   3.056   0.993   0.512 -0.3158  0.5411 -0.6186
 4704TIP3    H135747   2.999   0.940   0.569  1.0893 -0.0925  0.2201
 4704TIP3    H235748   3.071   1.073   0.562  2.4182 -0.7691  0.7789
 4705TIP3   OH235749   0.765   4.992   7.403 -0.0142  0.2490  0.2375
 4705TIP3    H135750   0.837   4.937   7.434 -0.4502 -0.3340  0.2394
 4705TIP3    H235751   0.738   5.041   7.480  0.3752  0.4579  0.2394
 4706TIP3   OH235752   0.354   2.842   2.260  0.0593 -0.4595 -0.3619
 4706TIP3    H135753   0.325   2.912   2.319 -1.1031 -1.3455  0.1294
 4706TIP3    H235754   0.419   2.885   2.203 -0.4729  0.9604  0.0684
 4707TIP3   OH235755   0.873   5.814   1.456 -0.5904  0.1829 -0.5836
 4707TIP3    H135756   0.933   5.752   1.498 -1.8702 -1.3715 -1.0187
 4707TIP3    H235757   0.904   5.820   1.366 -0.1661  0.5671 -0.4142
 4708TIP3   OH235758   0.605   5.692   1.220 -0.0514  0.0705  0.6005
 4708TIP3    H135759   0.655   5.613   1.199 -0.9392 -0.4855  0.5509
 4708TIP3    H235760   0.541   5.663   1.285 -1.6027  0.3279 -0.7947
 4709TIP3   OH235761   6.715   4.955   1.758  0.8382 -0.3735 -0.0769
 4709TIP3    H135762   6.744   4.873   1.718  2.2481 -0.4224  1.0179
 4709TIP3    H235763   6.689   4.930   1.847 -0.7914  0.0029 -0.4374
 4710TIP3   OH235764   0.782   1.110   1.287  0.3968 -0.8197  0.5664
 4710TIP3    H135765   0.807   1.175   1.352  0.8087 -0.8106  0.3995
 4710TIP3    H235766   0.757   1.033   1.338 -1.1706 -0.1570  0.8048
 4711TIP3   OH235767   6.582   3.400   1.015  0.6502  0.2253 -0.1685
 4711TIP3    H135768   6.582   3.306   1.032 -0.1043  0.4883  1.3897
 4711TIP3    H235769   6.596   3.408   0.921  0.1157 -1.4678 -0.4028
 4712TIP3   OH235770   2.297   5.763   1.941  0.2079 -0.5000  0.1618
 4712TIP3    H135771   2.357   5.829   1.975  0.1424 -0.2828 -0.1382
 4712TIP3    H235772   2.341   5.729   1.863 -0.2822  0.0070 -0.3345
 4713TIP3   OH235773   1.319   3.896   7.035 -0.1651 -0.0418  0.0278
 4713TIP3    H135774   1.291   3.897   7.127  0.0519  0.8142  0.0797
 4713TIP3    H235775   1.360   3.981   7.020  1.6106 -0.9165 -0.3068
 4714TIP3   OH235776   2.267   4.342   0.605 -0.0089  0.1674 -0.1869
 4714TIP3    H135777   2.264   4.250   0.580  0.1112  0.0781  0.1320
 4714TIP3    H235778   2.296   4.342   0.696 -1.6654  0.4315  0.3587
 4715TIP3   OH235779   2.610   3.154   1.136  0.2537  0.3620  0.4300
 4715TIP3    H135780   2.651   3.241   1.133  0.0336  0.4462 -0.2853
 4715TIP3    H235781   2.590   3.140   1.228  0.2932  1.0763  0.5515
 4716TIP3   OH235782   0.732   1.816   1.691  0.7992  0.0585 -0.6752
 4716TIP3    H135783   0.692   1.895   1.726  0.0588 -0.3661 -0.5429
 4716TIP3    H235784   0.658   1.762   1.664  1.2917 -0.6915 -0.5451
 4717TIP3   OH235785   2.016   4.584   0.376  0.3725  0.0475 -0.1862
 4717TIP3    H135786   1.937   4.535   0.353 -0.8972  3.0058 -2.6401
 4717TIP3    H235787   1.983   4.670   0.404  2.6519  1.0207 -0.3475
 4718TIP3   OH235788   3.196   1.131   0.216  0.0439  0.2248 -0.3326
 4718TIP3    H135789   3.202   1.089   0.302  0.3349  1.5913  0.3222
 4718TIP3    H235790   3.102   1.128   0.195 -0.1911  0.9894  0.5880
 4719TIP3   OH235791   5.955   0.428   8.056  0.0652 -0.4093 -0.1775
 4719TIP3    H135792   6.022   0.414   8.123 -0.0742  0.9462  0.2665
 4719TIP3    H235793   5.879   0.380   8.088  0.4308 -0.8902 -0.0376
 4720TIP3   OH235794   4.443   4.304   7.701 -0.0198  0.1529 -0.6720
 4720TIP3    H135795   4.437   4.209   7.700  0.1408  0.1370 -0.0517
 4720TIP3    H235796   4.399   4.331   7.782 -0.8119  0.6613 -1.2496
 4721TIP3   OH235797   6.348   5.740   7.030  0.1904 -0.4725  0.8588
 4721TIP3    H135798   6.402   5.662   7.031 -1.4901 -1.6775  0.2411
 4721TIP3    H235799   6.267   5.714   7.074 -0.6787  0.6965  0.0019
 4722TIP3   OH235800   0.811   1.641   2.184  0.2328 -0.2441 -0.1678
 4722TIP3    H135801   0.730   1.674   2.143 -0.3909 -1.0183  0.4264
 4722TIP3    H235802   0.830   1.561   2.136  0.5816 -0.1344 -0.2131
 4723TIP3   OH235803   1.547   2.375   2.035 -0.6531  0.3139 -0.3774
 4723TIP3    H135804   1.491   2.313   2.081 -1.8687  0.9527 -0.9691
 4723TIP3    H235805   1.523   2.461   2.071  0.9192  0.4730  0.3469
 4724TIP3   OH235806   2.185   6.100   1.016  0.6916 -0.3431  0.0632
 4724TIP3    H135807   2.206   6.012   0.986  0.8251 -0.6049  0.9046
 4724TIP3    H235808   2.154   6.088   1.106  0.5819  0.4535  0.1355
 4725TIP3   OH235809   4.091   2.859   6.712  0.0068 -0.0381  0.5760
 4725TIP3    H135810   4.116   2.767   6.725 -0.9979 -0.6026 -1.2891
 4725TIP3    H235811   4.173   2.904   6.693  0.1232 -1.2192 -1.9381
 4726TIP3   OH235812   3.099   5.553   6.509 -0.5566  0.5022  0.7500
 4726TIP3    H135813   3.107   5.461   6.483  0.5572  0.6371  0.5858
 4726TIP3    H235814   3.064   5.597   6.432  1.2957  0.6369 -0.0444
 4727TIP3   OH235815   5.871   2.646   0.989  0.3224 -0.3149 -0.2166
 4727TIP3    H135816   5.863   2.717   1.053  0.6695  0.1414 -0.6708
 4727TIP3    H235817   5.855   2.689   0.905 -1.5518 -1.1850 -0.3169
 4728TIP3   OH235818   3.322   3.007   6.644  0.4860 -0.5369 -0.0849
 4728TIP3    H135819   3.294   3.071   6.710 -1.7270 -1.0706 -0.4422
 4728TIP3    H235820   3.399   3.046   6.603 -1.4383  2.4324 -1.0198
 4729TIP3   OH235821   2.226   4.512   7.472  0.0137  0.1465  0.1245
 4729TIP3    H135822   2.186   4.487   7.555 -0.6695  0.7371 -0.0160
 4729TIP3    H235823   2.158   4.562   7.427  1.1534  1.7893  0.1804
 4730TIP3   OH235824   6.891   1.807   1.556  0.4016 -0.0418 -0.7822
 4730TIP3    H135825   6.872   1.819   1.463 -0.2725  1.2046 -0.4984
 4730TIP3    H235826   6.814   1.842   1.601  1.3567  0.7290  0.2841
 4731TIP3   OH235827   6.829   6.530   7.532  0.4822  0.7673 -0.5109
 4731TIP3    H135828   6.838   6.556   7.440 -0.7565  0.3234 -0.7700
 4731TIP3    H235829   6.897   6.464   7.545  0.3399  0.4751 -1.2453
 4732TIP3   OH235830   2.936   3.207   7.445  0.0264 -0.0879  0.2322
 4732TIP3    H135831   3.027   3.177   7.446  0.1493  0.2778  0.0642
 4732TIP3    H235832   2.890   3.145   7.388 -0.0584 -0.9324  1.2089
 4733TIP3   OH235833   1.002   3.821   1.733 -0.3540 -0.4514 -0.6058
 4733TIP3    H135834   0.949   3.901   1.732 -1.4631 -1.1915 -0.5517
 4733TIP3    H235835   0.942   3.752   1.760  0.6183 -1.3063 -0.6090
 4734TIP3   OH235836   0.767   3.884   6.287 -0.2157 -0.1562  0.8170
 4734TIP3    H135837   0.821   3.860   6.363 -0.8794 -0.0512  1.3282
 4734TIP3    H235838   0.773   3.809   6.229  1.7319  0.4729  0.1626
 4735TIP3   OH235839   6.035   3.440   6.905 -0.3007  0.3715  0.3204
 4735TIP3    H135840   6.075   3.527   6.904 -0.3146  0.3711 -0.6436
 4735TIP3    H235841   5.998   3.430   6.817 -0.8738 -0.3413  0.6412
 4736TIP3   OH235842   6.190   3.133   0.098 -0.8114  0.2249 -0.6304
 4736TIP3    H135843   6.170   3.096   0.184  0.3337 -1.1618 -0.9379
 4736TIP3    H235844   6.273   3.092   0.074  0.9475  3.6381 -0.6439
 4737TIP3   OH235845   7.090   0.223   1.822 -0.3692  0.0263  0.1784
 4737TIP3    H135846   7.049   0.307   1.843 -1.6667 -0.9161  1.4270
 4737TIP3    H235847   7.141   0.201   1.900  0.6226  0.0368 -0.4594
 4738TIP3   OH235848   0.475   3.263   0.490 -0.2107  0.6125 -0.0417
 4738TIP3    H135849   0.395   3.286   0.443 -0.8597  1.5800  1.5165
 4738TIP3    H235850   0.471   3.313   0.571  1.1060 -0.7272  0.8764
 4739TIP3   OH235851   1.827   5.618   2.179  0.5071  0.0654  0.0403
 4739TIP3    H135852   1.775   5.538   2.179 -1.8882  1.5678  2.1685
 4739TIP3    H235853   1.892   5.604   2.247  0.0733 -0.0554  0.4311
 4740TIP3   OH235854   4.475   2.855   6.968 -0.1534 -0.5602  0.1113
 4740TIP3    H135855   4.386   2.882   6.990  0.0643 -0.6839  1.1445
 4740TIP3    H235856   4.525   2.864   7.049  1.2301  1.2987 -0.8876
 4741TIP3   OH235857   5.821   3.286   0.524  0.1871  0.0518  0.4876
 4741TIP3    H135858   5.778   3.286   0.609 -0.5843  0.3744  0.1053
 4741TIP3    H235859   5.877   3.363   0.524  3.6955 -2.3282  2.4164
 4742TIP3   OH235860   4.291   3.834   6.879 -0.3224 -0.1867  0.3928
 4742TIP3    H135861   4.280   3.807   6.970 -1.4121 -0.2666  0.2406
 4742TIP3    H235862   4.345   3.764   6.840 -2.6868 -1.9489  0.1404
 4743TIP3   OH235863   7.120   2.907   0.560 -0.6569 -0.0794  0.1816
 4743TIP3    H135864   7.128   2.830   0.615 -4.0909  0.0087  0.9563
 4743TIP3    H235865   7.192   2.964   0.586  0.1644 -1.7813  1.6797
 4744TIP3   OH235866   2.758   1.931   1.945  0.6921  0.0074  0.0711
 4744TIP3    H135867   2.677   1.973   1.972  1.4712  1.3552  0.3475
 4744TIP3    H235868   2.750   1.841   1.978  0.4777  0.8753  2.5053
 4745TIP3   OH235869   0.619   4.543   1.829 -0.0973  0.0438  0.3751
 4745TIP3    H135870   0.708   4.533   1.796 -0.8458 -3.9698 -0.6320
 4745TIP3    H235871   0.622   4.506   1.917 -0.7067  0.2000  0.4655
 4746TIP3   OH235872   4.260   6.154   7.859 -0.5050  0.3579  0.0962
 4746TIP3    H135873   4.248   6.208   7.781 -2.0432  0.5255  0.4195
 4746TIP3    H235874   4.346   6.177   7.892 -0.0781  0.7030 -1.2420
 4747TIP3   OH235875   0.719   5.078   1.390  0.2278 -0.0864  0.0990
 4747TIP3    H135876   0.773   5.150   1.420 -0.7888  1.3263 -1.3954
 4747TIP3    H235877   0.754   5.056   1.303 -0.9573  0.1900 -0.4566
 4748TIP3   OH235878   5.913   4.355   7.969 -0.1801  0.3752  0.3995
 4748TIP3    H135879   5.988   4.308   7.932  0.1186  2.2512 -1.5090
 4748TIP3    H235880   5.855   4.369   7.894 -2.4944 -1.0987  1.8775
 4749TIP3   OH235881   0.420   2.752   2.627  0.1146  0.3340  0.3466
 4749TIP3    H135882   0.461   2.698   2.695  2.0657 -0.5935 -1.5136
 4749TIP3    H235883   0.491   2.806   2.593 -0.5052 -0.3079 -2.0147
 4750TIP3   OH235884   3.859   3.272   0.188 -0.2144  0.0258  0.3517
 4750TIP3    H135885   3.908   3.198   0.223 -0.8162 -0.7042 -0.3175
 4750TIP3    H235886   3.799   3.232   0.125 -0.4872  1.0964 -0.0665
 4751TIP3   OH235887   4.100   3.937   1.352  0.4315 -0.5825  0.0721
 4751TIP3    H135888   4.167   4.000   1.377 -2.2103  2.1516  0.5819
 4751TIP3    H235889   4.083   3.955   1.260  0.6611 -1.4967 -0.1459
 4752TIP3   OH235890   5.739   3.789   0.945 -0.1167 -0.0625  0.0014
 4752TIP3    H135891   5.756   3.696   0.959  1.9081 -0.0872 -2.2400
 4752TIP3    H235892   5.644   3.796   0.943 -0.3260 -2.5407 -2.2163
 4753TIP3   OH235893   0.910   7.076   0.679  0.1655 -0.0955  0.2845
 4753TIP3    H135894   0.861   7.079   0.597  0.4313  0.7707  0.1457
 4753TIP3    H235895   0.931   7.168   0.697  4.6167 -0.6374 -1.4226
 4754TIP3   OH235896   1.827   3.544   1.381  0.0108 -0.0933  0.1138
 4754TIP3    H135897   1.889   3.604   1.340 -0.8553  0.0108 -1.0626
 4754TIP3    H235898   1.801   3.589   1.462 -0.6916  1.1715 -0.7936
 4755TIP3   OH235899   0.737   2.051   0.880  0.3285 -0.7158  0.1514
 4755TIP3    H135900   0.661   2.107   0.895  0.9144  0.3015 -0.5769
 4755TIP3    H235901   0.796   2.071   0.953  1.7431  1.7427 -1.6006
 4756TIP3   OH235902   2.668   1.609   0.257 -0.2002  0.1152 -0.1132
 4756TIP3    H135903   2.581   1.617   0.220 -0.7533 -0.3145  1.0595
 4756TIP3    H235904   2.685   1.515   0.261 -1.0196  0.0241  2.6067
 4757TIP3   OH235905   6.518   2.816   0.577 -0.4430  0.7294  0.3895
 4757TIP3    H135906   6.599   2.855   0.544 -0.7078  2.1384  1.3259
 4757TIP3    H235907   6.495   2.871   0.652 -2.1795  0.2453  0.2258
 4758TIP3   OH235908   2.403   3.442   2.072  0.4665  0.2265 -0.2147
 4758TIP3    H135909   2.358   3.358   2.073 -0.3775  0.6587  2.0824
 4758TIP3    H235910   2.416   3.463   2.165  2.5054  1.6610 -0.7908
 4759TIP3   OH235911   2.449   2.122   0.781 -0.0541 -0.9961  0.0100
 4759TIP3    H135912   2.450   2.195   0.719 -0.2355 -1.2268 -0.2661
 4759TIP3    H235913   2.372   2.139   0.836 -0.9255 -1.7409 -0.9727
 4760TIP3   OH235914   4.139   5.110   1.538 -0.7203  0.0567  0.3273
 4760TIP3    H135915   4.188   5.106   1.620 -1.3597 -0.3300  0.6940
 4760TIP3    H235916   4.173   5.188   1.493 -1.8529  1.4761  1.9092
 4761TIP3   OH235917   0.658   2.498   2.219  0.0141 -0.5588  0.7628
 4761TIP3    H135918   0.613   2.437   2.278 -1.2543  1.0194  1.4576
 4761TIP3    H235919   0.591   2.525   2.156  1.1469 -1.5902 -0.9374
 4762TIP3   OH235920   0.756   6.104   1.041 -0.4032 -0.2423 -0.3006
 4762TIP3    H135921   0.851   6.101   1.034 -0.2908  1.0615  0.4439
 4762TIP3    H235922   0.731   6.178   0.986 -0.6482  1.7110  2.3188
 4763TIP3   OH235923   5.533   3.947   7.636  0.1626  0.7182 -0.5393
 4763TIP3    H135924   5.442   3.971   7.621 -0.0684  0.4276  0.3787
 4763TIP3    H235925   5.545   3.866   7.586 -1.0863 -1.1936  2.1082
 4764TIP3   OH235926   3.382   0.084   0.222 -0.6142 -0.2426 -0.1173
 4764TIP3    H135927   3.345   0.120   0.142  0.5635 -1.0715 -1.0538
 4764TIP3    H235928   3.386  -0.010   0.206  1.5662 -0.2063  0.0834
 4765TIP3   OH235929   0.603   1.398   7.512  0.3243  0.3161 -0.3054
 4765TIP3    H135930   0.681   1.408   7.459  0.2144  1.0437 -0.3344
 4765TIP3    H235931   0.585   1.486   7.546 -0.5551  0.1858 -0.4132
 4766TIP3   OH235932   6.016   2.882   0.274 -0.3794 -0.2189 -0.3836
 4766TIP3    H135933   6.004   2.805   0.329 -1.5848 -1.2038 -1.9778
 4766TIP3    H235934   5.998   2.852   0.185 -0.0730  1.7088 -1.1417
 4767TIP3   OH235935   4.514   3.629   6.872 -0.2418 -0.7927 -0.0462
 4767TIP3    H135936   4.541   3.641   6.963  0.9276 -1.2982 -0.3062
 4767TIP3    H235937   4.435   3.575   6.878  0.5803 -1.9598  0.6252
 4768TIP3   OH235938   0.986   5.863   1.211  0.0715  0.2517 -0.2926
 4768TIP3    H135939   0.983   5.934   1.147 -1.6888 -0.7654 -1.3719
 4768TIP3    H235940   1.025   5.790   1.164 -1.3661 -0.5478 -0.2615
 4769TIP3   OH235941   1.412   2.223   8.124  0.1809  0.4491 -0.1154
 4769TIP3    H135942   1.361   2.279   8.183 -0.5857 -0.7692  0.4092
 4769TIP3    H235943   1.469   2.173   8.183  0.3547  0.1744 -0.5185
 4770TIP3   OH235944   2.382   4.789   0.311  0.3695  0.3112 -0.2497
 4770TIP3    H135945   2.390   4.757   0.221  0.4638 -0.4804  0.0357
 4770TIP3    H235946   2.351   4.714   0.361 -0.4725  0.9736  0.2392
 4771TIP3   OH235947   2.258   2.174   0.979 -0.3418 -0.3663  0.4445
 4771TIP3    H135948   2.165   2.173   0.955 -0.3682 -2.1058  0.4988
 4771TIP3    H235949   2.260   2.139   1.068  0.5168 -2.3445 -0.3141
 4772TIP3   OH235950   4.750   1.933   6.885  0.1373  0.8044 -0.4658
 4772TIP3    H135951   4.810   1.961   6.953  0.7853  0.1708 -0.7676
 4772TIP3    H235952   4.788   1.852   6.851 -2.1875 -0.9521  1.0214
 4773TIP3   OH235953   2.558   4.632   1.560  0.6844 -0.6538  0.2158
 4773TIP3    H135954   2.636   4.577   1.548 -1.1739 -2.9650 -1.7973
 4773TIP3    H235955   2.587   4.719   1.534  3.1652 -1.0074  1.5743
 4774TIP3   OH235956   2.924   3.326   2.680 -0.1604 -0.2533 -0.8120
 4774TIP3    H135957   2.878   3.382   2.742  0.9957  0.6591 -0.7541
 4774TIP3    H235958   2.999   3.292   2.729  0.3619 -0.1007 -1.4954
 4775TIP3   OH235959   0.299   4.302   8.010  0.5805 -0.2866  0.2253
 4775TIP3    H135960   0.262   4.297   8.098 -0.0041  0.8224  0.0555
 4775TIP3    H235961   0.312   4.211   7.984 -0.0126 -0.6377  1.1297
 4776TIP3   OH235962   2.885   1.374   1.097 -0.3194  0.1336 -0.1860
 4776TIP3    H135963   2.871   1.446   1.158 -0.7451 -0.8860  0.9592
 4776TIP3    H235964   2.805   1.321   1.103 -1.4468  1.3378 -3.5337
 4777TIP3   OH235965   1.869   5.135   0.919  0.1412  0.2885 -0.0593
 4777TIP3    H135966   1.824   5.057   0.951  0.9195  0.6133  1.8484
 4777TIP3    H235967   1.853   5.202   0.985 -0.7721  1.8643 -1.8175
 4778TIP3   OH235968   2.006   1.549   1.547  0.4011  0.3749 -0.1155
 4778TIP3    H135969   1.951   1.574   1.620  1.1083  0.8980  0.2474
 4778TIP3    H235970   2.088   1.520   1.587 -0.2187 -2.0805 -0.5509
 4779TIP3   OH235971   0.882   4.414   1.285 -0.9577 -0.1726  0.7533
 4779TIP3    H135972   0.865   4.419   1.379 -1.0679 -1.3617  0.8025
 4779TIP3    H235973   0.837   4.491   1.248 -0.3997  0.6358  1.7317
 4780TIP3   OH235974   2.099   0.293   0.895  0.8061  0.2334 -0.0293
 4780TIP3    H135975   2.085   0.208   0.855 -1.6969  1.1549 -1.1712
 4780TIP3    H235976   2.059   0.356   0.835 -2.4143  1.7305  3.4415
 4781TIP3   OH235977   2.016   1.641   0.858  0.0745  0.2753 -0.4985
 4781TIP3    H135978   2.010   1.676   0.947  1.8995 -0.7607  0.0421
 4781TIP3    H235979   2.078   1.699   0.813  0.4030 -0.1642 -0.6204
 4782TIP3   OH235980   5.682   0.760   0.421  0.5481 -0.2190  0.4582
 4782TIP3    H135981   5.650   0.820   0.354  0.5286 -1.3959 -0.6068
 4782TIP3    H235982   5.641   0.676   0.399  0.5528 -0.6187  1.9406
 4783TIP3   OH235983   6.020   2.134   1.776 -0.8565 -0.2380  0.1976
 4783TIP3    H135984   5.970   2.157   1.699 -1.2900 -1.4819  0.0906
 4783TIP3    H235985   5.956   2.131   1.847 -0.9775 -1.8946  0.0484
 4784TIP3   OH235986   2.438   4.985   1.396  0.1868  0.3395  0.4018
 4784TIP3    H135987   2.521   4.982   1.444 -0.6901  1.0858  2.0009
 4784TIP3    H235988   2.394   4.904   1.418  0.8446 -0.4658 -1.1494
 4785TIP3   OH235989   6.635   1.326   0.816  0.2879 -0.1554 -0.0399
 4785TIP3    H135990   6.589   1.333   0.900 -2.2140 -1.6286 -1.2185
 4785TIP3    H235991   6.690   1.248   0.825  0.2278 -0.1568  0.3226
 4786TIP3   OH235992   4.856   3.327   1.943  0.0231  0.0900 -0.3431
 4786TIP3    H135993   4.809   3.407   1.966  0.5237  1.5931 -4.1356
 4786TIP3    H235994   4.793   3.257   1.959 -1.5435  1.5324  0.0015
 4787TIP3   OH235995   1.171   5.790   0.403  0.0150  0.4423  0.2772
 4787TIP3    H135996   1.213   5.865   0.446  0.8992  0.1699 -0.0836
 4787TIP3    H235997   1.175   5.810   0.310 -0.5625  0.3584  0.2336
 4788TIP3   OH235998   2.300   1.633   1.496  0.4281  0.3598 -0.2346
 4788TIP3    H135999   2.393   1.614   1.484  0.1350 -1.0798 -0.3834
 4788TIP3    H236000   2.267   1.559   1.547 -0.2352  1.8813  1.6125
 4789TIP3   OH236001   6.752   0.375   7.823  0.4427 -0.5714  0.1113
 4789TIP3    H136002   6.759   0.287   7.786 -0.4419 -0.4309 -0.4036
 4789TIP3    H236003   6.670   0.409   7.789  0.7386  0.4303  0.3721
 4790TIP3   OH236004   5.577   2.583   0.787 -0.2200  0.4260 -0.7512
 4790TIP3    H136005   5.647   2.646   0.804  0.8151 -0.5653 -1.2610
 4790TIP3    H236006   5.525   2.623   0.717 -0.6029  1.5080  0.1550
 4791TIP3   OH236007   4.686   6.331   6.358 -0.4505  0.5876 -0.1662
 4791TIP3    H136008   4.746   6.395   6.396 -2.1438  0.9079  2.0960
 4791TIP3    H236009   4.609   6.382   6.333 -1.1001 -0.2912  0.0274
 4792TIP3   OH236010   2.714   4.484   6.466  0.2067 -0.3249  0.5660
 4792TIP3    H136011   2.755   4.404   6.435 -2.1293 -1.3367 -0.0321
 4792TIP3    H236012   2.747   4.553   6.408  0.3720 -1.2596 -0.4580
 4793TIP3   OH236013   2.594   4.297   7.217  0.3436 -0.3591 -0.1399
 4793TIP3    H136014   2.509   4.335   7.238  0.8716  0.9094 -0.2443
 4793TIP3    H236015   2.577   4.239   7.142 -0.4168 -0.1186 -0.1554
 4794TIP3   OH236016   1.734   2.644   0.890 -0.3056 -0.1265  0.4227
 4794TIP3    H136017   1.735   2.595   0.808  0.2319  1.1884 -0.3900
 4794TIP3    H236018   1.826   2.646   0.918 -0.3260  0.3713  0.4618
 4795TIP3   OH236019   2.996   0.015   1.100  0.2536 -0.4012  1.1515
 4795TIP3    H136020   2.950  -0.062   1.066  0.3088  0.7872 -1.7737
 4795TIP3    H236021   2.937   0.050   1.166 -1.4066 -0.9649  0.0218
 4796TIP3   OH236022   3.277   4.616   1.483 -0.2246 -0.4270  0.7721
 4796TIP3    H136023   3.274   4.660   1.568  1.5389 -1.4473  1.4020
 4796TIP3    H236024   3.282   4.523   1.504  1.4372 -0.6268 -0.3994
 4797TIP3   OH236025   0.257   7.096   6.686 -0.2736  0.6226 -0.1775
 4797TIP3    H136026   0.215   7.013   6.705 -1.2201  1.0006 -0.5619
 4797TIP3    H236027   0.302   7.082   6.603 -0.2089  0.4207 -0.1086
 4798TIP3   OH236028   1.528   4.393   7.705 -0.1762 -0.2261 -0.1341
 4798TIP3    H136029   1.557   4.330   7.771 -1.8106 -0.4279  0.4311
 4798TIP3    H236030   1.436   4.410   7.728 -0.7535 -0.2636 -2.3190
 4799TIP3   OH236031   2.129   3.037   1.708 -0.4466  1.1119 -0.5049
 4799TIP3    H136032   2.167   2.960   1.749 -1.0907  0.9284 -0.2461
 4799TIP3    H236033   2.203   3.082   1.668 -0.0174  0.5531 -0.3426
 4800TIP3   OH236034   2.064   3.968   1.026  0.6720  0.0632 -0.0557
 4800TIP3    H136035   2.101   3.900   1.083  0.6839  2.7462  3.3365
 4800TIP3    H236036   2.018   4.026   1.086 -0.4757  2.3058 -3.0213
 4801TIP3   OH236037   5.397   5.677   1.490 -0.5594  0.0437  0.3196
 4801TIP3    H136038   5.354   5.762   1.475  1.3567  0.9145 -0.4787
 4801TIP3    H236039   5.339   5.614   1.448 -1.8774  0.9801  0.6766
 4802TIP3   OH236040   1.629   2.615   7.762 -0.1821 -0.7979  0.4304
 4802TIP3    H136041   1.535   2.630   7.751 -0.0505 -0.3749 -0.1337
 4802TIP3    H236042   1.638   2.584   7.852 -0.7654  0.0224  0.7763
 4803TIP3   OH236043   6.696   2.034   1.605  0.5941  0.6456 -0.2050
 4803TIP3    H136044   6.676   2.039   1.698  1.2347  1.5854 -0.1045
 4803TIP3    H236045   6.631   2.092   1.564  0.8168  0.8594 -0.2571
 4804TIP3   OH236046   4.667   4.660   1.285  0.1842 -0.1182  0.1623
 4804TIP3    H136047   4.736   4.709   1.240  1.1846 -0.4424  1.3008
 4804TIP3    H236048   4.685   4.568   1.264 -0.3611 -0.1463 -0.1765
 4805TIP3   OH236049   4.089   1.839   1.066 -0.3098 -0.7373  0.3036
 4805TIP3    H136050   4.172   1.875   1.038 -1.4684  1.9773  0.1688
 4805TIP3    H236051   4.109   1.791   1.146  0.8283  3.2173  2.5182
 4806TIP3   OH236052   1.007   6.399   6.590  0.5673 -0.5114  0.8194
 4806TIP3    H136053   0.984   6.308   6.570  1.5843 -0.2080 -1.8506
 4806TIP3    H236054   1.094   6.411   6.553  0.0192  1.8666  0.2256
 4807TIP3   OH236055   3.357   1.837   1.398  0.3612 -0.5984  0.2896
 4807TIP3    H136056   3.335   1.794   1.481 -1.4437 -0.9145 -0.3307
 4807TIP3    H236057   3.305   1.790   1.332  0.1703  1.0092 -0.7262
 4808TIP3   OH236058   0.831   2.386   7.525 -0.1813 -0.3410 -0.3117
 4808TIP3    H136059   0.906   2.349   7.570 -0.0510 -0.9293 -1.0002
 4808TIP3    H236060   0.771   2.313   7.513  0.3188 -0.4870 -2.1782
 4809TIP3   OH236061   5.200   4.739   7.313 -0.1486  0.1836 -0.1107
 4809TIP3    H136062   5.280   4.737   7.260 -1.2859  0.3380 -1.8564
 4809TIP3    H236063   5.173   4.831   7.313 -0.1078  0.2043  0.8340
 4810TIP3   OH236064   3.694   5.426   6.785 -1.2213 -0.3716  0.1969
 4810TIP3    H136065   3.699   5.484   6.861  1.9139 -0.7278  0.3216
 4810TIP3    H236066   3.674   5.340   6.821  1.4558 -0.7837  0.8091
 4811TIP3   OH236067   1.076   3.640   7.143  0.1527 -0.6112 -0.1518
 4811TIP3    H136068   1.007   3.588   7.102  1.0426 -1.8367 -0.1404
 4811TIP3    H236069   1.147   3.641   7.078  0.5130 -0.2453  0.2473
 4812TIP3   OH236070   6.609   3.936   6.016  0.3300 -0.0675 -0.3081
 4812TIP3    H136071   6.548   3.917   5.945 -1.4258 -0.3545  1.2544
 4812TIP3    H236072   6.660   4.011   5.985 -1.1255  0.4663 -1.4291
 4813TIP3   OH236073   2.249   3.213   2.040  0.7962  0.3068  0.4366
 4813TIP3    H136074   2.179   3.158   2.076 -0.1886  0.6234 -0.9517
 4813TIP3    H236075   2.322   3.152   2.028  0.6444 -0.1108  1.5212
 4814TIP3   OH236076   2.304   2.334   7.080 -0.0416 -0.2291  0.5641
 4814TIP3    H136077   2.362   2.311   7.007  1.7843 -0.6666  2.1086
 4814TIP3    H236078   2.259   2.413   7.050 -0.2700 -1.1134 -1.5326
 4815TIP3   OH236079   5.663   3.945   1.762  0.5961 -0.3084 -0.1761
 4815TIP3    H136080   5.577   3.935   1.803  0.3974 -0.9961 -0.7644
 4815TIP3    H236081   5.699   4.024   1.803 -1.1340  1.1592 -1.3357
 4816TIP3   OH236082   1.120   4.356   1.192  0.2144  0.1520  0.1781
 4816TIP3    H136083   1.033   4.349   1.232 -0.5826 -1.1771 -1.7428
 4816TIP3    H236084   1.144   4.448   1.202  0.8652 -0.4274  5.3605
 4817TIP3   OH236085   4.401   3.729   7.856  0.0997 -1.0884  0.9723
 4817TIP3    H136086   4.329   3.783   7.824  0.4295 -1.2493 -0.0752
 4817TIP3    H236087   4.409   3.659   7.791  0.7660 -1.4367  1.4291
 4818TIP3   OH236088   3.889   4.696   6.625  0.3539  0.2610 -0.1915
 4818TIP3    H136089   3.966   4.676   6.571  1.1981 -1.5145  1.6197
 4818TIP3    H236090   3.917   4.679   6.714 -1.6420  1.2548  0.6550
 4819TIP3   OH236091   1.676   3.185   6.725  0.3817  0.1887  0.0375
 4819TIP3    H136092   1.680   3.267   6.676 -0.0484 -0.5339 -1.2421
 4819TIP3    H236093   1.583   3.164   6.727  0.5393 -0.5279 -0.1020
 4820TIP3   OH236094   6.268   4.413   1.138  0.3759  0.9183  0.2137
 4820TIP3    H136095   6.300   4.491   1.184  0.1156  1.8474 -1.1520
 4820TIP3    H236096   6.326   4.343   1.166  1.6642  1.9522  0.1546
 4821TIP3   OH236097   6.843   2.681   1.481 -0.4605  0.5962  0.2297
 4821TIP3    H136098   6.901   2.650   1.550  0.8765 -0.8690 -1.5146
 4821TIP3    H236099   6.849   2.615   1.412 -1.4493  2.2184 -1.4780
 4822TIP3   OH236100   6.731   3.973   1.586 -0.0686  0.1937  0.4344
 4822TIP3    H136101   6.699   4.059   1.560  1.2448  0.7632  0.6900
 4822TIP3    H236102   6.754   3.982   1.678 -1.7917 -0.9854  1.0254
 4823TIP3   OH236103   2.381   3.287   1.360  0.6591 -0.0004  0.4488
 4823TIP3    H136104   2.358   3.255   1.273  1.0308 -1.3102  0.8201
 4823TIP3    H236105   2.470   3.254   1.374 -0.4536 -2.2124  2.4724
 4824TIP3   OH236106   2.424   1.240   0.660  0.4990  0.2777  0.1270
 4824TIP3    H136107   2.420   1.162   0.605 -0.6136 -0.2000  0.8547
 4824TIP3    H236108   2.362   1.223   0.731  1.6253  1.0388  1.3292
 4825TIP3   OH236109   5.080   2.147   7.621  0.2983  0.0357 -0.3433
 4825TIP3    H136110   5.062   2.212   7.554 -1.2681 -0.9117 -0.8729
 4825TIP3    H236111   4.993   2.122   7.654  0.9090 -1.3864  0.2241
 4826TIP3   OH236112   3.942   3.651   1.552  0.0220  0.6332  0.1242
 4826TIP3    H136113   4.007   3.660   1.483  0.7016  0.2178  0.7054
 4826TIP3    H236114   3.918   3.558   1.550 -0.2648  0.7068  0.1614
 4827TIP3   OH236115   0.533   5.184   7.045 -0.0659 -0.3841  0.9541
 4827TIP3    H136116   0.463   5.247   7.062  0.2877  0.2214  0.2233
 4827TIP3    H236117   0.603   5.237   7.007  0.1249 -1.2719  0.0511
 4828TIP3   OH236118   3.861   1.205   0.381  0.6327 -0.2517 -0.8347
 4828TIP3    H136119   3.803   1.218   0.306  0.4618 -0.7052 -0.7796
 4828TIP3    H236120   3.823   1.259   0.450 -0.0098 -0.9542 -0.6444
 4829TIP3   OH236121   1.775   3.418   0.645 -0.2039 -0.3669 -0.1092
 4829TIP3    H136122   1.729   3.465   0.575 -0.1496 -1.0749 -0.6316
 4829TIP3    H236123   1.824   3.349   0.599  0.4002 -0.3932  0.5591
 4830TIP3   OH236124   3.988   3.902   0.519 -0.1886  1.1012 -0.2436
 4830TIP3    H136125   3.915   3.901   0.458 -1.4741  1.0178  1.2720
 4830TIP3    H236126   4.062   3.936   0.468 -1.2556  1.1233 -1.7975
 4831TIP3   OH236127   5.180   3.403   7.508  0.1548  0.0231  0.9573
 4831TIP3    H136128   5.089   3.386   7.483  0.3869 -2.4845  1.6951
 4831TIP3    H236129   5.215   3.456   7.436 -1.0621 -1.4825 -0.7946
 4832TIP3   OH236130   6.853   3.392   7.580 -0.1998  0.4388  0.1204
 4832TIP3    H136131   6.940   3.430   7.588 -0.6623  1.4650  0.2919
 4832TIP3    H236132   6.801   3.435   7.647 -0.5763 -0.9576  0.7568
 4833TIP3   OH236133   2.694   3.582   2.427 -0.1959 -0.0621  0.3154
 4833TIP3    H136134   2.637   3.639   2.478 -0.7857 -0.9600  0.6662
 4833TIP3    H236135   2.780   3.624   2.431 -0.7736  1.1957 -0.0560
 4834TIP3   OH236136   4.110   0.956   6.822 -0.3488  0.5143 -0.3133
 4834TIP3    H136137   4.031   0.902   6.817 -0.6564  1.0905 -1.9726
 4834TIP3    H236138   4.129   0.979   6.731  1.3027  1.0054  0.1430
 4835TIP3   OH236139   2.288   0.642   0.685  0.0526 -0.1243  0.0334
 4835TIP3    H136140   2.197   0.615   0.690 -0.8369  2.4842 -0.9581
 4835TIP3    H236141   2.314   0.655   0.776 -0.8356 -0.1120  0.2914
 4836TIP3   OH236142   7.001   2.074   1.594  0.7181  0.0516  0.4425
 4836TIP3    H136143   7.028   2.147   1.538  0.1126  1.9105  2.5247
 4836TIP3    H236144   6.914   2.051   1.563  0.5885  0.7376  0.2849
 4837TIP3   OH236145   0.806   2.409   1.944 -1.1084  0.6850  0.4298
 4837TIP3    H136146   0.838   2.460   2.018 -1.4709  0.9957  0.3754
 4837TIP3    H236147   0.876   2.347   1.924 -0.5619  1.3330  0.3353
 4838TIP3   OH236148   1.894   3.013   0.103  0.7190 -0.1960 -0.1382
 4838TIP3    H136149   1.938   2.981   0.182  0.5108  0.4961  0.2644
 4838TIP3    H236150   1.961   3.009   0.035  1.3662  0.6655  0.4302
 4839TIP3   OH236151   2.580   0.380   8.012 -0.3053  0.8811 -0.2529
 4839TIP3    H136152   2.669   0.391   8.045  0.9741 -0.0969 -3.1862
 4839TIP3    H236153   2.567   0.286   8.010 -1.5225  1.0282  0.3962
 4840TIP3   OH236154   3.929   3.962   6.651  0.4280  1.0305 -0.5432
 4840TIP3    H136155   3.971   3.983   6.567  0.8467  2.2781 -0.0359
 4840TIP3    H236156   3.838   3.986   6.639 -0.0449 -1.0278 -1.4148
 4841TIP3   OH236157   3.501   0.999   7.911 -0.6156  0.3945  0.7612
 4841TIP3    H136158   3.543   1.078   7.877 -1.8565  0.8880  0.3598
 4841TIP3    H236159   3.510   1.006   8.006  1.0415  0.0265  0.6472
 4842TIP3   OH236160   0.267   3.482   7.791  0.6760 -0.1741 -0.3000
 4842TIP3    H136161   0.323   3.456   7.718  1.7818 -1.9702  1.1263
 4842TIP3    H236162   0.308   3.560   7.828  2.3886 -1.5829  0.8443
 4843TIP3   OH236163   2.765   2.619   0.196 -0.1611  0.8202  0.4763
 4843TIP3    H136164   2.760   2.547   0.132 -0.2628 -0.5236  1.9443
 4843TIP3    H236165   2.845   2.601   0.246 -0.5555  1.3413  1.3082
 4844TIP3   OH236166   2.369   0.397   1.945 -0.7088 -0.1066 -0.5760
 4844TIP3    H136167   2.322   0.327   1.899  1.7455 -1.3321 -1.3069
 4844TIP3    H236168   2.431   0.350   2.001 -1.8721  1.4289  2.0475
 4845TIP3   OH236169   0.987   2.204   1.873  0.4180  0.2054  0.3256
 4845TIP3    H136170   0.927   2.138   1.839  1.4563 -0.1229 -0.8775
 4845TIP3    H236171   1.025   2.164   1.951 -0.9173  0.4173  1.1030
 4846TIP3   OH236172   0.992   0.620   6.591  0.5960 -0.1158 -0.0949
 4846TIP3    H136173   0.912   0.670   6.579  1.5462  1.0573 -1.5751
 4846TIP3    H236174   0.998   0.609   6.686 -1.0159  0.2573  0.0731
 4847TIP3   OH236175   0.056   1.984   1.454  0.1555  0.0794 -1.0747
 4847TIP3    H136176   0.129   2.016   1.507  1.4588 -0.9866 -2.1732
 4847TIP3    H236177  -0.022   1.998   1.508  1.0971  1.7406 -0.0961
 4848TIP3   OH236178   1.483   1.993   7.861  0.5492 -0.0506  0.5791
 4848TIP3    H136179   1.443   2.076   7.885 -0.5430  0.0494 -1.5108
 4848TIP3    H236180   1.500   2.000   7.767  0.6918 -2.0723  0.4232
 4849TIP3   OH236181   1.847   2.374   1.632 -0.0047  0.1909  0.8239
 4849TIP3    H136182   1.859   2.280   1.649  0.9013  0.0423 -0.5889
 4849TIP3    H236183   1.826   2.379   1.539 -0.0308  1.4018  0.8899
 4850TIP3   OH236184   1.853   2.073   6.093  0.3580 -0.0167  0.4043
 4850TIP3    H136185   1.796   1.997   6.090 -0.0110  0.3006 -1.8850
 4850TIP3    H236186   1.835   2.120   6.011  1.5179  1.8308  1.1652
 4851TIP3   OH236187   2.927   4.754   0.248 -0.1875  0.2613  0.5982
 4851TIP3    H136188   2.862   4.702   0.295  0.8178 -1.9502 -0.4015
 4851TIP3    H236189   2.884   4.777   0.165 -0.6800  1.1926  1.0960
 4852TIP3   OH236190   5.881   1.244   7.739 -0.3829  0.4561 -0.5014
 4852TIP3    H136191   5.862   1.151   7.725 -1.0867  0.7974 -1.8533
 4852TIP3    H236192   5.977   1.249   7.741 -0.3399 -0.2630 -0.5597
 4853TIP3   OH236193   4.909   1.469   0.454  0.0782  0.0391  0.1067
 4853TIP3    H136194   4.834   1.456   0.511  1.1870  1.9229  2.0809
 4853TIP3    H236195   4.922   1.564   0.452  1.7548 -0.1834 -1.0581
 4854TIP3   OH236196   1.686   5.005   1.591  0.1198 -0.2255 -0.0779
 4854TIP3    H136197   1.747   5.050   1.650  0.2546  0.8586 -1.0280
 4854TIP3    H236198   1.601   5.014   1.633  0.6568 -2.1559  1.4947
 4855TIP3   OH236199   2.935   5.781   8.077  0.3881 -0.7824  0.4644
 4855TIP3    H136200   2.947   5.709   8.015  0.3779 -2.4478  2.3716
 4855TIP3    H236201   3.021   5.823   8.081 -0.0328  0.4340 -1.9496
 4856TIP3   OH236202   2.680   5.802   7.849  0.5506 -0.5730 -0.5030
 4856TIP3    H136203   2.739   5.727   7.854 -0.6650 -1.5688 -0.8009
 4856TIP3    H236204   2.593   5.764   7.854 -0.1139  0.6956 -2.0542
 4857TIP3   OH236205   5.158   1.771   1.302 -0.4025  0.0909  0.0116
 4857TIP3    H136206   5.200   1.810   1.379  1.1330  1.7364 -1.5912
 4857TIP3    H236207   5.218   1.703   1.273 -1.5045 -1.2694  0.8882
 4858TIP3   OH236208   0.621   0.274   6.409  0.1109  0.0960  0.0726
 4858TIP3    H136209   0.659   0.194   6.373 -1.9484 -0.2427 -1.4452
 4858TIP3    H236210   0.536   0.281   6.366 -0.0826  2.6663  0.8203
 4859TIP3   OH236211   0.163   1.797   6.453  0.5063  0.8635  0.2467
 4859TIP3    H136212   0.097   1.855   6.416  0.0578  0.2420  0.0704
 4859TIP3    H236213   0.242   1.816   6.403  0.9648  2.9587  1.7107
 4860TIP3   OH236214   2.414   1.654   0.150 -0.1533  0.5882 -0.0557
 4860TIP3    H136215   2.411   1.647   0.055 -0.8022 -0.0423  0.0119
 4860TIP3    H236216   2.432   1.746   0.167  0.4106  0.6199 -0.7956
 4861TIP3   OH236217   1.479   3.515   6.345 -0.1838  0.0725  0.0689
 4861TIP3    H136218   1.407   3.528   6.284  0.1290  2.2748  0.1359
 4861TIP3    H236219   1.509   3.425   6.328  0.5752  0.9614 -3.7707
 4862TIP3   OH236220   4.815   1.984   0.828 -0.1836 -0.1933  0.1457
 4862TIP3    H136221   4.896   1.971   0.779  0.9651 -0.8651  2.2049
 4862TIP3    H236222   4.830   2.064   0.878 -0.9003 -0.1751  0.3367
 4863TIP3   OH236223   0.927   1.953   0.064 -0.4476  0.2843  0.3587
 4863TIP3    H136224   0.894   2.000  -0.012 -1.7408 -0.0549  0.7081
 4863TIP3    H236225   1.018   1.983   0.073  0.2808 -0.9615 -2.3413
 4864TIP3   OH236226   5.961   3.083   6.701  0.0847 -0.1754  1.4590
 4864TIP3    H136227   5.956   2.998   6.656  1.0971  0.5065  0.0184
 4864TIP3    H236228   5.886   3.132   6.668  0.9411  0.3978  0.3275
 4865TIP3   OH236229   2.330   0.291   0.721 -0.2286 -0.3721  0.3191
 4865TIP3    H136230   2.287   0.274   0.637 -0.0637  0.4222  0.0641
 4865TIP3    H236231   2.289   0.230   0.782 -0.1547 -1.1525 -0.3931
 4866TIP3   OH236232   0.701   1.694   6.814 -0.0160 -0.4683 -0.3653
 4866TIP3    H136233   0.671   1.785   6.816  0.5178 -0.3170  1.3885
 4866TIP3    H236234   0.634   1.645   6.861  0.1469 -0.8469 -0.5257
 4867TIP3   OH236235   3.604   3.700   1.295 -0.4843 -0.1807  0.4024
 4867TIP3    H136236   3.568   3.722   1.209 -1.1979  0.7460  0.9249
 4867TIP3    H236237   3.664   3.772   1.314  0.8556 -1.1799  0.0023
 4868TIP3   OH236238   3.299   3.254   0.830  0.1566  0.8122 -0.6185
 4868TIP3    H136239   3.223   3.197   0.845  0.2718  0.5444 -1.0342
 4868TIP3    H236240   3.361   3.232   0.899  0.8335 -0.6637 -1.6750
 4869TIP3   OH236241   2.959   6.249   0.332  0.0546  0.1656 -0.3011
 4869TIP3    H136242   3.053   6.236   0.321  0.8275  4.1640  0.7101
 4869TIP3    H236243   2.928   6.274   0.245 -0.0753 -1.1541 -0.6349
 4870TIP3   OH236244   2.204   1.226   1.384 -0.3588 -0.4658  0.4085
 4870TIP3    H136245   2.160   1.281   1.319 -2.2641  0.6287  2.5357
 4870TIP3    H236246   2.288   1.269   1.399 -0.7573  0.4142  0.1537
 4871TIP3   OH236247   4.067   2.806   2.204  0.4834 -0.7901  0.0651
 4871TIP3    H136248   4.108   2.720   2.191  1.9964  0.1362 -1.5241
 4871TIP3    H236249   4.110   2.842   2.282  1.9955 -0.2703 -0.9769
 4872TIP3   OH236250   0.609   1.188   7.143 -0.0660  0.0324  0.0983
 4872TIP3    H136251   0.698   1.159   7.125  0.6234  2.9432 -1.6013
 4872TIP3    H236252   0.553   1.126   7.097  1.0961 -1.4640  0.6766
 4873TIP3   OH236253   5.469   3.209   1.071  0.1148 -0.4162 -0.3877
 4873TIP3    H136254   5.375   3.195   1.056 -0.4326  1.1246  1.4497
 4873TIP3    H236255   5.507   3.122   1.065 -1.6231 -1.2352  0.0525
 4874TIP3   OH236256   5.193   2.739   1.005 -0.5401  0.1020  0.5486
 4874TIP3    H136257   5.287   2.727   1.017 -0.5247  0.4282  0.7492
 4874TIP3    H236258   5.155   2.656   1.031 -0.2641 -0.2188 -0.0469
 4875TIP3   OH236259   1.741   2.259   7.271 -0.0190  0.3791  0.0527
 4875TIP3    H136260   1.664   2.252   7.328  0.5192  0.1369  0.7470
 4875TIP3    H236261   1.807   2.205   7.313  0.6846  0.9734 -0.2927
 4876TIP3   OH236262   2.008   1.372   0.166 -0.3549 -0.2525  0.4440
 4876TIP3    H136263   2.089   1.386   0.214 -0.7474  0.5669  0.8837
 4876TIP3    H236264   1.998   1.277   0.163  0.1795 -0.3337  1.1347
 4877TIP3   OH236265   2.516   1.609   0.791 -0.1564  0.3523 -0.3275
 4877TIP3    H136266   2.576   1.633   0.862 -0.5228 -2.3856  0.9762
 4877TIP3    H236267   2.564   1.628   0.711  1.6922  0.0724  0.6881
 4878TIP3   OH236268   2.803   1.417   6.564  0.6009  0.0721 -0.0359
 4878TIP3    H136269   2.784   1.430   6.471  1.2334  1.2941 -0.0087
 4878TIP3    H236270   2.721   1.386   6.601 -0.1394  1.1766 -0.7110
 4879TIP3   OH236271   4.523   5.053   1.169  0.3987 -0.0117 -0.1450
 4879TIP3    H136272   4.503   5.145   1.184 -0.6267 -0.6117  2.4602
 4879TIP3    H236273   4.605   5.038   1.217 -0.2667 -0.7891  0.7852
 4880TIP3   OH236274   2.427   5.194   0.637  0.5057  0.4831  0.4013
 4880TIP3    H136275   2.362   5.148   0.691  0.8737  0.6732  1.0173
 4880TIP3    H236276   2.509   5.147   0.654  0.2504 -0.6953 -1.5301
 4881TIP3   OH236277   1.331   4.040   0.305  0.1062  0.2586 -0.2690
 4881TIP3    H136278   1.423   4.036   0.279 -0.5897 -0.2476 -2.7782
 4881TIP3    H236279   1.304   3.948   0.311 -0.0508  0.3866  1.2510
 4882TIP3   OH236280   4.957   4.977   7.893 -0.1563  0.0830 -0.0512
 4882TIP3    H136281   4.953   5.047   7.958  0.0698 -0.1522  0.2145
 4882TIP3    H236282   5.025   4.918   7.925 -0.7299 -0.5534  0.0083
 4883TIP3   OH236283   5.181   6.369   7.462  0.6945  0.2494  0.1564
 4883TIP3    H136284   5.091   6.339   7.475  0.8791  0.4812  2.1318
 4883TIP3    H236285   5.187   6.388   7.368 -0.8750 -1.1680 -0.2590
 4884TIP3   OH236286   2.573   2.166   0.321 -0.1234  0.0413  0.0362
 4884TIP3    H136287   2.635   2.208   0.380  1.6058 -1.0424 -0.9795
 4884TIP3    H236288   2.548   2.085   0.365 -1.9182  1.1340  1.0793
 4885TIP3   OH236289   3.630   0.178   0.276  0.3660 -0.3735  0.2018
 4885TIP3    H136290   3.694   0.111   0.252  0.0006 -0.8059  0.4210
 4885TIP3    H236291   3.549   0.151   0.232 -0.0496 -0.6372  1.1201
 4886TIP3   OH236292   4.454   4.373   1.848  0.0073  0.3319 -0.5829
 4886TIP3    H136293   4.423   4.297   1.799 -0.3945 -0.0354  0.2248
 4886TIP3    H236294   4.418   4.361   1.936  1.5461  0.4510  0.0884
 4887TIP3   OH236295   1.912   1.101   6.078  0.0817 -0.4720  0.2491
 4887TIP3    H136296   1.953   1.043   6.013 -1.0371 -1.4372  0.3853
 4887TIP3    H236297   1.867   1.167   6.026  1.3570  0.2756  0.0907
 4888TIP3   OH236298   2.335   6.153   1.276 -0.4821 -0.5751  0.0245
 4888TIP3    H136299   2.271   6.221   1.251  0.1404  0.0582  0.1290
 4888TIP3    H236300   2.282   6.085   1.317 -1.1943 -0.4384 -0.6593
 4889TIP3   OH236301   0.808   0.908   1.904  0.0013  0.5431 -0.1203
 4889TIP3    H136302   0.737   0.972   1.904 -0.1436  0.3886  0.7822
 4889TIP3    H236303   0.870   0.941   1.839  0.2992  2.0267  0.8911
 4890TIP3   OH236304   6.506   2.393   1.785  0.4514 -0.4527  0.3467
 4890TIP3    H136305   6.508   2.442   1.867  1.6282  2.5208 -1.3450
 4890TIP3    H236306   6.598   2.376   1.765  0.3726  1.1212 -1.5595
 4891TIP3   OH236307   1.909   4.007   2.296  0.0004 -0.2457  0.9278
 4891TIP3    H136308   1.961   3.973   2.223 -0.2166  0.2081  0.5621
 4891TIP3    H236309   1.837   3.945   2.305  0.1015 -0.3750  0.8427
 4892TIP3   OH236310   4.064   3.045   7.476  0.7679 -0.0332 -0.9155
 4892TIP3    H136311   4.024   3.098   7.544  3.0349  2.5078 -1.4932
 4892TIP3    H236312   4.033   3.083   7.394 -0.1406 -1.6383 -1.3344
 4893TIP3   OH236313   6.816   2.838   0.984  0.1065  0.1870  0.9966
 4893TIP3    H136314   6.811   2.862   1.077  1.2977  0.7026  0.9355
 4893TIP3    H236315   6.792   2.918   0.937 -0.7497 -0.1469  0.8538
 4894TIP3   OH236316   3.729   6.964   1.267  0.0536 -0.5500 -1.1843
 4894TIP3    H136317   3.801   6.928   1.215 -0.3313 -0.5618 -1.7101
 4894TIP3    H236318   3.753   6.945   1.358  0.5581 -0.8391 -1.3787
 4895TIP3   OH236319   0.957   3.302   7.839  0.4855 -0.0916  0.4375
 4895TIP3    H136320   0.902   3.266   7.910  0.3012 -0.0237  0.3297
 4895TIP3    H236321   0.929   3.254   7.761 -1.0270  1.5353 -0.0419
 4896TIP3   OH236322   2.758   3.306   2.464 -0.0563 -0.2605  0.0800
 4896TIP3    H136323   2.820   3.305   2.537  1.3267  1.8607 -1.0224
 4896TIP3    H236324   2.747   3.399   2.443 -0.7023 -0.8198 -2.2081
 4897TIP3   OH236325   4.671   2.766   0.158  0.0750 -0.1470  0.3958
 4897TIP3    H136326   4.634   2.800   0.077 -1.2412 -1.0623  0.6063
 4897TIP3    H236327   4.759   2.737   0.134  0.4693  1.4925 -0.2294
 4898TIP3   OH236328   4.260   2.555   0.898  0.9817  0.1514 -0.1339
 4898TIP3    H136329   4.289   2.590   0.813  0.3382 -1.7300 -1.1348
 4898TIP3    H236330   4.215   2.629   0.940  0.7969  0.9233 -1.6617
 4899TIP3   OH236331   1.306   1.133   7.988  0.4419 -0.7432  0.4519
 4899TIP3    H136332   1.279   1.069   7.922  0.2590  0.5184 -0.7130
 4899TIP3    H236333   1.225   1.168   8.023  0.5422 -0.7971  0.7386
 4900TIP3   OH236334   3.219   1.359   0.406 -0.3200  0.1878 -0.2121
 4900TIP3    H136335   3.236   1.287   0.345  0.4573  0.9403 -0.8711
 4900TIP3    H236336   3.291   1.354   0.469 -2.5888 -2.3545  2.3357
 4901TIP3   OH236337   3.540   5.559   0.656 -0.2356  0.1798  0.1898
 4901TIP3    H136338   3.486   5.565   0.735  0.0423 -1.8526  0.5416
 4901TIP3    H236339   3.567   5.650   0.639 -1.1609  0.7755  1.8167
 4902TIP3   OH236340   2.949   3.073   6.304  0.1678  0.5478  0.2682
 4902TIP3    H136341   3.039   3.088   6.332  0.6832  1.0811 -1.5995
 4902TIP3    H236342   2.896   3.129   6.360  1.3352  3.0138 -1.0077
 4903TIP3   OH236343   3.164   2.855   0.563  0.2209 -0.5910 -0.1293
 4903TIP3    H136344   3.119   2.931   0.528  1.6632  0.6709  0.7076
 4903TIP3    H236345   3.184   2.878   0.654 -0.1379 -2.3282  0.4151
 4904TIP3   OH236346   5.313   5.161   6.830  0.1354  0.0025  0.1221
 4904TIP3    H136347   5.373   5.215   6.780  2.6789 -0.8763  2.0968
 4904TIP3    H236348   5.335   5.179   6.922 -0.5418 -2.5905  0.8434
 4905TIP3   OH236349   5.227   4.650   2.038  0.3175 -0.2492  0.5478
 4905TIP3    H136350   5.309   4.696   2.021 -1.2614  1.7158 -2.3379
 4905TIP3    H236351   5.168   4.717   2.072 -0.7741 -1.0635  0.3138
 4906TIP3   OH236352   3.238   3.622   1.058  0.3923  0.1495  0.0968
 4906TIP3    H136353   3.229   3.534   1.094 -0.5638 -0.0492 -0.5988
 4906TIP3    H236354   3.260   3.608   0.966 -0.0236  0.6287 -0.0805
 4907TIP3   OH236355   1.934   3.344   1.529  0.3606 -0.6144  0.2932
 4907TIP3    H136356   1.970   3.299   1.453 -2.1775 -1.4186 -0.5118
 4907TIP3    H236357   1.875   3.410   1.493  0.5991  0.2955  1.5357
 4908TIP3   OH236358   4.671   2.394   1.778 -0.3493 -0.0935  0.6267
 4908TIP3    H136359   4.655   2.454   1.706 -1.7974  1.5739  2.2651
 4908TIP3    H236360   4.583   2.369   1.809  0.2157 -2.8438  0.1756
 4909TIP3   OH236361   2.827   1.253   1.708 -0.2320 -0.3528  0.2683
 4909TIP3    H136362   2.751   1.228   1.762  1.5412 -1.0758  2.4866
 4909TIP3    H236363   2.882   1.304   1.766  2.3881 -2.2915 -0.4186
 4910TIP3   OH236364   4.954   2.328   2.122 -0.1155 -0.5116 -0.4079
 4910TIP3    H136365   4.933   2.257   2.061 -1.5830 -1.1333  0.7869
 4910TIP3    H236366   5.020   2.289   2.180 -0.5723 -0.7599 -0.0476
 4911TIP3   OH236367   5.484   6.453   6.469  0.1919 -0.2436  0.2559
 4911TIP3    H136368   5.470   6.410   6.384  0.0711 -0.4267  0.3683
 4911TIP3    H236369   5.443   6.394   6.532 -2.9407  1.6223  0.0898
 4912TIP3   OH236370   3.993   3.608   0.826 -0.1989  0.2020  0.7686
 4912TIP3    H136371   4.084   3.578   0.828 -0.3706 -0.3000  0.9439
 4912TIP3    H236372   3.967   3.600   0.734 -0.2439 -0.1808  0.8149
 4913TIP3   OH236373   4.201   4.053   7.766 -0.2892 -0.1427  0.5971
 4913TIP3    H136374   4.122   4.104   7.748 -1.1636 -1.1399  1.4826
 4913TIP3    H236375   4.232   4.086   7.851 -0.7842 -0.9795  1.1092
 4914TIP3   OH236376   0.519   2.367   0.567  0.3934 -0.0523  0.0022
 4914TIP3    H136377   0.497   2.391   0.657  1.0889  0.2418  0.0982
 4914TIP3    H236378   0.583   2.297   0.576 -0.1956 -0.6346 -0.2740
 4915TIP3   OH236379   5.938   0.391   0.224 -0.0124  0.4992 -0.0117
 4915TIP3    H136380   5.936   0.313   0.169 -1.9876  1.1877 -0.9875
 4915TIP3    H236381   5.921   0.359   0.313 -1.8860 -0.0991 -0.5540
 4916TIP3   OH236382   2.698   6.353   1.336 -0.2852 -0.2794 -0.3842
 4916TIP3    H136383   2.736   6.421   1.280  0.9727 -0.5649  0.0930
 4916TIP3    H236384   2.615   6.391   1.366  0.8325  1.4460  0.6300
 4917TIP3   OH236385   4.302   0.299   6.172  0.4843 -0.0621  0.1397
 4917TIP3    H136386   4.331   0.385   6.142 -0.2238 -1.2259 -4.2514
 4917TIP3    H236387   4.377   0.242   6.156 -0.1481 -0.8429 -0.0809
 4918TIP3   OH236388   0.474   6.630   1.059  0.5360  0.4094  0.0609
 4918TIP3    H136389   0.454   6.677   0.978  0.1358  1.0704  0.5326
 4918TIP3    H236390   0.511   6.697   1.117 -1.1127  0.4268  1.1452
 4919TIP3   OH236391   6.664   5.903   7.152  0.5906 -0.5886  0.3760
 4919TIP3    H136392   6.576   5.939   7.144  0.4842 -0.6476  1.2105
 4919TIP3    H236393   6.687   5.874   7.064 -0.9667 -2.3353  0.5123
 4920TIP3   OH236394   2.873   5.023   0.523  0.2832  0.4103 -0.4618
 4920TIP3    H136395   2.926   4.980   0.457  1.3714  2.0517 -0.6742
 4920TIP3    H236396   2.787   5.033   0.482  0.0836 -1.2909 -0.4986
 4921TIP3   OH236397   2.232   3.596   0.296  0.4835 -0.0580  0.1126
 4921TIP3    H136398   2.239   3.648   0.375 -0.0352  1.0877 -0.5938
 4921TIP3    H236399   2.163   3.637   0.245  0.7517 -0.8323 -0.9042
 4922TIP3   OH236400   3.017   2.922   0.192  0.0839  0.0370  0.4225
 4922TIP3    H136401   3.005   2.888   0.103  0.2067  0.3310  0.2944
 4922TIP3    H236402   3.077   2.860   0.233  0.9749  0.5594 -0.0795
 4923TIP3   OH236403   3.786   6.618   6.932  0.4526 -0.1876 -0.4783
 4923TIP3    H136404   3.701   6.655   6.908 -0.2115 -1.5969 -0.4073
 4923TIP3    H236405   3.818   6.579   6.850  1.0059  0.2868 -0.4899
 4924TIP3   OH236406   3.320   4.933   6.516  0.3705 -0.6371 -0.0455
 4924TIP3    H136407   3.291   4.910   6.604  2.1073 -1.1966  0.4072
 4924TIP3    H236408   3.239   4.949   6.467 -0.5682  2.3722  2.3544
 4925TIP3   OH236409   5.546   3.315   2.010 -0.4401 -0.7648  0.5181
 4925TIP3    H136410   5.556   3.225   1.981 -1.1444 -0.8526  0.5295
 4925TIP3    H236411   5.462   3.343   1.972 -0.1960 -0.0976  0.4566
 4926TIP3   OH236412   4.980   5.241   0.603 -0.7176  0.6583 -0.3982
 4926TIP3    H136413   5.075   5.228   0.601 -0.6960  0.9379 -3.7297
 4926TIP3    H236414   4.953   5.203   0.686  1.9612 -2.1075 -0.6844
 4927TIP3   OH236415   3.928   5.382   7.780 -0.0816 -0.0251 -0.5532
 4927TIP3    H136416   3.908   5.474   7.797 -3.5119 -1.1340  1.9243
 4927TIP3    H236417   3.849   5.348   7.737  1.2944 -1.7519 -1.8019
 4928TIP3   OH236418   4.899   3.618   5.693  0.0680  0.3792 -0.5958
 4928TIP3    H136419   4.825   3.562   5.718 -0.4549  2.5741  3.2159
 4928TIP3    H236420   4.861   3.683   5.634 -0.3247 -0.4794 -1.3014
 4929TIP3   OH236421   2.701   3.424   2.024 -0.2242  0.5041 -0.3024
 4929TIP3    H136422   2.777   3.372   2.048  1.1212  1.8684 -1.5210
 4929TIP3    H236423   2.629   3.361   2.020  0.9089 -0.8594  0.4584
 4930TIP3   OH236424   6.983   5.638   0.516  0.1289 -0.3282  0.4753
 4930TIP3    H136425   6.924   5.641   0.441  0.1384  0.5579  0.5034
 4930TIP3    H236426   7.009   5.729   0.531  2.4783 -0.8479 -0.3004
 4931TIP3   OH236427   1.777   0.199   6.980 -0.8135 -0.6829 -0.3410
 4931TIP3    H136428   1.859   0.229   7.019 -0.2589 -3.2380  0.5597
 4931TIP3    H236429   1.781   0.229   6.890  1.2979 -1.0751 -0.4093
 4932TIP3   OH236430   2.616   3.207   7.399  0.5356 -0.2042 -0.0203
 4932TIP3    H136431   2.683   3.166   7.344 -1.2472 -0.9146 -1.7119
 4932TIP3    H236432   2.605   3.148   7.473  1.1257 -0.5586 -0.2157
 4933TIP3   OH236433   1.238   1.771   1.059 -0.1469  0.6111 -0.0050
 4933TIP3    H136434   1.166   1.739   1.005  0.3417  0.1619 -0.3864
 4933TIP3    H236435   1.317   1.738   1.017  0.2573  0.6344  0.7311
 4934TIP3   OH236436   4.503   2.158   6.949  0.2904  0.0519  0.0780
 4934TIP3    H136437   4.467   2.134   7.035 -1.9010 -0.8536 -1.0360
 4934TIP3    H236438   4.427   2.155   6.890  1.6577  1.1792 -1.7937
 4935TIP3   OH236439   4.736   6.819   6.391  0.7506 -0.1545  0.3325
 4935TIP3    H136440   4.793   6.822   6.314 -0.3013  1.2132 -0.4006
 4935TIP3    H236441   4.776   6.882   6.452  0.4291  0.3033  0.0798
 4936TIP3   OH236442   4.501   2.485   0.525 -0.5381  0.3258  0.4855
 4936TIP3    H136443   4.523   2.506   0.616 -0.5985  0.1886  0.5313
 4936TIP3    H236444   4.543   2.554   0.474  0.7336 -0.4163  0.5081
 4937TIP3   OH236445   2.204   3.051   0.095  0.0902 -0.3077  0.1169
 4937TIP3    H136446   2.158   3.092   0.021  0.4804  1.5232  0.8727
 4937TIP3    H236447   2.296   3.053   0.070  0.1871 -0.0003  0.4872
 4938TIP3   OH236448   4.044   1.981   1.614  0.1881 -0.1621  0.1350
 4938TIP3    H136449   4.094   1.925   1.673  0.3944  1.1123  1.1893
 4938TIP3    H236450   4.009   2.051   1.670 -0.8516  0.2479 -0.9873
 4939TIP3   OH236451   2.641   0.424   0.227  0.1873 -0.6550  0.5001
 4939TIP3    H136452   2.705   0.494   0.238  0.2976 -0.6494 -0.1559
 4939TIP3    H236453   2.639   0.408   0.132 -0.4876 -0.9250  0.5575
 4940TIP3   OH236454   2.879   2.806   0.502 -0.4500 -0.4581 -0.0349
 4940TIP3    H136455   2.946   2.809   0.571 -0.8852  1.0645  0.3500
 4940TIP3    H236456   2.806   2.856   0.539 -1.3115 -1.0320 -0.9603
 4941TIP3   OH236457   4.753   0.159   7.876 -0.2673 -0.0695  0.2081
 4941TIP3    H136458   4.702   0.173   7.956 -0.2312  1.3359  0.0061
 4941TIP3    H236459   4.696   0.106   7.821 -1.2159  0.8633  0.2804
 4942TIP3   OH236460   1.144   1.746   0.444  0.1832 -0.0825  0.2483
 4942TIP3    H136461   1.096   1.768   0.524  0.5575 -1.7788  0.9660
 4942TIP3    H236462   1.096   1.672   0.408  0.3043  0.3683 -0.8553
 4943TIP3   OH236463   6.534   0.335   1.748 -0.2891 -0.4942 -0.5699
 4943TIP3    H136464   6.567   0.246   1.762 -2.9555 -1.5987 -1.0041
 4943TIP3    H236465   6.510   0.365   1.836  0.8477 -0.0842 -0.3896
 4944TIP3   OH236466   3.859   2.523   0.858  0.1662 -0.1411 -0.1963
 4944TIP3    H136467   3.846   2.429   0.869 -0.1217 -0.1494 -0.6087
 4944TIP3    H236468   3.771   2.560   0.861  0.3899  0.3056  1.6533
 4945TIP3   OH236469   4.762   4.357   0.590 -0.0286 -0.8538  0.0563
 4945TIP3    H136470   4.735   4.351   0.682 -2.5401 -0.4139 -0.5895
 4945TIP3    H236471   4.790   4.447   0.579 -2.9805  0.0705 -0.3714
 4946TIP3   OH236472   5.743   3.611   1.185  0.0257 -0.5896  0.4500
 4946TIP3    H136473   5.684   3.674   1.227 -0.5679 -2.5624  2.7008
 4946TIP3    H236474   5.830   3.635   1.219 -0.3198 -1.5116  2.0739
 4947TIP3   OH236475   3.552   1.169   0.765  0.1497  0.1953  0.0184
 4947TIP3    H136476   3.554   1.079   0.734 -4.4503  0.2865 -0.7957
 4947TIP3    H236477   3.535   1.161   0.859  0.6963  0.2150  0.1213
 4948TIP3   OH236478   0.791   0.348   7.282  0.1669 -0.2316 -0.3525
 4948TIP3    H136479   0.743   0.384   7.356 -1.5199  0.5022 -1.7616
 4948TIP3    H236480   0.744   0.268   7.260 -0.1506  0.2519 -1.4563
 4949TIP3   OH236481   2.384   2.945   1.481  0.2424 -0.1359  0.2389
 4949TIP3    H136482   2.472   2.909   1.472 -0.1544 -0.6258 -2.2343
 4949TIP3    H236483   2.389   3.005   1.555  3.1683  1.3424 -1.0919
 4950TIP3   OH236484   1.524   3.514   0.017 -0.0547 -0.6758 -0.4842
 4950TIP3    H136485   1.573   3.559  -0.051  1.3873  2.9835  2.7580
 4950TIP3    H236486   1.587   3.500   0.087 -2.3958 -0.5337  1.7321
 4951TIP3   OH236487   3.972   3.371   1.033  0.3357  0.0739  0.6720
 4951TIP3    H136488   3.897   3.397   0.980 -0.4117 -0.7198  1.3197
 4951TIP3    H236489   4.010   3.454   1.062 -0.6717  0.4873  0.8529
 4952TIP3   OH236490   0.733   1.437   7.140  0.3162 -0.0177 -0.4713
 4952TIP3    H136491   0.722   1.495   7.216  0.8783  0.7429 -0.9697
 4952TIP3    H236492   0.659   1.376   7.146 -0.8164  1.3182 -0.4539
 4953TIP3   OH236493   6.468   4.240   1.173 -0.0027 -0.3607  0.3637
 4953TIP3    H136494   6.533   4.208   1.110 -1.2008  0.9017 -1.5758
 4953TIP3    H236495   6.486   4.192   1.253  3.7304  0.4270  0.0508
 4954TIP3   OH236496   3.841   5.042   0.335 -0.2564 -0.3234  1.0640
 4954TIP3    H136497   3.891   5.072   0.259 -0.1087 -0.4887  1.0963
 4954TIP3    H236498   3.760   5.094   0.333  0.0517  0.1706  1.1913
 4955TIP3   OH236499   3.053   1.996   2.005  0.4232 -0.3009 -0.0882
 4955TIP3    H136500   3.118   1.932   1.976  0.0385 -0.7517  0.0441
 4955TIP3    H236501   2.970   1.962   1.973  0.2577  0.3105 -0.3181
 4956TIP3   OH236502   6.823   3.252   7.849 -0.0067  0.1030 -0.6866
 4956TIP3    H136503   6.908   3.276   7.884 -0.2239  1.4873 -1.0912
 4956TIP3    H236504   6.841   3.228   7.758 -0.0034  0.1153 -0.6890
 4957TIP3   OH236505   4.467   5.460   7.800  0.5378  0.0069  0.0138
 4957TIP3    H136506   4.538   5.430   7.743  1.1413 -2.3574  1.9708
 4957TIP3    H236507   4.388   5.428   7.758  0.8920 -0.7063 -0.1153
 4958TIP3   OH236508   0.787   3.421   0.001 -0.0079  0.3585  0.1708
 4958TIP3    H136509   0.758   3.502   0.043  0.5033  1.0422 -0.7651
 4958TIP3    H236510   0.877   3.409   0.031 -0.0824  0.1333  0.3062
 4959TIP3   OH236511   2.020   2.787   7.939  0.5579 -0.9988  0.5104
 4959TIP3    H136512   1.983   2.746   8.018  1.1340 -1.0310  0.7679
 4959TIP3    H236513   2.115   2.777   7.949  0.6652 -0.3829  0.1463
 4960TIP3   OH236514   3.121   4.065   7.971  0.2028  0.5517 -0.8358
 4960TIP3    H136515   3.108   4.114   8.052  1.0834  0.6975 -0.7733
 4960TIP3    H236516   3.210   4.030   7.978 -1.3892 -3.6243  0.4934
 4961TIP3   OH236517   1.108   1.621   0.719 -0.4123 -0.3630 -0.7065
 4961TIP3    H136518   1.092   1.578   0.635 -2.9925 -1.4543  0.2997
 4961TIP3    H236519   1.118   1.549   0.782  1.0845  0.4507  0.0155
 4962TIP3   OH236520   3.126   5.451   7.965 -0.0133 -0.1249 -0.2136
 4962TIP3    H136521   3.031   5.442   7.958 -0.0929  1.0362 -0.8428
 4962TIP3    H236522   3.161   5.381   7.910 -0.4758 -1.5014  1.2037
 4963TIP3   OH236523   1.383   6.946   7.519 -0.2373  0.2646  0.2482
 4963TIP3    H136524   1.349   6.898   7.594 -0.7827 -2.9704 -1.9856
 4963TIP3    H236525   1.469   6.908   7.503 -0.2835  0.6441 -0.9815
 4964TIP3   OH236526   2.527   0.235   1.466 -0.4228 -0.3930  0.0836
 4964TIP3    H136527   2.595   0.232   1.533 -1.3510 -2.3532  0.9843
 4964TIP3    H236528   2.451   0.272   1.511 -1.0199 -1.6331  0.1229
 4965TIP3   OH236529   1.527   2.127   1.475  0.6374 -0.0993 -0.0728
 4965TIP3    H136530   1.577   2.189   1.527 -0.2250 -0.8799  1.7517
 4965TIP3    H236531   1.549   2.041   1.512  0.1078 -0.6938 -1.0966
 4966TIP3   OH236532   2.765   0.992   7.771  0.1933  0.0164  0.0339
 4966TIP3    H136533   2.790   0.980   7.680 -1.8944 -0.2864 -0.5053
 4966TIP3    H236534   2.840   0.956   7.820  1.2652  0.0573 -1.5261
 4967TIP3   OH236535   2.875   2.837   0.902  0.3578  0.0183 -0.0156
 4967TIP3    H136536   2.954   2.886   0.883  1.1715 -0.3752  2.1526
 4967TIP3    H236537   2.806   2.881   0.853  1.0054  3.4770  1.9994
 4968TIP3   OH236538   5.727   4.251   0.221  0.6202  0.4884  0.6151
 4968TIP3    H136539   5.777   4.329   0.242  1.8171 -0.1475  0.1745
 4968TIP3    H236540   5.779   4.179   0.256  0.3518 -0.2302 -0.4365
 4969TIP3   OH236541   3.246   2.944   7.787 -0.0831 -0.0779  0.2816
 4969TIP3    H136542   3.277   2.878   7.725  0.2914 -0.5005  0.9042
 4969TIP3    H236543   3.316   2.951   7.852  0.2451  1.5618 -0.2404
 4970TIP3   OH236544   4.546   3.795   0.379  0.2214 -0.3779 -0.0482
 4970TIP3    H136545   4.590   3.725   0.331 -0.0474 -0.2174 -0.5287
 4970TIP3    H236546   4.583   3.876   0.343  0.2209 -0.2642  0.2055
 4971TIP3   OH236547   2.205   0.140   8.083  0.6896  0.2956  0.0530
 4971TIP3    H136548   2.210   0.231   8.111  0.7397  1.0685 -2.3419
 4971TIP3    H236549   2.269   0.095   8.138 -1.5578  1.0816  3.4207
 4972TIP3   OH236550   4.943   5.317   0.340  0.1419 -0.1226 -0.3222
 4972TIP3    H136551   4.961   5.263   0.417  0.8980 -0.4760 -0.7476
 4972TIP3    H236552   4.997   5.280   0.271 -0.9979 -0.1923 -1.2010
 4973TIP3   OH236553   3.298   0.686   7.600 -0.2042 -0.2932  0.3404
 4973TIP3    H136554   3.300   0.733   7.517  0.8386  0.7099  0.9221
 4973TIP3    H236555   3.310   0.754   7.667 -1.5104 -1.0220  1.3348
 4974TIP3   OH236556   1.611   1.250   0.972  1.1878  0.1994 -0.2824
 4974TIP3    H136557   1.625   1.222   0.881  2.0407  0.2605 -0.1759
 4974TIP3    H236558   1.598   1.169   1.020 -1.9308  0.2813 -0.8715
 4975TIP3   OH236559   0.992   3.393   0.213 -0.0189  0.0400  0.5347
 4975TIP3    H136560   1.064   3.341   0.176 -0.1893 -1.0717  1.7209
 4975TIP3    H236561   0.922   3.330   0.227 -1.1921  1.0893 -0.4470
 4976TIP3   OH236562   3.770   0.491   7.125  0.6003 -0.1725 -0.6055
 4976TIP3    H136563   3.834   0.484   7.054 -0.8327  1.6660 -2.1278
 4976TIP3    H236564   3.803   0.563   7.179  1.1036 -0.8505  0.0063
 4977TIP3   OH236565   4.279   6.699   1.895  0.4124 -0.0505  0.5975
 4977TIP3    H136566   4.210   6.751   1.855  0.4463  1.5544  2.5489
 4977TIP3    H236567   4.289   6.623   1.837 -2.2448  0.2126 -0.2545
 4978TIP3   OH236568   3.902   4.749   0.904 -0.0574 -0.1221 -0.3188
 4978TIP3    H136569   3.811   4.763   0.880 -0.4370 -1.1135  0.4903
 4978TIP3    H236570   3.910   4.785   0.992 -0.6121 -3.1912  1.0750
 4979TIP3   OH236571   1.926   1.877   0.644 -0.6942  0.0189 -0.4503
 4979TIP3    H136572   1.876   1.892   0.725  0.0256 -0.5553  0.1112
 4979TIP3    H236573   1.885   1.800   0.605 -0.2281 -0.4834  0.0373
 4980TIP3   OH236574   4.411   5.988   2.045 -0.2467 -0.1766 -0.6284
 4980TIP3    H136575   4.373   6.072   2.072 -0.0093  0.1302 -1.2506
 4980TIP3    H236576   4.436   5.946   2.128  2.7131  1.8102 -0.3970
 4981TIP3   OH236577   1.967   3.124   6.307 -0.5627  0.1400 -0.4355
 4981TIP3    H136578   1.921   3.055   6.354 -0.8516 -0.5919 -1.7909
 4981TIP3    H236579   1.899   3.187   6.284 -0.4308  0.4599  0.0245
 4982TIP3   OH236580   5.013   1.535   6.640 -0.2637  0.0558 -0.2189
 4982TIP3    H136581   5.023   1.530   6.545 -0.8165 -0.0733 -0.2723
 4982TIP3    H236582   4.998   1.628   6.657  5.1054  1.0094  0.2817
 4983TIP3   OH236583   6.744   2.175   0.156  0.6318 -0.5604  0.2937
 4983TIP3    H136584   6.763   2.264   0.124  0.4973 -0.2935  0.9462
 4983TIP3    H236585   6.827   2.128   0.146  1.0797  0.0194  1.2016
 4984TIP3   OH236586   1.512   4.447   0.734 -0.4248  0.5360 -0.2005
 4984TIP3    H136587   1.551   4.376   0.684 -0.2268  0.8315 -0.4627
 4984TIP3    H236588   1.432   4.469   0.686 -0.1105  0.9839 -0.5258
 4985TIP3   OH236589   3.996   4.646   0.678  0.3953  0.0215  0.1091
 4985TIP3    H136590   3.922   4.637   0.618  1.1905  0.4281 -0.9690
 4985TIP3    H236591   3.957   4.668   0.762 -0.9069 -3.0865  0.3741
 4986TIP3   OH236592   3.019   1.951   6.246  0.7482  0.1711  0.0742
 4986TIP3    H136593   2.967   1.883   6.287  1.4077 -0.1233  0.4383
 4986TIP3    H236594   2.959   1.996   6.187  0.1663 -0.3525  0.2678
 4987TIP3   OH236595   2.947   4.909   1.136  0.0275 -0.6225  0.1980
 4987TIP3    H136596   3.041   4.923   1.143  0.2452 -1.4886 -0.8031
 4987TIP3    H236597   2.917   4.899   1.226  1.1488 -1.8966  0.4491
 4988TIP3   OH236598   3.909   2.306   1.468 -0.5653 -0.5081  0.2851
 4988TIP3    H136599   3.968   2.372   1.430 -0.2305 -1.7942 -1.4639
 4988TIP3    H236600   3.939   2.298   1.559 -0.4252  1.5270  0.4532
 4989TIP3   OH236601   3.664   6.350   0.910  0.3583 -0.3428  0.4866
 4989TIP3    H136602   3.675   6.430   0.858  1.4361 -1.4251 -0.9646
 4989TIP3    H236603   3.743   6.299   0.893 -0.6579 -2.0518  0.8428
 4990TIP3   OH236604   4.662   1.439   0.587  0.3190  0.4012 -0.1401
 4990TIP3    H136605   4.650   1.357   0.636 -2.7514  0.8937 -0.0078
 4990TIP3    H236606   4.603   1.501   0.629  1.8946  2.4484 -0.8744
 4991TIP3   OH236607   5.493   0.405   0.819  0.2993  0.2738  0.0450
 4991TIP3    H136608   5.499   0.379   0.910  0.3940 -0.9299 -0.2975
 4991TIP3    H236609   5.578   0.382   0.781  0.3316  0.9432 -0.3006
 4992TIP3   OH236610   1.912   2.929   1.950 -0.0432  0.1191  0.0809
 4992TIP3    H136611   1.837   2.873   1.972  1.2508 -1.1520  1.3625
 4992TIP3    H236612   1.872   3.011   1.921 -1.9381 -0.5700  0.6262
 4993TIP3   OH236613   3.563   0.316   0.550 -0.6505 -0.5498 -0.1131
 4993TIP3    H136614   3.590   0.261   0.476 -2.4236 -0.2226 -1.0239
 4993TIP3    H236615   3.621   0.290   0.622  3.4055  1.4181 -2.4627
 4994TIP3   OH236616   4.488   3.150   0.462 -0.3056 -0.0892 -0.8105
 4994TIP3    H136617   4.487   3.061   0.428 -0.8843 -0.1474 -0.6398
 4994TIP3    H236618   4.579   3.178   0.452 -0.2712 -0.4405 -1.5391
 4995TIP3   OH236619   3.472   5.489   1.720  0.3059 -0.3232  0.3142
 4995TIP3    H136620   3.518   5.440   1.652  0.4477 -1.8595  1.4833
 4995TIP3    H236621   3.416   5.550   1.673  0.9523 -0.8534 -1.1588
 4996TIP3   OH236622   6.745   3.668   0.451  0.2064  0.8412 -0.4819
 4996TIP3    H136623   6.690   3.674   0.528  0.6889  0.5206 -0.1082
 4996TIP3    H236624   6.766   3.575   0.443  1.3931  1.0672 -0.1148
 4997TIP3   OH236625   6.027   1.738   8.027 -0.1694  0.4100 -0.0917
 4997TIP3    H136626   5.943   1.731   8.073 -0.2668 -0.4697 -0.3990
 4997TIP3    H236627   6.042   1.650   7.992  1.0386  0.4888  0.2340
 4998TIP3   OH236628   2.589   5.279   0.440 -0.8133 -0.0399 -0.3244
 4998TIP3    H136629   2.639   5.214   0.391 -0.6213  0.0989 -0.3127
 4998TIP3    H236630   2.543   5.228   0.507 -0.0332 -0.0712  0.1974
 4999TIP3   OH236631   6.318   6.212   6.906 -0.0194 -0.0050 -0.2180
 4999TIP3    H136632   6.357   6.152   6.842  0.3334  0.1791 -0.1791
 4999TIP3    H236633   6.291   6.288   6.855 -0.3777 -0.1557 -0.2521
 5000TIP3   OH236634   4.765   5.355   1.690 -0.4539  0.1283  0.8748
 5000TIP3    H136635   4.843   5.341   1.636 -1.6529 -0.9795 -0.6048
 5000TIP3    H236636   4.786   5.314   1.774 -0.5195 -2.7407 -0.4608
 5001TIP3   OH236637   1.952   2.531   1.219  0.4830  0.1732  0.3464
 5001TIP3    H136638   1.966   2.542   1.125  0.5127  0.1822  0.3520
 5001TIP3    H236639   2.029   2.483   1.249  0.4353  0.1001  0.3519
 5002TIP3   OH236640   5.436   4.459   1.317  0.3462  0.5125  0.4811
 5002TIP3    H136641   5.510   4.488   1.263 -0.7824  0.1273 -1.3084
 5002TIP3    H236642   5.441   4.363   1.315  0.3843  0.4973  1.1876
 5003TIP3   OH236643   4.896   0.701   6.803  0.3004 -0.5680  0.7520
 5003TIP3    H136644   4.901   0.700   6.898  1.4404 -0.7847  0.6990
 5003TIP3    H236645   4.983   0.727   6.774 -0.5140  1.2452 -0.2092
 5004TIP3   OH236646   5.290   2.858   6.665  0.5262  0.2871 -0.3405
 5004TIP3    H136647   5.295   2.918   6.591  1.7405 -1.1934 -1.4931
 5004TIP3    H236648   5.268   2.773   6.627 -1.1011 -0.0366  1.2539
 5005TIP3   OH236649   4.675   0.871   6.987 -0.3081  0.0604  0.2275
 5005TIP3    H136650   4.684   0.780   7.013  0.6760  0.5387  1.5877
 5005TIP3    H236651   4.764   0.906   6.988 -0.5362  0.7692 -1.3488
 5006TIP3   OH236652   4.853   2.181   1.115 -0.6693  0.5679 -0.4627
 5006TIP3    H136653   4.897   2.101   1.143 -0.5026  0.0281 -2.2129
 5006TIP3    H236654   4.762   2.170   1.145 -0.2242  0.5486  0.9027
 5007TIP3   OH236655   3.498   0.740   0.976 -0.1488  0.5300 -0.1202
 5007TIP3    H136656   3.411   0.757   1.012  0.2631  1.5132  0.4237
 5007TIP3    H236657   3.558   0.791   1.031  0.5298  1.8839 -2.0505
 5008TIP3   OH236658   2.956   2.460   7.808  0.5589 -0.0037 -0.0703
 5008TIP3    H136659   3.007   2.540   7.811  0.2998  0.1954 -0.8381
 5008TIP3    H236660   3.018   2.391   7.832  0.8242  0.4013  0.4150
 5009TIP3   OH236661   5.746   1.885   1.599 -0.0475 -0.0275 -0.0396
 5009TIP3    H136662   5.716   1.942   1.528  0.2369 -0.7175 -0.7262
 5009TIP3    H236663   5.756   1.799   1.557 -0.2381 -0.5248  0.9219
 5010TIP3   OH236664   4.459   2.584   0.140 -0.1023 -0.0127 -0.2169
 5010TIP3    H136665   4.506   2.629   0.210 -0.7665  0.9567 -0.3653
 5010TIP3    H236666   4.518   2.587   0.065  0.0663  0.1640 -0.0766
 5011TIP3   OH236667   2.930   3.219   0.805  0.3497 -0.4041  0.3550
 5011TIP3    H136668   2.855   3.180   0.759  0.6142 -1.3122  0.6800
 5011TIP3    H236669   2.980   3.144   0.836 -0.1764  0.1802  2.7079
 5012TIP3   OH236670   4.951   2.595   0.785  0.0364 -0.5554 -0.0044
 5012TIP3    H136671   5.006   2.528   0.744  0.7793 -0.5479  0.9587
 5012TIP3    H236672   4.897   2.548   0.847 -0.1360 -0.3890 -0.0270
 5013TIP3   OH236673   2.493   0.535   1.705 -0.3051 -0.8775 -0.1110
 5013TIP3    H136674   2.523   0.461   1.757  0.4078 -0.3414  0.2596
 5013TIP3    H236675   2.398   0.535   1.716  0.0075  0.8048  3.4269
 5014TIP3   OH236676   3.555   3.544   6.958  0.2910  0.2898  0.2440
 5014TIP3    H136677   3.568   3.491   6.880 -0.6728 -0.5803  0.6604
 5014TIP3    H236678   3.520   3.483   7.023 -3.3089  1.9058 -0.0561
 5015TIP3   OH236679   2.317   4.286   7.017 -0.1140 -0.0169 -0.0302
 5015TIP3    H136680   2.330   4.359   6.957  2.5554 -0.4968 -0.1211
 5015TIP3    H236681   2.232   4.302   7.057 -0.5557  1.9471 -1.6720
 5016TIP3   OH236682   3.538   0.611   1.850  0.5853  0.0826 -0.2221
 5016TIP3    H136683   3.491   0.662   1.917  2.1082 -0.7571  1.5424
 5016TIP3    H236684   3.626   0.650   1.849  0.8799 -0.5992 -0.9963
 5017TIP3   OH236685   3.329   6.720   7.881  0.2506 -0.1758 -0.0345
 5017TIP3    H136686   3.293   6.646   7.930  0.8959  0.7660  1.8955
 5017TIP3    H236687   3.422   6.720   7.902 -0.0127  2.1308  1.2444
 5018TIP3   OH236688   6.835   1.861   7.409 -0.4685 -0.2032 -0.1447
 5018TIP3    H136689   6.785   1.927   7.456 -0.3700  0.6569 -1.2273
 5018TIP3    H236690   6.869   1.803   7.478  0.4545  1.5684  0.9298
 5019TIP3   OH236691   5.505   4.997   0.784 -1.0673 -0.0589  0.5122
 5019TIP3    H136692   5.573   5.025   0.845 -0.6308 -0.2650  0.1234
 5019TIP3    H236693   5.436   5.064   0.793  0.3605  1.6773 -1.0855
 5020TIP3   OH236694   3.447   3.142   1.048  0.3424  0.5218  0.0943
 5020TIP3    H136695   3.386   3.113   1.116  0.6978 -0.2352  0.1012
 5020TIP3    H236696   3.504   3.066   1.033  1.8000  1.4935  0.6530
 5021TIP3   OH236697   3.361   4.685   1.858 -0.1030  0.0222 -0.1095
 5021TIP3    H136698   3.407   4.733   1.789  0.3823 -0.1689  0.0718
 5021TIP3    H236699   3.383   4.733   1.938 -0.9772  0.4648 -0.1383
 5022TIP3   OH236700   5.321   0.472   1.937  0.6523  0.0053 -0.2092
 5022TIP3    H136701   5.258   0.530   1.981 -2.1281 -1.8629 -1.5754
 5022TIP3    H236702   5.403   0.486   1.984 -1.2401  1.0648  2.9503
 5023TIP3   OH236703   1.606   3.916   0.598 -0.1848  0.0150  0.1216
 5023TIP3    H136704   1.577   3.877   0.680 -0.1445  0.0639  0.1589
 5023TIP3    H236705   1.561   3.865   0.530  1.1949 -1.2121  0.1064
 5024TIP3   OH236706   3.539   5.276   0.280  0.4928 -0.5044  0.3646
 5024TIP3    H136707   3.531   5.245   0.190  0.9337 -0.1202  0.1932
 5024TIP3    H236708   3.499   5.363   0.279  0.9917 -0.2726  0.4154
 5025TIP3   OH236709   5.032   4.055   0.572  0.3130 -0.0265  0.0806
 5025TIP3    H136710   5.035   4.118   0.499 -1.8352 -0.9267 -0.8186
 5025TIP3    H236711   5.037   3.970   0.529 -1.0078 -0.5630  0.9969
 5026TIP3   OH236712   5.901   4.544   0.644 -0.4601  0.6777  0.7920
 5026TIP3    H136713   5.981   4.520   0.597 -1.3446  0.4695 -0.6632
 5026TIP3    H236714   5.868   4.462   0.679 -1.3246  0.3454 -0.7231
 5027TIP3   OH236715   2.300   3.241   7.401  0.3820 -0.0032  0.0744
 5027TIP3    H136716   2.245   3.269   7.328 -1.8651  0.2887  1.8173
 5027TIP3    H236717   2.361   3.314   7.414  0.6542  0.0340 -1.3325
 5028TIP3   OH236718   3.120   3.757   0.480 -0.3260  0.1165 -0.3813
 5028TIP3    H136719   3.190   3.822   0.485 -1.2578  1.1161 -0.2750
 5028TIP3    H236720   3.052   3.790   0.538 -1.3258 -0.3265 -1.2828
 5029TIP3   OH236721   2.092   6.054   0.083  0.5841  0.4131  0.2706
 5029TIP3    H136722   2.012   6.096   0.051  0.2832 -0.2093  0.2014
 5029TIP3    H236723   2.150   6.127   0.103  0.3807  0.8526 -0.6660
 5030TIP3   OH236724   2.038   4.797   6.614  0.3628 -0.0967 -0.3203
 5030TIP3    H136725   2.065   4.782   6.524 -0.4209  1.8737 -0.9240
 5030TIP3    H236726   2.008   4.888   6.615  0.0979 -0.1748  1.8638
 5031TIP3   OH236727   3.612   3.555   2.075 -1.1260 -0.4193  0.4679
 5031TIP3    H136728   3.622   3.648   2.095  0.9486 -0.3376 -0.8594
 5031TIP3    H236729   3.687   3.514   2.118 -0.6880 -1.1637 -1.0011
 5032TIP3   OH236730   2.364   2.359   0.300 -0.3998  0.9756  0.8435
 5032TIP3    H136731   2.424   2.289   0.275 -0.8170  0.9434 -0.0837
 5032TIP3    H236732   2.298   2.315   0.354 -2.0827  0.1276 -1.7900
 5033TIP3   OH236733   2.404   1.489   8.045 -0.3236 -0.1874  0.5211
 5033TIP3    H136734   2.309   1.493   8.056 -0.4580 -1.4482 -0.0689
 5033TIP3    H236735   2.419   1.534   7.961 -0.6118 -1.6989 -0.3560
 5034TIP3   OH236736   0.559   3.230   7.760 -0.1870 -0.4871  0.4648
 5034TIP3    H136737   0.554   3.309   7.815  0.6567  0.8457 -1.3243
 5034TIP3    H236738   0.488   3.240   7.697  0.8235 -0.4332 -0.6836
 5035TIP3   OH236739   4.494   5.315   1.665  0.3478 -0.1262 -0.2948
 5035TIP3    H136740   4.455   5.398   1.695  1.4127  0.9066 -1.6588
 5035TIP3    H236741   4.586   5.336   1.653  1.1516 -2.2500  1.8692
 5036TIP3   OH236742   6.819   2.503   7.341 -0.1145 -0.1855 -0.2098
 5036TIP3    H136743   6.732   2.468   7.324  0.1801 -0.1710 -1.8917
 5036TIP3    H236744   6.863   2.499   7.256  1.7316 -0.7779  0.7371
 5037TIP3   OH236745   2.468   1.536   1.215 -0.4449 -0.0306 -0.1682
 5037TIP3    H136746   2.474   1.530   1.120  0.8617  1.6768 -0.2013
 5037TIP3    H236747   2.488   1.447   1.246 -0.1625 -0.4139 -1.4337
 5038TIP3   OH236748   4.193   5.538   1.098 -0.3885  0.0732 -1.1316
 5038TIP3    H136749   4.150   5.596   1.035  0.2648 -1.5405 -3.1378
 5038TIP3    H236750   4.136   5.461   1.102 -0.6538  0.3451  0.6163
 5039TIP3   OH236751   3.656   4.121   7.617  0.4060 -0.4071 -0.2050
 5039TIP3    H136752   3.615   4.176   7.551 -0.8535 -0.8895  0.1609
 5039TIP3    H236753   3.722   4.177   7.658  0.6067  0.1522 -1.2839
 5040TIP3   OH236754   2.856   2.081   8.018  0.1982 -0.0768  0.0737
 5040TIP3    H136755   2.813   2.158   7.982  1.9877  0.5171 -0.8388
 5040TIP3    H236756   2.865   2.021   7.944  0.1046 -0.5736  0.4584
 5041TIP3   OH236757   2.608   3.158   1.418 -0.7384  0.1261 -0.1030
 5041TIP3    H136758   2.656   3.075   1.413 -1.5238 -0.2936 -0.6303
 5041TIP3    H236759   2.658   3.210   1.482 -2.0229 -1.9401  2.7069
 5042TIP3   OH236760   4.301   5.469   6.524  0.2013  0.6878 -0.3839
 5042TIP3    H136761   4.267   5.406   6.586  1.0117  0.5190 -0.0994
 5042TIP3    H236762   4.284   5.430   6.438  2.3255 -0.8063 -0.1757
 5043TIP3   OH236763   2.612   1.618   7.568 -0.3269  0.2162  0.0129
 5043TIP3    H136764   2.623   1.675   7.493  1.0003 -0.7625 -0.5544
 5043TIP3    H236765   2.600   1.531   7.531  1.1968 -0.4129  0.9413
 5044TIP3   OH236766   2.958   4.785   7.036  0.0576 -0.0214  0.1312
 5044TIP3    H136767   2.903   4.742   7.101 -1.0600 -0.6999 -1.2370
 5044TIP3    H236768   2.960   4.876   7.063 -0.1654 -0.3459  1.2734
 5045TIP3   OH236769   2.524   3.271   1.741  0.0082  0.5812  0.0655
 5045TIP3    H136770   2.557   3.200   1.795  0.3484 -0.1615 -1.1053
 5045TIP3    H236771   2.588   3.280   1.670 -1.5208  0.0762 -1.4314
 5046TIP3   OH236772   3.369   2.504   2.170 -0.1056 -0.1496 -0.1099
 5046TIP3    H136773   3.333   2.588   2.140  0.8488  1.2957  2.6119
 5046TIP3    H236774   3.460   2.524   2.193  0.7673 -2.4513 -1.4217
 5047TIP3   OH236775   3.161   3.782   7.692  0.1461  0.7467  0.2101
 5047TIP3    H136776   3.209   3.865   7.692  0.6101  0.5033  2.1369
 5047TIP3    H236777   3.075   3.804   7.726 -0.1064  0.6299 -0.3429
 5048TIP3   OH236778   0.859   0.737   8.100  0.3262  0.1941 -0.1345
 5048TIP3    H136779   0.792   0.804   8.116  1.6451  1.4189  0.4282
 5048TIP3    H236780   0.902   0.766   8.020 -1.7524 -2.2227 -2.2165
 5049TIP3   OH236781   4.939   1.004   0.331 -0.4465  0.1745 -0.1923
 5049TIP3    H136782   4.877   0.968   0.268 -1.1378  0.3753  0.3518
 5049TIP3    H236783   4.955   0.933   0.393 -1.3363  0.5847  0.5342
 5050TIP3   OH236784   5.678   2.842   0.787 -0.0299  0.1350  0.7787
 5050TIP3    H136785   5.681   2.872   0.878 -0.4465 -0.7152  1.0755
 5050TIP3    H236786   5.625   2.908   0.742  0.8598  0.9971  0.9787
 5051TIP3   OH236787   3.668   0.488   0.819 -0.0608 -0.5001  0.0273
 5051TIP3    H136788   3.615   0.519   0.892  1.2473  0.8275  0.4320
 5051TIP3    H236789   3.613   0.502   0.742 -0.4119  0.6312  0.4680
 5052TIP3   OH236790   2.097   0.071   1.674  0.4577  0.2509  0.1553
 5052TIP3    H136791   2.018   0.111   1.712  0.4139  0.2207  0.0948
 5052TIP3    H236792   2.166   0.091   1.737  0.1160 -0.9878  0.9374
 5053TIP3   OH236793   5.148   2.443   7.645  0.0009  0.1294 -0.4999
 5053TIP3    H136794   5.150   2.538   7.660  0.1850  0.0031  0.2765
 5053TIP3    H236795   5.231   2.425   7.600  1.6451 -0.1899  2.5507
 5054TIP3   OH236796   4.442   3.648   2.285 -0.5645 -0.0315  0.7775
 5054TIP3    H136797   4.369   3.647   2.346 -2.7619 -0.5036 -1.7783
 5054TIP3    H236798   4.472   3.557   2.282 -0.1984  0.0633  1.4100
 5055TIP3   OH236799   5.114   3.091   1.531  0.2436 -0.7476 -0.6110
 5055TIP3    H136800   5.042   3.048   1.579  0.1095  0.2432  0.0735
 5055TIP3    H236801   5.080   3.178   1.511  0.7575 -0.7465 -1.4621
 5056TIP3   OH236802   4.998   2.415   7.882  0.2525  0.6927 -0.1977
 5056TIP3    H136803   4.947   2.493   7.860 -0.5099 -0.0579 -1.1680
 5056TIP3    H236804   5.046   2.394   7.801  1.4474  0.8835  0.4384
 5057TIP3   OH236805   3.500   0.223   7.632 -0.2695  0.0853  0.0355
 5057TIP3    H136806   3.491   0.312   7.667 -0.1721 -0.6522  2.0274
 5057TIP3    H236807   3.422   0.212   7.577  0.1978  1.7211 -1.0034
 5058TIP3   OH236808   6.408   1.349   7.004  0.8704  0.2592 -0.2282
 5058TIP3    H136809   6.377   1.396   7.081  0.5496 -1.5776  0.7949
 5058TIP3    H236810   6.499   1.327   7.024  0.8358 -0.0765 -0.4304
 5059TIP3   OH236811   6.538   3.250   6.256  0.4288 -0.0393 -0.4459
 5059TIP3    H136812   6.519   3.201   6.176  0.5291 -2.2493  0.8522
 5059TIP3    H236813   6.484   3.210   6.323  1.3062  0.9429  0.8859
 5060TIP3   OH236814   1.786   6.995   7.842  0.1706 -0.0865 -1.1859
 5060TIP3    H136815   1.880   6.984   7.853  0.0826 -0.7451 -1.0886
 5060TIP3    H236816   1.766   7.076   7.890  0.4542 -0.6998 -0.0131
 5061TIP3   OH236817   4.705   5.810   0.156  0.0828  0.5677 -0.0322
 5061TIP3    H136818   4.800   5.801   0.148 -0.1202 -0.8344 -1.0083
 5061TIP3    H236819   4.683   5.878   0.093  0.6299  2.1323  1.4253
 5062TIP3   OH236820   5.660   2.058   2.260  0.2785 -0.1975  0.2067
 5062TIP3    H136821   5.565   2.060   2.271  0.2347 -0.9155  0.0317
 5062TIP3    H236822   5.693   2.015   2.340  0.5343  0.8883  0.6935
 5063TIP3   OH236823   5.268   5.883   7.210  0.1578 -0.8405  0.2166
 5063TIP3    H136824   5.287   5.965   7.257  1.6457 -0.6454 -0.6731
 5063TIP3    H236825   5.333   5.881   7.139 -2.5032 -0.7383 -2.3113
 5064TIP3   OH236826   4.705   3.113   7.262 -0.5296  0.6205 -0.3172
 5064TIP3    H136827   4.753   3.148   7.337 -0.7340  1.3156 -0.5074
 5064TIP3    H236828   4.615   3.144   7.274 -0.3754  1.4803 -1.3048
 5065TIP3   OH236829   4.896   1.175   1.157  0.2574  0.5426  0.0048
 5065TIP3    H136830   4.827   1.112   1.179  1.9681 -1.2833  0.4028
 5065TIP3    H236831   4.908   1.226   1.237  0.1513  0.0787  0.3237
 5066TIP3   OH236832   6.654   1.834   6.653 -0.5279  0.0480  0.3053
 5066TIP3    H136833   6.701   1.768   6.704 -1.0593 -1.1786 -0.7741
 5066TIP3    H236834   6.583   1.786   6.611 -0.4943  1.1692 -1.0630
 5067TIP3   OH236835   2.452   5.523   1.498  0.4281  0.5258  0.1905
 5067TIP3    H136836   2.418   5.437   1.474  0.9063  0.5621 -0.6059
 5067TIP3    H236837   2.411   5.583   1.436  0.5682  0.7934  0.3562
 5068TIP3   OH236838   3.493   1.810   7.726  0.4236  0.6129 -0.1749
 5068TIP3    H136839   3.543   1.749   7.781  0.8380  0.1932 -1.0072
 5068TIP3    H236840   3.466   1.757   7.651  1.8690  1.7388 -1.5357
 5069TIP3   OH236841   3.429   5.982   0.601  0.6231 -0.0656 -0.0640
 5069TIP3    H136842   3.478   5.952   0.524 -0.9110  1.2832 -1.5978
 5069TIP3    H236843   3.351   6.023   0.565 -1.5140 -1.8778  2.3309
 5070TIP3   OH236844   4.900   1.296   1.412 -0.2455 -0.1701  0.6609
 5070TIP3    H136845   4.986   1.338   1.422  0.1268 -0.9287  0.7191
 5070TIP3    H236846   4.843   1.365   1.381  0.7871 -0.0733 -1.0684
 5071TIP3   OH236847   5.859   2.463   1.613 -0.0484  0.3568 -0.6046
 5071TIP3    H136848   5.829   2.552   1.594 -0.2599  0.8608  1.9726
 5071TIP3    H236849   5.919   2.442   1.541 -1.0496  2.0549 -1.9575
 5072TIP3   OH236850   5.833   0.694   1.171 -0.4735 -0.0835  0.0919
 5072TIP3    H136851   5.890   0.668   1.099 -0.5241 -0.6355  0.2474
 5072TIP3    H236852   5.893   0.731   1.237  0.0506 -3.0436  1.3548
 5073TIP3   OH236853   4.810   2.247   0.659  0.1429 -0.3801  0.0952
 5073TIP3    H136854   4.749   2.320   0.674  1.0023  0.5291 -0.7997
 5073TIP3    H236855   4.854   2.234   0.743  0.9455  1.0135 -0.1084
 5074TIP3   OH236856   2.303   3.685   6.584  0.3885  0.7462  0.3285
 5074TIP3    H136857   2.370   3.703   6.650 -0.0134  4.7735 -0.2259
 5074TIP3    H236858   2.351   3.643   6.512  1.1648 -1.8799  2.2904
 5075TIP3   OH236859   6.910   0.501   1.483  0.0100 -0.1786 -0.7036
 5075TIP3    H136860   6.851   0.506   1.558  0.0480  2.0276 -0.7613
 5075TIP3    H236861   6.852   0.495   1.407 -0.0434 -1.7652 -0.5448
 5076TIP3   OH236862   4.959   2.505   0.389  0.3175 -0.1705  0.8578
 5076TIP3    H136863   5.007   2.473   0.465  0.7859  0.6379  0.9111
 5076TIP3    H236864   5.014   2.576   0.354  0.3305 -0.8310 -0.4852
 5077TIP3   OH236865   2.185   0.836   6.440  0.1914 -0.3204  0.4387
 5077TIP3    H136866   2.164   0.800   6.354  0.2821 -0.5495  0.5111
 5077TIP3    H236867   2.165   0.765   6.501 -0.3864  0.0276  0.6565
 5078TIP3   OH236868   0.522   6.718   0.314 -0.3423 -0.1775 -0.2196
 5078TIP3    H136869   0.541   6.652   0.247  0.4618  0.8975 -1.0767
 5078TIP3    H236870   0.443   6.761   0.283 -2.2420 -2.2671  1.5353
 5079TIP3   OH236871   3.268   4.667   6.895 -0.6858 -0.2925  0.0308
 5079TIP3    H136872   3.224   4.583   6.884 -1.5451 -0.1092  1.9831
 5079TIP3    H236873   3.347   4.660   6.841 -0.9531 -2.1941 -0.1390
 5080TIP3   OH236874   2.305   1.755   6.664 -0.0220 -0.4056 -1.0073
 5080TIP3    H136875   2.307   1.831   6.605 -1.1143 -0.7444 -1.4998
 5080TIP3    H236876   2.378   1.700   6.634 -0.8516 -0.7981 -2.3706
 5081TIP3   OH236877   5.041   3.313   0.972  0.1453  0.2080  0.6723
 5081TIP3    H136878   4.994   3.304   0.889 -0.6696 -0.0543  1.1646
 5081TIP3    H236879   5.021   3.234   1.021  1.0891  0.0976  0.8981
 5082TIP3   OH236880   6.757   3.080   1.925 -0.5232  0.1519  0.8991
 5082TIP3    H136881   6.773   3.009   1.988 -1.5249 -1.0017 -0.1108
 5082TIP3    H236882   6.662   3.091   1.926 -0.3897  1.3746  0.9058
 5083TIP3   OH236883   5.270   6.961   0.034 -0.1860  0.5072  0.2669
 5083TIP3    H136884   5.295   6.982   0.124 -0.3960  0.6089  0.3008
 5083TIP3    H236885   5.338   6.900   0.005 -0.5723 -0.1684  0.7679
 5084TIP3   OH236886   5.349   5.307   7.530  0.3107 -0.2724 -0.5019
 5084TIP3    H136887   5.375   5.215   7.537 -0.7597 -0.5293  0.1263
 5084TIP3    H236888   5.426   5.351   7.494  2.0389 -0.8472  2.3134
 5085TIP3   OH236889   5.326   2.894   1.760  0.7013 -0.0302  0.0180
 5085TIP3    H136890   5.235   2.873   1.783  1.3448 -1.0473  1.7777
 5085TIP3    H236891   5.363   2.811   1.731  1.4891  0.0252  0.8341
 5086TIP3   OH236892   3.615   2.258   7.092  0.0675  0.4156  0.3884
 5086TIP3    H136893   3.529   2.217   7.081 -0.1229  1.2985 -1.5816
 5086TIP3    H236894   3.674   2.187   7.115 -1.1646 -0.2098  1.7232
 5087TIP3   OH236895   6.525   2.681   7.606 -0.7139 -0.0941  0.3774
 5087TIP3    H136896   6.524   2.771   7.639 -0.0203  0.4772 -1.1023
 5087TIP3    H236897   6.442   2.672   7.559 -0.5795 -0.0592  0.1288
 5088TIP3   OH236898   4.332   0.423   1.166  0.8570  0.2210  0.5671
 5088TIP3    H136899   4.356   0.437   1.257  3.2642 -0.4079  0.0777
 5088TIP3    H236900   4.326   0.327   1.157  0.2047  0.2966  0.1768
 5089TIP3   OH236901   1.952   1.391   0.553 -0.1535  0.0443 -0.3834
 5089TIP3    H136902   2.032   1.437   0.529 -0.2699 -0.0725 -1.0100
 5089TIP3    H236903   1.965   1.301   0.523 -1.2577  0.4658 -2.2010
 5090TIP3   OH236904   2.459   3.919   7.881 -0.3016  0.2094  0.7258
 5090TIP3    H136905   2.486   3.982   7.947 -0.8670 -0.6007  1.7419
 5090TIP3    H236906   2.529   3.921   7.816  0.0095  1.3867  1.0874
 5091TIP3   OH236907   4.610   3.301   0.836  0.8028  0.0427  0.1187
 5091TIP3    H136908   4.634   3.273   0.924  0.3749 -0.2783  0.1305
 5091TIP3    H236909   4.528   3.255   0.817 -0.0763  1.5154  0.2629
 5092TIP3   OH236910   2.443   1.950   0.445  0.1619  0.6378  0.4698
 5092TIP3    H136911   2.349   1.932   0.443 -0.2008  2.4099  1.2215
 5092TIP3    H236912   2.471   1.916   0.530 -0.0452  1.3030  0.8045
 5093TIP3   OH236913   2.567   0.493   5.938  0.4239 -0.1932 -0.3085
 5093TIP3    H136914   2.560   0.397   5.940 -0.5735 -0.1090  0.0285
 5093TIP3    H236915   2.601   0.512   5.850 -0.4109 -0.7839 -0.7595
 5094TIP3   OH236916   4.735   7.052   6.999  0.5294 -0.1278  0.0977
 5094TIP3    H136917   4.700   7.138   6.974 -0.8243 -0.5562  0.5059
 5094TIP3    H236918   4.795   7.029   6.927  0.0661  0.6590 -0.5525
 5095TIP3   OH236919   3.046   1.453   1.616 -0.5382  0.3206 -0.4160
 5095TIP3    H136920   3.013   1.380   1.564 -0.8077 -0.5021  0.9173
 5095TIP3    H236921   3.113   1.415   1.673 -0.7521  1.0995  0.3589
 5096TIP3   OH236922   6.468   3.123   1.883  0.0811 -1.0003 -0.2476
 5096TIP3    H136923   6.468   3.191   1.949  0.1715 -0.6543 -0.6017
 5096TIP3    H236924   6.375   3.108   1.863  0.1055  0.0162 -1.1837
 5097TIP3   OH236925   6.206   1.052   0.485  0.3508 -0.4825  0.1370
 5097TIP3    H136926   6.206   1.124   0.548 -2.5515 -1.1187  0.9407
 5097TIP3    H236927   6.289   1.008   0.499 -0.2710 -0.7088  3.6827
 5098TIP3   OH236928   5.356   2.299   0.629  0.2982  0.6130  0.0605
 5098TIP3    H136929   5.372   2.264   0.717  2.4719 -0.0163 -0.5474
 5098TIP3    H236930   5.361   2.223   0.572  0.5534  1.2565 -0.7852
 5099TIP3   OH236931   5.626   6.575   1.501  0.6198 -0.4537  0.3235
 5099TIP3    H136932   5.551   6.633   1.489  2.1521  1.3866 -0.5118
 5099TIP3    H236933   5.682   6.619   1.564  1.1281 -1.6982  0.7580
 5100TIP3   OH236934   3.125   4.377   0.848 -0.3345  0.1934  0.2105
 5100TIP3    H136935   3.048   4.418   0.886 -1.0374 -0.3065 -0.6543
 5100TIP3    H236936   3.176   4.449   0.811 -0.5883  0.4848  0.4323
 5101TIP3   OH236937   5.950   0.781   0.228 -0.1196  0.2754  0.2683
 5101TIP3    H136938   5.951   0.817   0.317 -0.0784 -1.1379  0.8570
 5101TIP3    H236939   6.042   0.775   0.203 -0.1267  0.5473  0.1689
 5102TIP3   OH236940   1.287   3.657   6.929  0.8348  0.3226  0.0007
 5102TIP3    H136941   1.373   3.646   6.887 -1.0861 -0.0858 -4.1113
 5102TIP3    H236942   1.281   3.751   6.947  2.5285  0.1996  1.3047
 5103TIP3   OH236943   4.478   2.639   1.951 -0.1340  0.1757  0.4866
 5103TIP3    H136944   4.420   2.564   1.965  0.7880 -0.7016 -0.3240
 5103TIP3    H236945   4.555   2.620   2.005  0.5210  0.0564 -0.4786
 5104TIP3   OH236946   1.261   0.578   1.439  0.1554  0.7217  0.4628
 5104TIP3    H136947   1.197   0.628   1.489  0.0586  0.5848  0.4748
 5104TIP3    H236948   1.323   0.644   1.407 -1.4535  1.2277 -1.7782
 5105TIP3   OH236949   5.814   3.040   0.426 -0.1515  0.4321  0.1138
 5105TIP3    H136950   5.815   3.132   0.453  0.9552  1.0251 -1.7973
 5105TIP3    H236951   5.873   3.037   0.350 -0.0497 -1.8940  0.2519
 5106TIP3   OH236952   2.269   6.899   0.662  0.0947 -0.3578 -0.4161
 5106TIP3    H136953   2.229   6.815   0.640 -2.7059  0.9940 -0.8131
 5106TIP3    H236954   2.202   6.944   0.713  1.7957  1.3803  0.3278
 5107TIP3   OH236955   5.480   3.677   0.735  0.4591 -0.2802 -0.2045
 5107TIP3    H136956   5.403   3.632   0.770  0.6621 -1.8181 -1.6729
 5107TIP3    H236957   5.468   3.768   0.760 -0.2532 -1.0388  2.3481
 5108TIP3   OH236958   0.516   3.358   0.756  0.4209  0.1137 -0.2285
 5108TIP3    H136959   0.601   3.319   0.773  0.0805  0.2746  2.0600
 5108TIP3    H236960   0.457   3.313   0.817 -0.9273  0.7274 -1.0581
 5109TIP3   OH236961   5.447   1.285   7.999 -0.2310  0.2682  0.4137
 5109TIP3    H136962   5.490   1.274   8.083  0.5688 -2.5191 -0.3168
 5109TIP3    H236963   5.511   1.334   7.946 -0.6314  1.7907  1.3081
 5110TIP3   OH236964   5.041   2.602   1.273 -0.2987 -0.0965  0.7131
 5110TIP3    H136965   5.014   2.563   1.356 -1.2859 -2.7211 -0.8012
 5110TIP3    H236966   5.096   2.536   1.231 -1.3138  0.4130 -1.5303
 5111TIP3   OH236967   5.607   5.367   5.757 -0.0516  0.6937 -0.2253
 5111TIP3    H136968   5.529   5.351   5.704 -0.2630 -0.2969  0.3681
 5111TIP3    H236969   5.575   5.410   5.835  0.1732  1.5060 -0.5711
 5112TIP3   OH236970   0.787   2.121   6.355  0.4163  0.3135 -0.5558
 5112TIP3    H136971   0.790   2.215   6.375 -2.0488 -0.1486  2.4082
 5112TIP3    H236972   0.710   2.111   6.299  1.1959  0.1633 -1.6100
 5113TIP3   OH236973   1.797   6.178   7.726  0.6622  1.0017 -0.6164
 5113TIP3    H136974   1.772   6.156   7.816 -1.8812  2.0157 -1.0451
 5113TIP3    H236975   1.882   6.221   7.735  1.8751 -1.5354  0.9901
 5114TIP3   OH236976   3.630   1.897   1.267  0.4549  0.0911 -0.1412
 5114TIP3    H136977   3.695   1.966   1.255 -0.9720  1.7863  1.5811
 5114TIP3    H236978   3.546   1.942   1.266 -0.4967 -1.5563  1.3083
 5115TIP3   OH236979   4.452   3.906   6.053 -0.0516  0.1740  0.0447
 5115TIP3    H136980   4.498   3.907   6.137 -0.4880  1.3879  0.2761
 5115TIP3    H236981   4.496   3.972   6.000 -0.8453  0.5851 -0.1073
 5116TIP3   OH236982   3.969   2.902   1.216  0.0029  0.0004  0.3445
 5116TIP3    H136983   4.031   2.839   1.180 -2.2195 -1.9936 -0.1899
 5116TIP3    H236984   3.982   2.897   1.311  0.7595 -0.2949  0.2245
 5117TIP3   OH236985   3.523   3.389   0.395 -0.4648 -0.6060  0.1678
 5117TIP3    H136986   3.559   3.332   0.463  0.5081  1.0244  1.0476
 5117TIP3    H236987   3.543   3.344   0.313  0.7043 -1.3134  0.8263
 5118TIP3   OH236988   1.741   1.384   7.138  0.0221 -0.4396 -0.0652
 5118TIP3    H136989   1.708   1.317   7.198  1.7729  0.1582  1.6206
 5118TIP3    H236990   1.671   1.450   7.134  0.2104 -0.0907  1.9908
 5119TIP3   OH236991   0.846   2.875   2.027  0.0096  0.7599 -0.3038
 5119TIP3    H136992   0.790   2.938   2.072 -1.7977 -1.0492  0.0797
 5119TIP3    H236993   0.801   2.859   1.944  0.6331  0.2257 -0.5410
 5120TIP3   OH236994   6.121   4.862   6.567 -0.3681  0.5939 -0.5417
 5120TIP3    H136995   6.074   4.946   6.563  0.0927  0.8235 -1.3357
 5120TIP3    H236996   6.136   4.839   6.475  1.1875  0.5836 -0.2936
 5121TIP3   OH236997   2.426   4.289   7.468  0.1519 -0.1922 -0.3745
 5121TIP3    H136998   2.449   4.303   7.560 -0.5778  0.4001 -0.2810
 5121TIP3    H236999   2.356   4.352   7.451 -1.9304 -2.4922 -0.4730
 5122TIP3   OH237000   4.050   1.878   0.051 -0.5408 -0.1058 -0.4786
 5122TIP3    H137001   4.126   1.820   0.062 -0.1764 -0.1147 -2.7687
 5122TIP3    H237002   4.087   1.962   0.024 -1.3213  0.0545 -1.0692
 5123TIP3   OH237003   1.303   3.996   7.742  0.1606 -0.2111  0.1654
 5123TIP3    H137004   1.318   3.965   7.653 -2.7301 -0.7621 -0.1887
 5123TIP3    H237005   1.384   4.041   7.766  1.1763 -0.4928 -2.5439
 5124TIP3   OH237006   1.530   1.635   1.544 -0.0550  0.3086 -0.1462
 5124TIP3    H137007   1.456   1.659   1.599 -1.0381 -0.2407 -1.2159
 5124TIP3    H237008   1.491   1.599   1.464  1.3421 -2.5434  0.3744
 5125TIP3   OH237009   4.071   2.509   1.412  0.0567 -0.2435 -0.1753
 5125TIP3    H137010   4.067   2.534   1.319 -2.1415  0.7305  0.1634
 5125TIP3    H237011   4.127   2.576   1.452  1.8637 -1.2472 -0.9544
 5126TIP3   OH237012   4.749   1.921   2.088 -0.5206 -0.0470 -0.7663
 5126TIP3    H137013   4.733   1.909   1.994 -2.4803 -2.8766 -0.1310
 5126TIP3    H237014   4.689   1.860   2.131  0.7550  0.7643  2.3276
 5127TIP3   OH237015   5.151   5.902   8.067 -0.3020  0.0887  0.2242
 5127TIP3    H137016   5.189   5.816   8.052 -1.8467 -0.8126  1.3072
 5127TIP3    H237017   5.084   5.887   8.134 -0.8774  2.0521  0.1165
 5128TIP3   OH237018   4.399   2.869   0.255  0.3999  0.3789  0.3468
 5128TIP3    H137019   4.464   2.928   0.218 -0.6203  0.5825 -1.1982
 5128TIP3    H237020   4.326   2.873   0.192 -0.3358 -1.2460  1.0911
 5129TIP3   OH237021   1.360   7.107   7.919  0.3693 -0.1867  0.3068
 5129TIP3    H137022   1.397   7.178   7.971  1.5741 -0.9011  0.4332
 5129TIP3    H237023   1.266   7.123   7.922  0.5065  0.5113  1.6471
 5130TIP3   OH237024   1.385   1.813   6.390  0.5177  0.2450 -0.0776
 5130TIP3    H137025   1.401   1.766   6.308 -0.2141  0.3428 -0.2777
 5130TIP3    H237026   1.444   1.771   6.453 -0.0204 -0.8403 -0.2867
 5131TIP3   OH237027   1.637   5.139   7.202  0.6460  0.0947  0.3511
 5131TIP3    H137028   1.579   5.186   7.262  1.4883  0.3246  1.0048
 5131TIP3    H237029   1.656   5.057   7.247  0.3480 -0.2438 -0.1347
 5132TIP3   OH237030   1.189   2.557   0.101  0.3439  0.4919  0.4400
 5132TIP3    H137031   1.156   2.647   0.105  0.5424  0.5892 -0.1013
 5132TIP3    H237032   1.110   2.502   0.107  0.3800  0.6524  2.8631
 5133TIP3   OH237033   4.181   3.282   0.906  0.0188  0.3939 -0.4035
 5133TIP3    H137034   4.203   3.373   0.890 -3.0905  0.8071 -2.7951
 5133TIP3    H237035   4.104   3.285   0.964 -1.5648 -0.5869 -2.3855
 5134TIP3   OH237036   5.454   4.193   0.421 -0.0113  0.5560 -0.3001
 5134TIP3    H137037   5.418   4.233   0.500 -0.8983  0.1893 -0.5235
 5134TIP3    H237038   5.522   4.254   0.392 -0.1701  1.0364  0.3427
 5135TIP3   OH237039   3.815   1.115   6.403  0.3487  0.2785  1.0845
 5135TIP3    H137040   3.873   1.062   6.458  1.0268 -0.6943 -0.5431
 5135TIP3    H237041   3.870   1.143   6.330 -0.9603  0.2217  0.0640
 5136TIP3   OH237042   5.438   5.249   7.075  0.1214 -0.2732 -0.0194
 5136TIP3    H137043   5.362   5.250   7.134 -1.9619 -0.3639 -2.5782
 5136TIP3    H237044   5.463   5.341   7.067 -0.9104 -0.0308 -0.5874
 5137TIP3   OH237045   4.283   3.456   6.652 -0.1295  0.3697  0.6045
 5137TIP3    H137046   4.233   3.510   6.591  0.6561  1.2163  0.6857
 5137TIP3    H237047   4.368   3.444   6.609 -0.3262 -0.8613  0.5605
 5138TIP3   OH237048   5.320   4.020   2.124 -0.0830  0.4004  0.0688
 5138TIP3    H137049   5.237   4.004   2.169 -0.7457  0.0508 -1.2637
 5138TIP3    H237050   5.382   3.962   2.168 -0.9257 -0.6121 -0.0501
 5139TIP3   OH237051   3.844   4.053   7.979  0.1233  0.0812  0.0932
 5139TIP3    H137052   3.824   4.010   7.896  1.2085 -0.7900  0.2782
 5139TIP3    H237053   3.906   4.122   7.956  0.7358 -0.4214  0.2403
 5140TIP3   OH237054   0.920   0.203   0.396  0.3486  0.3007  0.2305
 5140TIP3    H137055   0.836   0.233   0.361  0.2765  0.8903  0.8953
 5140TIP3    H237056   0.943   0.269   0.461  0.7429 -0.4954  0.9041
 5141TIP3   OH237057   3.991   3.066   7.023  0.8782  0.5879 -0.0481
 5141TIP3    H137058   3.925   3.004   7.054  1.6351 -0.6818 -0.9354
 5141TIP3    H237059   4.075   3.027   7.048  1.3603  1.2838 -0.5542
 5142TIP3   OH237060   3.205   3.199   6.843 -0.0780  0.0627 -0.5786
 5142TIP3    H137061   3.164   3.124   6.887 -0.2144 -0.2259 -1.1955
 5142TIP3    H237062   3.132   3.251   6.811 -0.0145  1.2217  1.0897
 5143TIP3   OH237063   5.174   0.285   0.184 -0.4039  0.1133 -0.1137
 5143TIP3    H137064   5.104   0.267   0.247  0.2232 -1.0015  0.2767
 5143TIP3    H237065   5.196   0.199   0.147 -1.0279  0.8008 -2.1514
 5144TIP3   OH237066   4.371   6.579   0.002 -0.4778  0.1382  0.0671
 5144TIP3    H137067   4.306   6.630   0.051  0.6357  1.1971  0.4851
 5144TIP3    H237068   4.455   6.602   0.044  0.2749 -0.3927 -1.1389
 5145TIP3   OH237069   6.162   3.610   0.393 -0.2054  0.1477  0.1657
 5145TIP3    H137070   6.244   3.658   0.379 -0.9601  1.4860  0.2643
 5145TIP3    H237071   6.109   3.631   0.316 -2.2004  2.9621  2.2656
 5146TIP3   OH237072   3.838   2.787   0.476  0.6373  0.0221 -0.4678
 5146TIP3    H137073   3.839   2.863   0.535  0.9418 -0.2529 -0.1142
 5146TIP3    H237074   3.779   2.812   0.406 -1.2994 -0.4021  0.9572
 5147TIP3   OH237075   5.799   1.925   2.482 -0.2585  0.1671  0.1814
 5147TIP3    H137076   5.738   1.852   2.491  0.2504 -0.3508 -0.4539
 5147TIP3    H237077   5.886   1.885   2.486  0.0772  1.0736  2.4731
 5148TIP3   OH237078   5.216   5.372   0.835 -0.0222  0.2508  0.5287
 5148TIP3    H137079   5.146   5.419   0.879 -0.4196 -1.3647  1.6769
 5148TIP3    H237080   5.292   5.383   0.891 -0.8371 -2.8613  2.3763
 5149TIP3   OH237081   2.552   1.099   0.410  0.2787 -0.0100 -0.0196
 5149TIP3    H137082   2.600   1.064   0.335  1.4998  1.3048  0.1321
 5149TIP3    H237083   2.604   1.174   0.439 -1.1560  0.6100  0.9960
 5150TIP3   OH237084   0.929   2.368   1.449 -0.7241  0.1361 -0.3870
 5150TIP3    H137085   0.946   2.342   1.358 -0.7872 -1.0152 -0.0860
 5150TIP3    H237086   0.979   2.448   1.461  1.0034 -0.8590 -0.7970
 5151TIP3   OH237087   2.514   5.426   7.270 -0.4453  0.3445 -0.0575
 5151TIP3    H137088   2.488   5.516   7.291  0.4676  0.5599  0.2007
 5151TIP3    H237089   2.564   5.398   7.347  2.3916  0.9118 -1.5942
 5152TIP3   OH237090   1.145   2.084   6.250  0.6535  0.3127  0.0903
 5152TIP3    H137091   1.104   2.165   6.217  0.1011 -0.0483 -0.1184
 5152TIP3    H237092   1.239   2.104   6.252  0.4740  1.1473  0.5665
 5153TIP3   OH237093   2.491   0.798   7.318 -0.3337  0.1572 -0.0930
 5153TIP3    H137094   2.481   0.891   7.298  1.4694 -0.1422 -2.7946
 5153TIP3    H237095   2.404   0.768   7.342 -1.0518  2.3961  0.1833
 5154TIP3   OH237096   0.856   1.256   0.686  0.2709 -0.1482  0.4498
 5154TIP3    H137097   0.855   1.160   0.690 -1.3032 -0.2371 -1.2368
 5154TIP3    H237098   0.850   1.276   0.592 -0.3656  1.5839  0.8436
 5155TIP3   OH237099   0.340   3.332   0.019  0.1058 -0.2424  0.1364
 5155TIP3    H137100   0.411   3.388   0.053 -0.1478  0.4180 -0.4225
 5155TIP3    H237101   0.313   3.281   0.095  0.0890  0.6604  0.7502
 5156TIP3   OH237102   6.795   5.394   1.855  0.4611  0.4930  0.2405
 5156TIP3    H137103   6.843   5.408   1.773 -1.2699 -0.7273 -1.0053
 5156TIP3    H237104   6.705   5.417   1.835 -0.6636 -3.1245  0.7802
 5157TIP3   OH237105   4.415   2.605   1.330  0.2764  0.1128  0.7486
 5157TIP3    H137106   4.336   2.646   1.366 -0.3292  1.4995 -2.0268
 5157TIP3    H237107   4.481   2.674   1.333  0.0104  0.4989 -1.3929
 5158TIP3   OH237108   6.320   3.859   0.520  0.4501  0.1274  0.5995
 5158TIP3    H137109   6.305   3.832   0.611 -0.3687 -0.8161  0.1955
 5158TIP3    H237110   6.405   3.903   0.522  0.3139  0.3509  1.8722
 5159TIP3   OH237111   3.869   4.968   1.114 -0.1466  0.3222  0.4057
 5159TIP3    H137112   3.839   4.998   1.200 -0.8345 -0.6115  0.4905
 5159TIP3    H237113   3.791   4.967   1.059  0.1640  0.2084 -0.0403
 5160TIP3   OH237114   4.151   2.632   1.856  0.0066  0.5046 -0.2844
 5160TIP3    H137115   4.085   2.619   1.924  0.8018 -2.0909  0.0473
 5160TIP3    H237116   4.223   2.573   1.881  0.4188 -0.3163 -3.2177
 5161TIP3   OH237117   4.905   3.998   1.478 -0.5477  0.0183  0.1797
 5161TIP3    H137118   4.975   4.061   1.458 -1.0903  0.5897  0.0601
 5161TIP3    H237119   4.873   3.970   1.393 -1.3560  0.7636  0.2337
 5162TIP3   OH237120   5.722   5.140   1.335 -0.3592 -0.3494  0.3459
 5162TIP3    H137121   5.712   5.202   1.407  0.9386  0.5198 -0.2048
 5162TIP3    H237122   5.813   5.150   1.307 -0.9031 -0.5221 -1.5648
 5163TIP3   OH237123   3.214   5.224   1.073  0.1759  0.2050  0.3503
 5163TIP3    H137124   3.265   5.196   0.997 -0.3147  0.4801 -0.0755
 5163TIP3    H237125   3.195   5.142   1.119  1.2731  0.1233  0.6939
 5164TIP3   OH237126   1.955   2.646   0.627 -0.0655  0.4099  0.3552
 5164TIP3    H137127   2.037   2.639   0.577 -0.4933  1.6232 -0.5331
 5164TIP3    H237128   1.973   2.715   0.691 -0.2808  0.4236  0.3992
 5165TIP3   OH237129   4.524   5.589   1.802  0.8284 -0.1846 -0.5255
 5165TIP3    H137130   4.613   5.557   1.816  0.1389 -2.0922 -0.4327
 5165TIP3    H237131   4.527   5.681   1.830  2.3056 -0.7297  1.2058
 5166TIP3   OH237132   4.436   6.602   0.773 -0.0707 -0.4504 -0.9209
 5166TIP3    H137133   4.379   6.550   0.717  1.3019 -1.9144 -0.9788
 5166TIP3    H237134   4.421   6.568   0.861 -1.2072  0.9319 -0.5543
 5167TIP3   OH237135   3.531   2.458   6.558  0.0367  0.4348  0.0456
 5167TIP3    H137136   3.436   2.453   6.568 -0.0052  1.1944  0.0164
 5167TIP3    H237137   3.555   2.543   6.594  0.8098 -0.1004  0.8056
 5168TIP3   OH237138   2.866   3.779   7.573  1.0331 -0.2969 -0.1247
 5168TIP3    H137139   2.800   3.754   7.509  0.7807  0.1509 -0.0409
 5168TIP3    H237140   2.875   3.703   7.630  0.2957 -0.2046  0.1106
 5169TIP3   OH237141   5.294   5.590   7.336 -0.1161 -0.3665 -0.2642
 5169TIP3    H137142   5.349   5.616   7.410 -1.1799  0.0138  0.4000
 5169TIP3    H237143   5.355   5.585   7.262  1.2664 -2.3996  0.9656
 5170TIP3   OH237144   5.049   1.699   7.623 -0.3332 -0.1360  0.3245
 5170TIP3    H137145   5.010   1.630   7.677 -1.0995  0.5773  0.6954
 5170TIP3    H237146   5.038   1.668   7.533 -1.0353 -0.3074  0.4703
 5171TIP3   OH237147   5.602   4.604   8.124  0.3390 -0.2384 -0.2465
 5171TIP3    H137148   5.698   4.597   8.123  0.4991  0.5624  3.3623
 5171TIP3    H237149   5.581   4.656   8.046  2.9186  0.4479 -0.5336
 5172TIP3   OH237150   4.853   6.174   7.732 -0.2005  0.1817  0.0352
 5172TIP3    H137151   4.837   6.250   7.789  2.2348  2.1646 -1.7635
 5172TIP3    H237152   4.766   6.141   7.710 -1.3815  3.1723 -0.0214
 5173TIP3   OH237153   5.762   2.334   6.635  0.2909  0.4349  0.0529
 5173TIP3    H137154   5.773   2.269   6.565 -2.0592 -0.3354  0.3422
 5173TIP3    H237155   5.679   2.377   6.615  0.2771  1.1763  1.6152
 5174TIP3   OH237156   4.861   0.698   1.224  0.1690 -0.1563 -0.0689
 5174TIP3    H137157   4.947   0.687   1.183 -0.3853  0.3989 -1.4167
 5174TIP3    H237158   4.804   0.636   1.179 -0.4594  0.4906 -0.1795
 5175TIP3   OH237159   3.496   4.436   6.809  0.2451  0.6740  0.4298
 5175TIP3    H137160   3.413   4.392   6.790  0.1404  1.1306 -0.2075
 5175TIP3    H237161   3.560   4.390   6.755  0.2513  0.8791  0.2609
 5176TIP3   OH237162   0.315   0.068   0.059 -0.2521 -0.0086  0.2293
 5176TIP3    H137163   0.291   0.014   0.134 -1.6980 -1.3718 -1.1773
 5176TIP3    H237164   0.266   0.032  -0.014 -0.1241  2.3107 -1.0755
 5177TIP3   OH237165   5.421   3.418   0.142  0.2174  0.4061  0.3307
 5177TIP3    H137166   5.486   3.402   0.210  0.3121 -1.8178 -0.2610
 5177TIP3    H237167   5.343   3.446   0.190  1.4788  2.8477  1.0587
 5178TIP3   OH237168   6.091   0.664   6.326 -0.0002 -0.5527  0.3730
 5178TIP3    H137169   6.151   0.720   6.276  0.8984 -0.1371  1.8996
 5178TIP3    H237170   6.004   0.698   6.304  0.4812  0.7187  0.3704
 5179TIP3   OH237171   4.472   6.145   1.735  0.5041 -0.2599  0.3651
 5179TIP3    H137172   4.420   6.189   1.802  0.6625  0.6527 -0.1079
 5179TIP3    H237173   4.548   6.110   1.782  0.3245 -0.1245  0.7571
 5180TIP3   OH237174   6.935   1.161   6.828  0.3213 -0.2403 -0.2506
 5180TIP3    H137175   7.010   1.106   6.803  0.5540  1.0213 -2.3973
 5180TIP3    H237176   6.942   1.168   6.923  1.4088 -2.3121 -0.1434
 5181TIP3   OH237177   5.436   0.637   0.334  0.3925 -0.2385  0.1240
 5181TIP3    H137178   5.397   0.558   0.298  0.8080 -0.8336  0.9747
 5181TIP3    H237179   5.441   0.621   0.428  1.3679  0.4149  0.1917
 5182TIP3   OH237180   3.777   3.316   6.750 -0.3329 -0.1246  0.4446
 5182TIP3    H137181   3.853   3.294   6.696 -0.2917  0.4826  0.2484
 5182TIP3    H237182   3.738   3.392   6.707 -1.1537 -0.5292  0.4520
 5183TIP3   OH237183   0.758   1.465   0.432  0.0047 -0.0108 -0.4728
 5183TIP3    H137184   0.804   1.485   0.351 -0.5041  1.6070 -0.3768
 5183TIP3    H237185   0.678   1.421   0.404 -0.6121  1.3702 -0.9214
 5184TIP3   OH237186   6.734   3.012   0.774 -0.0236 -0.3049  0.5080
 5184TIP3    H137187   6.740   2.999   0.680  0.6113 -0.0077  0.5094
 5184TIP3    H237188   6.655   3.065   0.786  0.1200 -0.0028  0.1112
 5185TIP3   OH237189   5.116   3.267   0.120  0.3305  0.1317  0.8592
 5185TIP3    H137190   5.136   3.357   0.144 -2.3136  0.8230  0.6274
 5185TIP3    H237191   5.080   3.274   0.031  2.6814 -1.4837 -0.2575
 5186TIP3   OH237192   6.114   6.386   6.410  0.2235 -0.3875  0.6200
 5186TIP3    H137193   6.167   6.313   6.379  0.2113 -0.1045 -0.0976
 5186TIP3    H237194   6.137   6.458   6.351  1.7103  0.7558  2.5257
 5187TIP3   OH237195   3.024   0.892   7.827  0.0284  0.0701 -0.2536
 5187TIP3    H137196   3.094   0.828   7.818 -1.3172 -1.4118 -0.4377
 5187TIP3    H237197   3.039   0.955   7.757  1.2706 -0.1322 -0.1708
 5188TIP3   OH237198   1.259   3.653   1.187 -0.6688 -0.3833  0.0083
 5188TIP3    H137199   1.274   3.636   1.094  2.0041  2.4564 -0.1711
 5188TIP3    H237200   1.172   3.693   1.191 -0.3775  0.4050 -1.4146
 5189TIP3   OH237201   4.653   7.022   1.476  0.2827 -0.0469 -0.1851
 5189TIP3    H137202   4.678   7.060   1.560  0.1589 -0.5438  0.0820
 5189TIP3    H237203   4.631   6.931   1.497 -0.2161 -0.0402 -0.6765
 5190TIP3   OH237204   0.076   2.328   1.778  0.3768  0.0794 -0.3370
 5190TIP3    H137205   0.108   2.358   1.863 -0.6165  0.2342 -0.0129
 5190TIP3    H237206   0.137   2.366   1.715  1.7366 -0.8905  0.3597
 5191TIP3   OH237207   2.234   2.712   2.054 -1.3358  0.1608  0.4117
 5191TIP3    H137208   2.256   2.745   2.141 -0.6489  0.2454  0.2096
 5191TIP3    H237209   2.158   2.656   2.068  0.3202 -1.8876  1.4537
 5192TIP3   OH237210   3.754   2.374   7.900  0.1866  0.5652 -0.4618
 5192TIP3    H137211   3.747   2.323   7.819 -0.5751  0.8518 -0.5821
 5192TIP3    H237212   3.796   2.455   7.873  0.4213  0.4416 -0.4698
 5193TIP3   OH237213   6.172   3.786   1.621  0.4302  0.4795 -0.1663
 5193TIP3    H137214   6.239   3.835   1.572 -0.3988  1.4455 -0.3579
 5193TIP3    H237215   6.110   3.853   1.650 -0.0059 -0.3071  0.7280
 5194TIP3   OH237216   6.266   0.975   7.575 -0.4781  0.0381  0.0823
 5194TIP3    H137217   6.271   0.888   7.534  1.1873  0.0688  0.1576
 5194TIP3    H237218   6.342   0.977   7.633 -0.4592  1.5878  0.0081
 5195TIP3   OH237219   6.118   1.607   0.544  0.5392 -0.3678  0.0498
 5195TIP3    H137220   6.194   1.650   0.582  0.4210  2.1488 -2.4255
 5195TIP3    H237221   6.046   1.627   0.603  0.6822  2.0627 -0.5804
 5196TIP3   OH237222   4.667   4.910   0.269  0.2915  0.3019 -0.2418
 5196TIP3    H137223   4.596   4.852   0.297  0.9603  0.6110  2.1801
 5196TIP3    H237224   4.659   4.913   0.174 -1.6075 -1.3762 -0.1676
 5197TIP3   OH237225   2.643   0.731   6.932 -0.0684 -0.0992 -0.5451
 5197TIP3    H137226   2.662   0.801   6.870 -0.4445 -0.2511 -0.8388
 5197TIP3    H237227   2.603   0.662   6.879 -0.2998 -0.2737 -0.1509
 5198TIP3   OH237228   6.443   6.205   1.848 -0.2334 -0.1960 -0.5470
 5198TIP3    H137229   6.470   6.240   1.933  0.7511 -1.3872 -0.3769
 5198TIP3    H237230   6.385   6.273   1.812 -1.7179 -0.2648  1.6456
 5199TIP3   OH237231   1.774   5.876   1.855 -0.4007  0.1535 -0.1026
 5199TIP3    H137232   1.853   5.838   1.892  0.6376  0.6568 -1.7563
 5199TIP3    H237233   1.702   5.826   1.894  0.7860 -1.1912  0.3745
 5200TIP3   OH237234   5.512   1.229   0.136 -0.3798  0.1416 -0.2584
 5200TIP3    H137235   5.600   1.250   0.168 -0.7395 -0.0027  0.8571
 5200TIP3    H237236   5.456   1.236   0.214 -1.2990 -0.0915 -0.8914
 5201TIP3   OH237237   3.425   2.950   0.692 -0.2564 -0.1922 -0.2043
 5201TIP3    H137238   3.378   2.965   0.774  0.2873 -0.7682  0.2107
 5201TIP3    H237239   3.431   2.855   0.685  0.7110 -0.1246 -0.3405
 5202TIP3   OH237240   3.359   3.398   7.695 -0.3113 -0.1131 -0.2127
 5202TIP3    H137241   3.453   3.395   7.675 -0.4600  1.8780 -1.3449
 5202TIP3    H237242   3.353   3.451   7.774 -0.5126  0.0542 -0.3398
 5203TIP3   OH237243   1.221   1.380   1.125  0.9323 -0.6467  0.1365
 5203TIP3    H137244   1.180   1.326   1.193 -1.7736  2.3265  0.9981
 5203TIP3    H237245   1.153   1.389   1.058  0.8395  2.6508  0.5889
 5204TIP3   OH237246   0.368   4.649   0.488  0.1834  0.1232 -0.7354
 5204TIP3    H137247   0.362   4.738   0.452  1.6810  1.2049  1.5768
 5204TIP3    H237248   0.457   4.621   0.466 -0.1061 -0.6016 -0.9834
 5205TIP3   OH237249   2.782   2.171   0.696 -0.3114  0.2883  0.0250
 5205TIP3    H137250   2.828   2.237   0.747  1.3257 -1.3402  0.6817
 5205TIP3    H237251   2.733   2.120   0.761 -0.8130  0.2524 -0.3788
 5206TIP3   OH237252   4.759   1.728   1.253 -0.3057 -0.1310 -0.1854
 5206TIP3    H137253   4.807   1.711   1.171  1.8882  0.4132  0.9528
 5206TIP3    H237254   4.730   1.642   1.282 -2.2068 -0.2214 -2.1425
 5207TIP3   OH237255   5.125   1.987   6.604  0.2130  0.0092 -0.1946
 5207TIP3    H137256   5.218   2.000   6.582  0.1815 -0.5281 -0.6531
 5207TIP3    H237257   5.078   2.023   6.529 -0.0449  3.0571  1.3501
 5208TIP3   OH237258   5.447   5.292   6.360  0.1464 -0.3565  0.0694
 5208TIP3    H137259   5.472   5.282   6.268 -2.6771  0.1320 -0.7869
 5208TIP3    H237260   5.458   5.385   6.377  1.2245 -0.5398  0.4115
 5209TIP3   OH237261   4.380   1.342   1.130 -0.1752 -0.4018 -0.3614
 5209TIP3    H137262   4.285   1.330   1.123 -0.0137 -0.9182 -2.0083
 5209TIP3    H237263   4.414   1.255   1.152 -0.2716  0.3045  2.8341
 5210TIP3   OH237264   6.414   3.421   8.068 -0.0488 -0.0839  0.1587
 5210TIP3    H137265   6.323   3.396   8.054  0.0456 -0.3807  0.0711
 5210TIP3    H237266   6.443   3.369   8.143  0.3490 -0.7650 -0.4540
 5211TIP3   OH237267   6.922   2.886   7.041 -0.0143 -0.0529 -0.2980
 5211TIP3    H137268   6.859   2.861   6.974 -0.8294  0.0317  0.4197
 5211TIP3    H237269   6.875   2.949   7.096 -0.3536 -2.2720  2.0369
 5212TIP3   OH237270   0.980   2.641   7.191  0.4506  0.1173 -0.1097
 5212TIP3    H137271   0.899   2.598   7.220  0.2096  0.9250  0.4273
 5212TIP3    H237272   0.950   2.721   7.147  0.9512  0.3008 -0.1169
 5213TIP3   OH237273   1.457   2.094   1.196 -0.4598  0.1639 -0.4377
 5213TIP3    H137274   1.415   2.012   1.223 -0.5671  0.4379  0.2437
 5213TIP3    H237275   1.494   2.129   1.277  1.1321 -0.0971 -1.0139
 5214TIP3   OH237276   6.149   0.502   0.977 -0.2858 -0.4414  0.2901
 5214TIP3    H137277   6.128   0.585   1.019 -1.3760 -1.1343  1.1308
 5214TIP3    H237278   6.160   0.440   1.050  1.8214 -0.7578 -0.2506
 5215TIP3   OH237279   5.258   0.949   7.466 -0.1637  0.0152 -0.0083
 5215TIP3    H137280   5.210   0.976   7.545 -1.8059 -1.1855 -0.5615
 5215TIP3    H237281   5.350   0.953   7.491 -0.4922  2.8734  0.9441
 5216TIP3   OH237282   6.077   4.281   0.087 -0.0235  0.8439  0.2308
 5216TIP3    H137283   6.032   4.328   0.016 -0.3917 -1.1297 -0.8970
 5216TIP3    H237284   6.032   4.196   0.091  2.3344 -0.4207  0.4169
 5217TIP3   OH237285   4.118   1.296   6.410 -0.3271 -0.2547  0.0199
 5217TIP3    H137286   4.093   1.263   6.323 -4.0121 -0.0280  0.9083
 5217TIP3    H237287   4.186   1.361   6.392 -1.4258  0.2293 -2.7758
 5218TIP3   OH237288   6.229   1.907   7.957 -0.0371  0.4188 -0.6047
 5218TIP3    H137289   6.167   1.847   7.998  0.4320 -0.4935 -1.2232
 5218TIP3    H237290   6.302   1.851   7.929  2.0980  1.7562  2.0747
 5219TIP3   OH237291   4.010   3.994   7.506  0.3304  0.4846 -0.0694
 5219TIP3    H137292   3.922   3.969   7.534  0.6540 -0.1274  0.3998
 5219TIP3    H237293   4.039   3.921   7.451  0.7491  0.4504  0.1980
 5220TIP3   OH237294   6.815   2.100   1.303 -0.6792 -0.1111 -0.1151
 5220TIP3    H137295   6.767   2.025   1.339 -1.0629 -0.3686 -1.1433
 5220TIP3    H237296   6.747   2.163   1.280 -0.3871  0.3408  0.2423
 5221TIP3   OH237297   1.633   3.752   1.070 -0.5675  0.4155 -0.4325
 5221TIP3    H137298   1.559   3.761   1.010 -1.6473 -1.1706  0.6397
 5221TIP3    H237299   1.639   3.658   1.088  0.5968  0.7161  0.8904
 5222TIP3   OH237300   6.819   2.448   1.350 -0.0553 -0.4303  0.4067
 5222TIP3    H137301   6.744   2.397   1.318  1.1176 -0.4916 -2.4266
 5222TIP3    H237302   6.893   2.388   1.346  0.4605  0.1245  1.5191
 5223TIP3   OH237303   0.480   3.101   1.532 -1.3929 -0.5549 -0.3146
 5223TIP3    H137304   0.562   3.075   1.490 -1.4230  0.8083 -1.2573
 5223TIP3    H237305   0.428   3.020   1.533 -0.4777 -1.1641 -0.7454
 5224TIP3   OH237306   3.632   1.511   0.867 -0.1557  0.0291 -0.0466
 5224TIP3    H137307   3.564   1.534   0.803 -0.4504 -1.4556 -0.2929
 5224TIP3    H237308   3.590   1.525   0.952 -0.5924 -0.3153 -0.1996
 5225TIP3   OH237309   6.529   2.265   7.162  0.1503  0.3008 -0.3796
 5225TIP3    H137310   6.573   2.198   7.109 -0.2844  0.0837 -0.4672
 5225TIP3    H237311   6.438   2.235   7.168  0.0227  0.7275 -0.1631
 5226TIP3   OH237312   6.149   0.884   2.088  0.0124  0.1060  0.1806
 5226TIP3    H137313   6.199   0.957   2.126 -1.7399  2.1624 -1.3823
 5226TIP3    H237314   6.102   0.847   2.162  0.7649  0.6899  0.9692
 5227TIP3   OH237315   4.815   2.644   1.137 -0.5128  0.2766  0.3787
 5227TIP3    H137316   4.887   2.628   1.199 -0.3441  0.6616  0.2837
 5227TIP3    H237317   4.744   2.675   1.193  0.5773  3.5326  0.0679
 5228TIP3   OH237318   5.725   5.312   7.903 -0.4257 -0.2020  0.2090
 5228TIP3    H137319   5.639   5.354   7.904  0.2940  1.4448  4.0376
 5228TIP3    H237320   5.772   5.356   7.832 -2.4892 -0.6488 -1.4820
 5229TIP3   OH237321   6.557   0.207   0.077  0.1318  0.4615 -0.2570
 5229TIP3    H137322   6.528   0.294   0.050  1.9912  1.3596  0.5534
 5229TIP3    H237323   6.508   0.188   0.157 -0.9434  0.3557 -0.9300
 5230TIP3   OH237324   6.432   4.089   0.883 -0.4073 -0.1524 -0.0570
 5230TIP3    H137325   6.465   4.035   0.954  0.4412  1.8354  1.0958
 5230TIP3    H237326   6.337   4.078   0.887 -0.3875  0.1289  1.5424
 5231TIP3   OH237327   4.228   2.691   0.007 -0.0468  0.0641  0.4856
 5231TIP3    H137328   4.287   2.671   0.080 -1.5774 -1.8918  1.2186
 5231TIP3    H237329   4.233   2.613  -0.049 -0.2039  0.8443 -0.6204
 5232TIP3   OH237330   4.917   5.602   0.323  0.1195  0.5175  0.2008
 5232TIP3    H137331   4.823   5.623   0.329  0.3944  1.4887  1.3301
 5232TIP3    H237332   4.921   5.507   0.331 -0.5865  0.6819  2.9233
 5233TIP3   OH237333   0.397   3.766   1.758  0.5445 -0.2513  0.7898
 5233TIP3    H137334   0.370   3.757   1.849  0.5303 -0.4369  0.7692
 5233TIP3    H237335   0.483   3.808   1.762  0.5890 -0.3515  0.8939
 5234TIP3   OH237336   6.038   4.549   2.154 -0.1316  0.3261  0.1571
 5234TIP3    H137337   6.022   4.642   2.173 -1.3130  0.8828 -3.2792
 5234TIP3    H237338   6.134   4.542   2.149  0.0165  1.0671  1.6890
 5235TIP3   OH237339   5.052   6.647   1.325 -0.3100  0.2079 -0.1366
 5235TIP3    H137340   5.001   6.661   1.245 -0.1451 -0.2946 -0.3359
 5235TIP3    H237341   5.138   6.684   1.305  0.1368 -1.1038 -0.6749
 5236TIP3   OH237342   1.428   6.939   0.306 -0.0019 -0.4988  0.1094
 5236TIP3    H137343   1.475   6.855   0.298  0.6185 -0.1161 -0.2490
 5236TIP3    H237344   1.497   7.005   0.308 -0.5917  0.1976 -2.0711
 5237TIP3   OH237345   5.078   4.666   6.714 -0.7855  0.1829  0.0777
 5237TIP3    H137346   5.094   4.738   6.775 -0.2565 -0.3762  0.6153
 5237TIP3    H237347   4.996   4.688   6.671 -1.5292  0.2459  1.5120
 5238TIP3   OH237348   7.088   3.304   0.532 -0.0489 -0.1391  0.0547
 5238TIP3    H137349   7.012   3.343   0.575 -1.4885 -2.9824  0.2161
 5238TIP3    H237350   7.061   3.214   0.512  2.8207 -0.8205 -1.0616
 5239TIP3   OH237351   6.102   1.495   7.269  0.9535  0.4963 -0.0134
 5239TIP3    H137352   6.120   1.544   7.188  2.4430 -0.6935 -0.4222
 5239TIP3    H237353   6.017   1.528   7.298  1.0937  2.0306 -1.2464
 5240TIP3   OH237354   3.510   2.430   1.304 -0.3225 -0.4864  0.1655
 5240TIP3    H137355   3.535   2.376   1.379  0.8264 -0.4164 -0.1659
 5240TIP3    H237356   3.457   2.372   1.249 -0.2408 -0.8673  0.4850
 5241TIP3   OH237357   3.480   2.445   0.920 -0.0626 -0.2007  0.0973
 5241TIP3    H137358   3.433   2.419   1.000 -0.6531 -0.5435 -0.3487
 5241TIP3    H237359   3.414   2.438   0.851 -0.1811  2.2731 -0.0909
 5242TIP3   OH237360   0.002   1.103   0.666  0.1706 -0.3105 -0.6643
 5242TIP3    H137361  -0.092   1.118   0.655 -0.3254 -1.6911  1.4249
 5242TIP3    H237362   0.037   1.190   0.687 -0.8647 -0.0616  0.0771
 5243TIP3   OH237363   6.365   1.781   1.638  0.4761  0.3760  0.3292
 5243TIP3    H137364   6.369   1.866   1.680 -2.3499 -0.5246  2.5473
 5243TIP3    H237365   6.283   1.782   1.588  0.2619 -1.1242  0.6149
 5244TIP3   OH237366   1.624   2.548   1.662  0.4019 -0.1346  0.2255
 5244TIP3    H137367   1.536   2.521   1.635  0.6218  0.6846 -1.3361
 5244TIP3    H237368   1.682   2.482   1.624  0.6694  0.7553 -0.9510
 5245TIP3   OH237369   5.556   5.991   1.073 -0.0205 -0.3252  0.3209
 5245TIP3    H137370   5.504   6.069   1.054  1.7162  1.1335  1.4530
 5245TIP3    H237371   5.608   6.014   1.150 -1.2099 -3.4300  2.1515
 5246TIP3   OH237372   4.572   4.119   6.222  0.4577 -0.2258 -0.6378
 5246TIP3    H137373   4.612   4.205   6.236  0.6629 -0.1470 -1.6504
 5246TIP3    H237374   4.586   4.073   6.305 -0.9598  1.2112  0.4368
 5247TIP3   OH237375   2.030   1.632   0.355 -0.6418 -0.2227 -0.2622
 5247TIP3    H137376   1.939   1.636   0.384 -1.0318  0.8029 -1.5792
 5247TIP3    H237377   2.025   1.594   0.268  0.5137 -3.2387  0.9137
 5248TIP3   OH237378   4.529   7.060   0.189 -0.1271  0.1671 -0.1502
 5248TIP3    H137379   4.548   7.014   0.107 -0.2798  0.1788 -0.1909
 5248TIP3    H237380   4.607   7.045   0.243 -0.3599 -0.5147  0.0027
 5249TIP3   OH237381   1.914   5.156   7.034 -0.1444  0.2469 -0.5094
 5249TIP3    H137382   1.860   5.150   7.113 -0.3090 -2.1446 -0.7593
 5249TIP3    H237383   1.958   5.241   7.041  1.1766 -0.6199  3.0385
 5250TIP3   OH237384   4.410   6.465   6.747 -0.5136 -0.2593 -0.2587
 5250TIP3    H137385   4.431   6.384   6.793 -1.9282  0.4244  1.6847
 5250TIP3    H237386   4.379   6.438   6.661  0.5164 -1.6784 -0.1891
 5251TIP3   OH237387   5.817   6.412   0.225  0.0854 -0.1715 -0.4799
 5251TIP3    H137388   5.775   6.477   0.282 -1.0847  0.1848 -1.7132
 5251TIP3    H237389   5.869   6.358   0.284 -0.8751  0.3740  0.8865
 5252TIP3   OH237390   4.158   5.818   2.290  0.5419 -0.1543 -0.0306
 5252TIP3    H137391   4.112   5.735   2.299 -0.1211  0.0565 -1.4541
 5252TIP3    H237392   4.250   5.795   2.297  0.3462 -0.9503 -0.0243
 5253TIP3   OH237393   3.857   1.413   7.707 -0.0661  0.5613 -0.3229
 5253TIP3    H137394   3.875   1.344   7.771 -2.0618  1.1989  0.9539
 5253TIP3    H237395   3.772   1.391   7.671  0.4007  1.0023 -1.7433
 5254TIP3   OH237396   4.857   3.211   0.736 -0.7865  0.4478  0.2058
 5254TIP3    H137397   4.768   3.219   0.770 -0.6287 -0.7041  0.9214
 5254TIP3    H237398   4.857   3.129   0.686 -0.4270  1.0121 -0.7258
 5255TIP3   OH237399   3.218   2.529   1.047 -0.1386  0.6610  0.7578
 5255TIP3    H137400   3.122   2.522   1.052 -0.2499  1.3885 -0.0717
 5255TIP3    H237401   3.250   2.465   1.110 -1.1226 -2.0489 -1.3875
 5256TIP3   OH237402   3.942   6.169   1.106  1.2147 -0.0768  0.2505
 5256TIP3    H137403   3.984   6.213   1.032  0.8762 -0.1454  0.0131
 5256TIP3    H237404   3.930   6.079   1.075  0.7487 -0.0152  0.2592
 5257TIP3   OH237405   0.798   5.071   1.794 -0.7110 -0.5670  0.1203
 5257TIP3    H137406   0.823   5.163   1.805 -1.1345 -0.1045 -2.4470
 5257TIP3    H237407   0.821   5.029   1.877  0.1044  1.7171  1.0739
 5258TIP3   OH237408   5.715   3.769   1.574 -0.3035  0.4323 -0.5838
 5258TIP3    H137409   5.722   3.821   1.654  2.3129 -1.4123  0.4221
 5258TIP3    H237410   5.622   3.748   1.567 -0.7216  1.5637  1.3483
 5259TIP3   OH237411   0.470   2.306   6.705 -0.1416  0.0576 -0.0707
 5259TIP3    H137412   0.458   2.238   6.638  1.0151 -1.8050  1.5543
 5259TIP3    H237413   0.428   2.270   6.783  4.6713 -1.0634  2.1899
 5260TIP3   OH237414   0.048   3.448   6.900 -0.1098 -0.4744 -0.4183
 5260TIP3    H137415  -0.021   3.388   6.873  0.6398 -2.4883  1.8960
 5260TIP3    H237416   0.127   3.394   6.903  0.4279  0.3895  2.4897
 5261TIP3   OH237417   4.927   6.072   1.391  0.0653  0.3144  0.1537
 5261TIP3    H137418   4.891   6.159   1.371  0.1926  0.4231  0.3938
 5261TIP3    H237419   4.852   6.019   1.414 -0.4963 -0.6494 -3.5280
 5262TIP3   OH237420   6.190   6.427   7.321 -0.8156 -0.3560 -0.4871
 5262TIP3    H137421   6.246   6.504   7.328 -1.2078 -0.1408  0.3250
 5262TIP3    H237422   6.251   6.353   7.313 -0.3573 -0.3177  2.2682
 5263TIP3   OH237423   3.413   2.293   7.868  0.1275 -0.0283  0.0709
 5263TIP3    H137424   3.470   2.327   7.938  0.1638 -1.9560  1.0007
 5263TIP3    H237425   3.447   2.206   7.850 -0.6892 -0.0383 -1.4948
 5264TIP3   OH237426   4.413   0.979   2.023  0.2581 -0.0962 -0.3095
 5264TIP3    H137427   4.423   1.059   1.972  1.8588  0.6961  1.1693
 5264TIP3    H237428   4.407   1.010   2.114  0.6046 -1.6321  0.2481
 5265TIP3   OH237429   5.437   6.156   7.779  0.1909 -0.2454  0.2260
 5265TIP3    H137430   5.371   6.225   7.768 -0.1966 -1.0079 -2.7304
 5265TIP3    H237431   5.458   6.158   7.872  0.4588  4.1077  0.2037
 5266TIP3   OH237432   6.257   1.591   1.839 -0.4697 -0.8446 -0.0661
 5266TIP3    H137433   6.288   1.660   1.781  2.5656 -0.9507  1.2908
 5266TIP3    H237434   6.302   1.512   1.810  0.6680 -1.0133  2.0163
 5267TIP3   OH237435   1.506   6.922   8.070  0.5489  0.5532 -0.4468
 5267TIP3    H137436   1.454   6.845   8.093  1.1294 -0.1596 -1.5314
 5267TIP3    H237437   1.441   6.986   8.039  0.3717 -0.5855 -2.4958
 5268TIP3   OH237438   3.335   2.905   7.032 -0.3926 -0.1950  0.1837
 5268TIP3    H137439   3.395   2.980   7.037 -1.4681  0.7828 -1.1577
 5268TIP3    H237440   3.390   2.833   7.001 -0.1322  0.9746 -2.1723
 5269TIP3   OH237441   5.433   6.733   0.119 -0.2783 -0.1034 -0.2511
 5269TIP3    H137442   5.403   6.751   0.208  0.6803  0.2377  0.0067
 5269TIP3    H237443   5.521   6.698   0.130 -0.1337 -0.0034 -1.0711
 5270TIP3   OH237444   0.018   6.764   1.415  0.7980 -0.4075  0.1008
 5270TIP3    H137445   0.028   6.721   1.501 -0.1807 -0.4733  0.1929
 5270TIP3    H237446  -0.077   6.765   1.401  0.9249  0.1891 -0.6905
 5271TIP3   OH237447   6.097   1.203   1.824 -0.2575  0.0489 -0.2942
 5271TIP3    H137448   6.106   1.215   1.919  2.9932  1.5684 -0.7562
 5271TIP3    H237449   6.113   1.110   1.811  2.5855  0.3977  0.3506
 5272TIP3   OH237450   4.241   2.553   7.735  0.1279 -0.1843 -0.3651
 5272TIP3    H137451   4.195   2.486   7.685 -0.4222 -1.2300  1.4964
 5272TIP3    H237452   4.281   2.506   7.808 -0.0661  1.4532  0.8255
 5273TIP3   OH237453   5.967   2.188   1.330 -0.4241  0.2996 -0.2483
 5273TIP3    H137454   5.965   2.283   1.316 -0.0909  0.1084 -1.6826
 5273TIP3    H237455   5.896   2.172   1.391 -0.2448  1.5224  0.3107
 5274TIP3   OH237456   6.680   2.686   7.143 -0.3024  0.1248  0.2375
 5274TIP3    H137457   6.733   2.748   7.194  1.0791 -0.7983 -0.0673
 5274TIP3    H237458   6.637   2.631   7.209  0.1133  0.0555  0.4493
 5275TIP3   OH237459   2.963   1.986   1.240 -0.0725  0.2239 -0.8373
 5275TIP3    H137460   2.993   1.924   1.306 -2.1008  0.4475  0.3320
 5275TIP3    H237461   2.945   2.067   1.289  2.0411  1.6178 -2.2587
 5276TIP3   OH237462   0.477   2.811   1.648 -0.6047 -0.3289 -0.5695
 5276TIP3    H137463   0.446   2.728   1.684  0.8546 -0.3238  0.7133
 5276TIP3    H237464   0.420   2.877   1.688 -0.3447 -0.5158  0.1125
 5277TIP3   OH237465   2.292   0.074   1.284  0.0780 -0.1584 -0.2008
 5277TIP3    H137466   2.200   0.059   1.264 -1.1064  2.1433  3.1425
 5277TIP3    H237467   2.319   0.142   1.222 -1.3034  1.2011  0.6545
 5278TIP3   OH237468   4.385   2.676   0.696  0.6933  0.7050 -0.2191
 5278TIP3    H137469   4.362   2.664   0.603  1.5494 -0.4340 -0.2962
 5278TIP3    H237470   4.440   2.754   0.697 -0.2214  1.3701 -0.5114
 5279TIP3   OH237471   6.430   2.518   6.329  0.1895  0.3502  0.5360
 5279TIP3    H137472   6.506   2.562   6.290  0.1105  0.3330  0.3612
 5279TIP3    H237473   6.460   2.489   6.415  0.0768  1.1988  0.8611
 5280TIP3   OH237474   4.093   6.388   0.407 -0.2469 -0.1382  0.3010
 5280TIP3    H137475   4.011   6.433   0.386  0.0676  0.5777  0.5828
 5280TIP3    H237476   4.130   6.364   0.323 -0.6670 -0.3123  0.1653
 5281TIP3   OH237477   6.175   3.965   0.329  0.1171  0.3287 -0.2410
 5281TIP3    H137478   6.243   3.930   0.271  1.7047  1.2712  0.9986
 5281TIP3    H237479   6.203   3.940   0.416  0.3379  3.0489  0.5342
 5282TIP3   OH237480   3.877   3.574   1.233 -0.1208  0.4469  0.1776
 5282TIP3    H137481   3.782   3.567   1.223 -0.0489  1.6136 -1.6638
 5282TIP3    H237482   3.900   3.652   1.183  1.5893  1.2702  2.1775
 5283TIP3   OH237483   1.436   4.491   1.641 -0.3588  0.0946  0.2523
 5283TIP3    H137484   1.435   4.460   1.732  0.2094 -1.4648 -0.2616
 5283TIP3    H237485   1.353   4.458   1.604 -1.5000  2.3519  0.7182
 5284TIP3   OH237486   1.797   6.817   1.328 -0.2161 -0.2654 -0.2402
 5284TIP3    H137487   1.758   6.783   1.247  0.1640 -0.5878 -0.2931
 5284TIP3    H237488   1.792   6.912   1.319 -2.6345 -0.2888  0.5635
 5285TIP3   OH237489   6.360   3.635   2.112 -0.2392 -0.4214  0.5020
 5285TIP3    H137490   6.341   3.728   2.123 -0.3475 -0.5743  1.7148
 5285TIP3    H237491   6.409   3.611   2.191  1.2353 -1.0196 -0.5819
 5286TIP3   OH237492   5.774   2.096   1.095 -0.8458  0.2020  0.3529
 5286TIP3    H137493   5.849   2.048   1.130 -0.3021  0.2522 -0.6988
 5286TIP3    H237494   5.801   2.187   1.096 -0.0145  0.0350 -2.0265
 5287TIP3   OH237495   6.202   0.923   1.802 -0.5218  0.1069 -0.3781
 5287TIP3    H137496   6.259   0.867   1.749  0.9478 -0.3878  1.6758
 5287TIP3    H237497   6.232   0.910   1.892 -1.7694  2.3319  0.3969
 5288TIP3   OH237498   3.547   5.682   6.688  0.3059 -0.0190 -0.6517
 5288TIP3    H137499   3.503   5.601   6.663 -1.6538 -0.0901  2.7560
 5288TIP3    H237500   3.593   5.660   6.769  0.2189  2.1197  0.0080
 5289TIP3   OH237501   5.201   4.111   1.265  0.0055 -0.5492  0.6127
 5289TIP3    H137502   5.296   4.105   1.280  0.2460  1.4220  0.0529
 5289TIP3    H237503   5.167   4.148   1.347 -0.2661 -1.1097  0.7539
 5290TIP3   OH237504   0.139   2.638   1.834  0.2144  0.7633  0.6661
 5290TIP3    H137505   0.061   2.644   1.889 -0.4165 -0.6871 -0.0406
 5290TIP3    H237506   0.206   2.601   1.892 -0.8686 -2.2290  0.1134
 5291TIP3   OH237507   6.915   5.652   7.414 -0.8920 -0.3779  1.2634
 5291TIP3    H137508   6.978   5.583   7.393  1.1930  0.9283  3.0144
 5291TIP3    H237509   6.929   5.718   7.346 -1.0959 -0.5366  1.0663
 5292TIP3   OH237510   1.626   1.236   0.660  0.3591  0.6915  0.1949
 5292TIP3    H137511   1.647   1.218   0.569 -5.6707  0.8843 -1.4413
 5292TIP3    H237512   1.621   1.149   0.701  1.1013  0.4849 -0.1438
 5293TIP3   OH237513   0.639   4.635   6.885 -0.1334  0.4679  0.1041
 5293TIP3    H137514   0.683   4.696   6.945  3.4871  0.2760 -2.1778
 5293TIP3    H237515   0.583   4.689   6.831  1.0305  1.4211 -0.1568
 5294TIP3   OH237516   3.559   5.888   7.861 -0.1112  0.2102  0.1586
 5294TIP3    H137517   3.558   5.797   7.891 -1.2440 -0.5255 -2.0083
 5294TIP3    H237518   3.467   5.907   7.840  0.5059  0.9632 -1.9461
 5295TIP3   OH237519   5.924   2.614   7.791  0.2964  0.5043 -0.2574
 5295TIP3    H137520   5.848   2.579   7.837  0.6875 -0.5845 -0.4249
 5295TIP3    H237521   5.906   2.708   7.783 -2.0722 -0.0836 -2.2805
 5296TIP3   OH237522   5.400   1.936   6.320 -0.4317  0.1919 -0.0408
 5296TIP3    H137523   5.334   1.870   6.342  1.0024 -0.0049  4.1950
 5296TIP3    H237524   5.446   1.900   6.245 -1.7275 -2.1580  0.2432
 5297TIP3   OH237525   0.661   1.586   1.493  0.3135 -0.0979  0.7813
 5297TIP3    H137526   0.658   1.649   1.421 -0.2951  1.1466  1.8824
 5297TIP3    H237527   0.595   1.520   1.470  0.3258  0.1384  0.0643
 5298TIP3   OH237528   5.843   6.660   0.455  0.1173  0.1667 -0.0773
 5298TIP3    H137529   5.851   6.744   0.499  1.9517 -0.4331  0.7672
 5298TIP3    H237530   5.884   6.597   0.514 -2.6976 -1.6215  0.0651
 5299TIP3   OH237531   0.238   1.363   8.121 -0.2515 -0.6176  0.1134
 5299TIP3    H137532   0.217   1.352   8.214 -1.4334  1.5590  0.1243
 5299TIP3    H237533   0.174   1.427   8.089  1.1971 -0.0901 -1.8111
 5300TIP3   OH237534   5.642   4.128   0.623 -0.0358 -0.0361 -0.1630
 5300TIP3    H137535   5.582   4.089   0.687  0.0741 -1.6210 -0.9921
 5300TIP3    H237536   5.590   4.138   0.543  0.5777 -0.6849 -0.6509
 5301TIP3   OH237537   4.624   1.385   1.802 -0.0023 -0.1437  0.7646
 5301TIP3    H137538   4.675   1.346   1.731 -1.1486 -0.7851  0.2669
 5301TIP3    H237539   4.677   1.458   1.834  0.8753 -0.3444 -0.2253
 5302TIP3   OH237540   6.195   4.809   1.489 -0.2105  0.2660 -0.2954
 5302TIP3    H137541   6.139   4.840   1.560  0.1824 -0.5157  0.3580
 5302TIP3    H237542   6.284   4.814   1.524 -0.2499 -2.9669  0.3387
 5303TIP3   OH237543   4.128   0.817   8.125 -0.1543  0.0316 -0.4401
 5303TIP3    H137544   4.213   0.802   8.084 -0.3821 -2.4297 -0.0965
 5303TIP3    H237545   4.149   0.860   8.208  0.5564  1.7056 -1.4648
 5304TIP3   OH237546   1.494   5.852   0.882  0.4646 -0.4769  0.3809
 5304TIP3    H137547   1.446   5.813   0.809  0.1000  0.1556  0.2769
 5304TIP3    H237548   1.586   5.847   0.855  0.3453 -0.3903 -0.0551
 5305TIP3   OH237549   6.089   4.601   6.988 -0.2375 -0.2476  0.1215
 5305TIP3    H137550   6.166   4.579   6.935  0.1156  0.2494  0.4145
 5305TIP3    H237551   6.018   4.551   6.950  0.2750 -0.8607 -0.0400
 5306TIP3   OH237552   4.069   2.554   0.661 -0.1295  0.4417  0.6883
 5306TIP3    H137553   3.993   2.569   0.718 -0.3407  1.2113  0.2137
 5306TIP3    H237554   4.067   2.460   0.644 -1.0432  0.4719  0.5898
 5307TIP3   OH237555   5.637   1.106   0.440 -0.2915  0.0074 -0.6563
 5307TIP3    H137556   5.649   1.076   0.350  1.2260  0.0550 -0.4791
 5307TIP3    H237557   5.553   1.152   0.439 -0.0014  0.5324 -2.1852
 5308TIP3   OH237558   5.279   7.009   1.618 -0.1931  0.1522  0.2953
 5308TIP3    H137559   5.272   7.104   1.625  1.7821  0.2476  1.3852
 5308TIP3    H237560   5.373   6.992   1.611 -0.5388 -1.7004 -0.1768
 5309TIP3   OH237561   0.033   2.916   1.873  0.0756 -0.0578  0.3430
 5309TIP3    H137562  -0.058   2.908   1.842  0.2834  2.2012 -0.9444
 5309TIP3    H237563   0.038   2.856   1.948 -2.4520 -0.2568  0.3973
 5310TIP3   OH237564   5.924   0.638   7.902 -0.1988  0.6411 -0.4058
 5310TIP3    H137565   5.942   0.574   7.971  0.5225  0.6906 -0.5373
 5310TIP3    H237566   5.838   0.673   7.923 -0.1147  0.4368  0.3000
 5311TIP3   OH237567   5.360   1.167   1.608  0.1401  0.9382  0.8005
 5311TIP3    H137568   5.375   1.151   1.515 -2.0885  1.1255  0.3943
 5311TIP3    H237569   5.431   1.119   1.652  0.2634 -0.5102 -0.9139
 5312TIP3   OH237570   0.014   1.272   7.546 -0.1383  0.0641 -0.7578
 5312TIP3    H137571   0.047   1.240   7.630 -2.4574  1.2295  0.6465
 5312TIP3    H237572   0.076   1.341   7.521  0.4397 -0.1326  0.1009
 5313TIP3   OH237573   4.702   1.188   1.571  0.3158  0.1909  0.1050
 5313TIP3    H137574   4.755   1.211   1.495 -1.3343  2.0206 -0.5232
 5313TIP3    H237575   4.621   1.153   1.534 -0.0628  0.0733  1.0307
 5314TIP3   OH237576   3.777   5.046   1.363 -0.1082  0.2318 -0.0188
 5314TIP3    H137577   3.792   5.040   1.458 -1.1942  1.5991  0.2597
 5314TIP3    H237578   3.685   5.025   1.352 -0.5241  2.1829 -0.5084
 5315TIP3   OH237579   5.868   2.074   2.023  0.9900  0.1201  0.0009
 5315TIP3    H137580   5.938   2.016   2.053  0.4839  0.0163  0.9965
 5315TIP3    H237581   5.794   2.056   2.081  0.4806  0.9961 -0.3540
 5316TIP3   OH237582   5.686   3.261   0.762 -0.4458 -0.4355 -0.4754
 5316TIP3    H137583   5.609   3.280   0.709 -1.2226  0.0119  0.8012
 5316TIP3    H237584   5.653   3.257   0.852  0.8065 -1.4838 -0.0552
 5317TIP3   OH237585   3.172   3.093   1.721 -0.3968  1.1495  0.6157
 5317TIP3    H137586   3.240   3.158   1.702 -1.5812  2.6723  1.4952
 5317TIP3    H237587   3.216   3.028   1.776  1.4314 -0.0880 -2.1557
 5318TIP3   OH237588   4.795   1.953   1.395 -0.2113 -0.1577 -0.2743
 5318TIP3    H137589   4.789   1.867   1.354 -0.1098 -0.5216  0.4513
 5318TIP3    H237590   4.754   1.941   1.481  1.4396  0.0300  0.5594
 5319TIP3   OH237591   6.890   2.751   6.350  0.5134  0.0294 -0.4722
 5319TIP3    H137592   6.895   2.812   6.277 -1.3690  0.4775 -0.2584
 5319TIP3    H237593   6.954   2.783   6.413  0.5567  0.9496 -0.9861
 5320TIP3   OH237594   6.332   4.568   2.097  0.2987  0.2286  0.1593
 5320TIP3    H137595   6.359   4.488   2.142  0.8720  0.4136  0.1469
 5320TIP3    H237596   6.397   4.633   2.123 -0.8825  1.0319  1.1955
 5321TIP3   OH237597   6.733   1.833   1.338 -0.1793  0.4426  0.4376
 5321TIP3    H137598   6.641   1.857   1.328 -0.4972 -0.1360  1.9221
 5321TIP3    H237599   6.766   1.828   1.248 -1.4319  1.2435 -0.0825
 5322TIP3   OH237600   5.316   0.240   0.634 -0.0757 -0.3244 -0.9405
 5322TIP3    H137601   5.328   0.151   0.668 -1.1878 -0.0643  0.2098
 5322TIP3    H237602   5.388   0.290   0.672  1.5073 -1.0599 -2.9038
 5323TIP3   OH237603   3.420   1.270   7.054  0.1886  0.0452 -0.2715
 5323TIP3    H137604   3.449   1.196   7.001 -0.8739 -1.9094  1.7763
 5323TIP3    H237605   3.479   1.270   7.129 -1.7768 -0.7164  1.3112
 5324TIP3   OH237606   6.133   2.001   2.103 -0.0101  0.5207  0.0962
 5324TIP3    H137607   6.153   2.079   2.156  2.1514  0.5417 -0.6728
 5324TIP3    H237608   6.116   1.933   2.167 -1.4160  1.5024  0.7868
 5325TIP3   OH237609   4.873   1.381   7.676  0.4706  0.4465  0.2796
 5325TIP3    H137610   4.824   1.432   7.612  0.7120 -3.8430 -3.5689
 5325TIP3    H237611   4.964   1.405   7.662  0.3390  1.1125  0.5522
 5326TIP3   OH237612   6.639   3.175   0.015  0.3444  0.3170 -0.2199
 5326TIP3    H137613   6.697   3.249  -0.006 -0.2012  0.2670 -1.9957
 5326TIP3    H237614   6.697   3.099   0.019  0.6485  0.5498 -0.1913
 5327TIP3   OH237615   0.102   2.590   0.344 -0.2018  0.3966 -0.1434
 5327TIP3    H137616   0.128   2.532   0.416 -1.4076 -2.3930 -1.8883
 5327TIP3    H237617   0.017   2.557   0.315 -0.0968  1.9477 -2.3625
 5328TIP3   OH237618   1.780   5.151   0.430  0.4872 -0.3925  0.7721
 5328TIP3    H137619   1.805   5.119   0.517  0.7914 -1.2872  0.3576
 5328TIP3    H237620   1.738   5.077   0.388 -1.8665  0.7494  1.0269
 5329TIP3   OH237621   5.137   0.697   2.008 -0.0413 -0.5647  0.4504
 5329TIP3    H137622   5.103   0.780   2.042  0.5545 -0.5171  0.9289
 5329TIP3    H237623   5.071   0.632   2.033 -1.3333  0.0032 -1.3605
 5330TIP3   OH237624   6.866   4.864   1.089 -0.2868  0.8687 -0.6381
 5330TIP3    H137625   6.908   4.864   1.003  0.6728 -1.2209 -0.2044
 5330TIP3    H237626   6.935   4.895   1.148 -0.3947  0.6231 -0.3850
 5331TIP3   OH237627   6.598   3.139   1.312  0.0789  0.1852 -0.1170
 5331TIP3    H137628   6.594   3.061   1.367 -2.0906  0.5501  0.3103
 5331TIP3    H237629   6.690   3.148   1.288  0.3095 -2.6566 -0.4066
 5332TIP3   OH237630   0.665   3.476   7.158 -0.3372 -0.0365 -0.6390
 5332TIP3    H137631   0.589   3.487   7.101 -1.5386  1.5999  1.1845
 5332TIP3    H237632   0.643   3.400   7.212 -1.1661  1.0160  0.5506
 5333TIP3   OH237633   2.068   3.104   7.999  0.5373 -0.3482 -0.8464
 5333TIP3    H137634   2.010   3.156   7.945  0.5223 -0.3960 -0.8769
 5333TIP3    H237635   2.084   3.024   7.948  0.6447 -0.3268 -0.8470
 5334TIP3   OH237636   7.032   3.666   6.334 -0.0916 -0.0697  0.2390
 5334TIP3    H137637   7.000   3.682   6.422  0.4181  0.7316  0.2815
 5334TIP3    H237638   6.985   3.729   6.279  0.9774  0.7221  0.2181
 5335TIP3   OH237639   1.149   3.448   2.059  0.2718 -0.5834  0.4550
 5335TIP3    H137640   1.175   3.512   1.992 -3.8461 -0.9332 -1.6763
 5335TIP3    H237641   1.191   3.366   2.031 -0.3815 -0.4355 -1.0403
 5336TIP3   OH237642   0.018   4.795   2.121  0.0342  0.6506 -0.1458
 5336TIP3    H137643   0.113   4.805   2.112  0.2604  0.1657  1.5522
 5336TIP3    H237644   0.002   4.796   2.216 -1.4206 -1.3945 -0.3307
 5337TIP3   OH237645   6.499   3.259   7.078 -0.0505 -0.1078 -0.2745
 5337TIP3    H137646   6.415   3.298   7.105 -0.2895 -0.7467 -0.0868
 5337TIP3    H237647   6.476   3.172   7.045  0.4988 -0.1513 -0.5500
 5338TIP3   OH237648   0.385   3.352   7.578 -0.0193 -0.4965  0.1098
 5338TIP3    H137649   0.315   3.305   7.532 -0.1950  1.4082 -1.6387
 5338TIP3    H237650   0.449   3.372   7.510 -0.0107  1.8974  0.7746
 5339TIP3   OH237651   4.382   1.721   1.438  0.5776 -0.4772 -0.1904
 5339TIP3    H137652   4.372   1.720   1.343  0.9014 -0.3432 -0.2274
 5339TIP3    H237653   4.385   1.629   1.463  2.2714 -0.5165 -0.5080
 5340TIP3   OH237654   0.264   6.325   0.029  0.0111 -0.3913  0.1598
 5340TIP3    H137655   0.202   6.257   0.055 -0.5898  0.7735  1.8528
 5340TIP3    H237656   0.295   6.297  -0.057 -1.8264 -1.7092 -0.1141
 5341TIP3   OH237657   6.565   2.209   0.975 -0.3288  0.1752  0.5625
 5341TIP3    H137658   6.609   2.265   0.912  1.1759  0.1157  1.5339
 5341TIP3    H237659   6.587   2.120   0.949 -1.2091  0.0873  0.1016
 5342TIP3   OH237660   2.979   3.595   0.113  0.0488  0.1620  0.7603
 5342TIP3    H137661   2.984   3.687   0.087  2.0714 -0.3365 -0.7366
 5342TIP3    H237662   2.886   3.580   0.129 -0.2646  2.5495  1.3699
 5343TIP3   OH237663   0.857   4.389   7.708  0.5240  0.1033  0.7005
 5343TIP3    H137664   0.810   4.379   7.626  1.4019 -0.8972  0.3040
 5343TIP3    H237665   0.815   4.464   7.751 -0.9115 -0.2966  0.0244
 5344TIP3   OH237666   7.033   2.933   1.591  0.6602 -0.2329 -0.9543
 5344TIP3    H137667   7.113   2.883   1.572  0.3549 -0.7787 -0.8184
 5344TIP3    H237668   6.979   2.872   1.641  0.2958  0.2501 -0.7642
 5345TIP3   OH237669   0.437   6.843   6.667 -0.2526  0.0952  0.3126
 5345TIP3    H137670   0.487   6.768   6.698  1.0372  1.0065  0.4760
 5345TIP3    H237671   0.498   6.893   6.613 -1.2741  0.7100 -0.3107
 5346TIP3   OH237672   5.288   3.320   1.872 -0.4638  0.1495 -0.6308
 5346TIP3    H137673   5.213   3.268   1.899  0.2508 -1.0960 -0.9887
 5346TIP3    H237674   5.251   3.393   1.823 -1.4460 -0.3819 -0.6852
 5347TIP3   OH237675   6.540   0.349   1.459 -0.3731 -0.1126 -0.2061
 5347TIP3    H137676   6.541   0.256   1.435  1.7814 -0.1094 -0.2223
 5347TIP3    H237677   6.537   0.348   1.555  4.0833 -0.3173  0.0376
 5348TIP3   OH237678   6.065   1.634   1.187 -0.2913  0.1131 -0.9088
 5348TIP3    H137679   6.046   1.540   1.187 -1.0607  0.2657 -0.0418
 5348TIP3    H237680   5.988   1.674   1.147 -0.8740  0.5484  0.6126
 5349TIP3   OH237681   5.418   5.183   7.895 -0.3474  0.3836 -0.2644
 5349TIP3    H137682   5.455   5.163   7.981 -2.0951 -2.5362 -0.1397
 5349TIP3    H237683   5.448   5.112   7.839 -1.9811  0.4426 -1.2359
 5350TIP3   OH237684   3.013   2.244   1.133 -0.6625  0.3393 -0.1336
 5350TIP3    H137685   2.950   2.241   1.205 -0.3555  2.0873  0.2221
 5350TIP3    H237686   3.084   2.186   1.161 -0.5146  1.0671  1.0001
 5351TIP3   OH237687   6.091   1.915   7.694 -0.0298 -0.1747 -0.9811
 5351TIP3    H137688   6.095   1.927   7.789 -0.2457  0.4290 -1.0466
 5351TIP3    H237689   6.180   1.890   7.669  0.4016  1.1788 -0.8198
 5352TIP3   OH237690   2.749   4.302   7.629  0.5676 -0.2168 -0.5429
 5352TIP3    H137691   2.727   4.220   7.674  0.4206  0.9097  1.5152
 5352TIP3    H237692   2.716   4.290   7.540 -1.6107 -1.4925  0.3807
 5353TIP3   OH237693   2.716   1.701   0.948  0.0873 -0.0730 -0.1177
 5353TIP3    H137694   2.739   1.794   0.953  0.5223 -0.0918 -1.4572
 5353TIP3    H237695   2.788   1.661   0.898  0.7419 -1.4437  1.8465
 5354TIP3   OH237696   0.114   4.013   1.965  0.2477  0.5046 -0.4814
 5354TIP3    H137697   0.021   3.991   1.958  0.6880 -1.7668  0.4648
 5354TIP3    H237698   0.158   3.929   1.970  2.5255  1.5152 -2.6035
 5355TIP3   OH237699   0.193   1.651   6.734  0.4115  0.1737 -0.0358
 5355TIP3    H137700   0.232   1.705   6.665  1.3551 -0.7384 -0.2364
 5355TIP3    H237701   0.260   1.648   6.803 -0.0399  0.0938  0.4009
 5356TIP3   OH237702   5.433   0.819   6.934  0.4190  0.2540  0.0077
 5356TIP3    H137703   5.441   0.778   7.020 -0.4392  0.9710  0.4347
 5356TIP3    H237704   5.477   0.759   6.874  0.2058 -0.7006  0.8076
 5357TIP3   OH237705   0.749   5.159   0.013  0.1465 -0.1258 -0.1232
 5357TIP3    H137706   0.843   5.172   0.006 -0.2832  2.4392 -1.6845
 5357TIP3    H237707   0.729   5.177   0.105  1.0533  0.1239  0.0238
 5358TIP3   OH237708   4.748   5.923   6.491 -0.2018 -0.3967 -0.3244
 5358TIP3    H137709   4.821   5.979   6.518 -0.4704 -1.3227  2.4702
 5358TIP3    H237710   4.690   5.980   6.442  0.0827  1.4867  1.4976
 5359TIP3   OH237711   6.961   5.951   7.623 -0.0573  0.4995 -0.4613
 5359TIP3    H137712   6.972   6.005   7.701  1.8805 -0.4791 -0.0487
 5359TIP3    H237713   7.046   5.955   7.579 -0.5977 -0.3982 -1.5955
 5360TIP3   OH237714   5.510   1.140   1.373  0.8803  0.0887 -0.1970
 5360TIP3    H137715   5.587   1.151   1.429  1.1818  0.8007 -0.7495
 5360TIP3    H237716   5.544   1.146   1.283  0.3598 -0.7758 -0.4622
 5361TIP3   OH237717   2.215   1.424   1.653 -0.0226  0.0648  0.0848
 5361TIP3    H137718   2.186   1.385   1.736 -0.3006 -1.0321 -0.5093
 5361TIP3    H237719   2.302   1.387   1.638 -0.0902  0.0380 -0.2531
 5362TIP3   OH237720   4.727   2.549   2.045 -0.0746 -0.1569 -0.3898
 5362TIP3    H137721   4.785   2.482   2.081 -0.6040  0.0450  0.8269
 5362TIP3    H237722   4.736   2.538   1.950  0.5538 -1.3325 -0.2087
 5363TIP3   OH237723   5.836   0.355   1.870 -0.0774 -0.0092 -0.1054
 5363TIP3    H137724   5.817   0.424   1.934 -0.0914  0.4356 -0.5830
 5363TIP3    H237725   5.906   0.392   1.816 -1.2810  0.3339 -1.4551
 5364TIP3   OH237726   4.861   4.546   6.401  0.5174  0.3445 -0.1192
 5364TIP3    H137727   4.883   4.626   6.353  0.9463  0.3028  0.0058
 5364TIP3    H237728   4.945   4.514   6.435  0.3154 -0.0253  0.0386
 5365TIP3   OH237729   5.576   6.018   7.597  0.5889 -0.1586 -0.3312
 5365TIP3    H137730   5.599   6.081   7.528 -0.9734 -0.1092 -0.8251
 5365TIP3    H237731   5.526   6.070   7.660  1.7294 -0.2815  0.6796
 5366TIP3   OH237732   7.096   2.995   7.872 -0.4401  0.3987 -0.5599
 5366TIP3    H137733   7.027   3.016   7.936  0.2535  2.2525 -0.3984
 5366TIP3    H237734   7.177   3.024   7.913  0.4346 -1.4286 -0.9176
 5367TIP3   OH237735   6.078   0.774   0.522  0.2507 -0.2495 -0.4190
 5367TIP3    H137736   6.125   0.822   0.454 -1.0515 -0.3644 -1.4289
 5367TIP3    H237737   6.072   0.835   0.595  2.0653 -0.2829 -0.2221
 5368TIP3   OH237738   0.468   0.365   1.533  0.4597  0.3895 -0.3058
 5368TIP3    H137739   0.551   0.320   1.544 -0.0923 -0.4700  0.3829
 5368TIP3    H237740   0.418   0.310   1.473  0.3609  0.8770 -0.6762
 5369TIP3   OH237741   7.046   0.733   1.278 -1.1540  0.3137 -0.1844
 5369TIP3    H137742   7.033   0.788   1.355  1.7699 -0.6564  1.0910
 5369TIP3    H237743   7.005   0.650   1.301  0.9314 -0.4395  0.9572
 5370TIP3   OH237744   3.229   4.088   2.042 -0.1468  0.7814  0.0711
 5370TIP3    H137745   3.313   4.044   2.029 -0.0150  1.1528 -0.3351
 5370TIP3    H237746   3.165   4.017   2.046 -0.0458  0.5939 -1.3973
 5371TIP3   OH237747   6.669   1.547   7.794  0.0363  0.1233  0.0492
 5371TIP3    H137748   6.631   1.602   7.863 -0.3265  1.3333 -1.0923
 5371TIP3    H237749   6.594   1.514   7.746  0.3271  0.0300 -0.3392
 5372TIP3   OH237750   3.819   0.158   1.789  0.1789 -0.6354 -0.3430
 5372TIP3    H137751   3.817   0.167   1.884  1.4195 -0.6238 -0.3080
 5372TIP3    H237752   3.755   0.222   1.758  3.4051  3.1177  0.2896
 5373TIP3   OH237753   1.014   1.309   1.577  0.2401  0.1263  0.3466
 5373TIP3    H137754   0.961   1.374   1.623 -2.0831 -0.9078 -0.7520
 5373TIP3    H237755   1.052   1.256   1.646 -3.3697 -1.5535  1.1828
 5374TIP3   OH237756   2.486   2.228   1.228  0.2383 -0.3701  0.1899
 5374TIP3    H137757   2.571   2.216   1.185  0.6910  1.6892  0.4854
 5374TIP3    H237758   2.426   2.250   1.156  0.8246  2.2532  0.4765
 5375TIP3   OH237759   4.930   1.785   1.574 -0.1916 -0.5954 -0.2292
 5375TIP3    H137760   4.993   1.784   1.646 -0.7117  2.6995  0.3653
 5375TIP3    H237761   4.939   1.873   1.536 -1.9648 -1.2891 -2.3607
 5376TIP3   OH237762   5.477   3.830   1.010  0.2911 -0.1644  0.0256
 5376TIP3    H137763   5.408   3.764   1.022  0.5355 -0.3469  0.4249
 5376TIP3    H237764   5.506   3.851   1.099 -0.6679  1.4177 -0.0210
 5377TIP3   OH237765   5.485   2.856   1.253 -0.3471 -0.2570  0.5729
 5377TIP3    H137766   5.457   2.764   1.247  0.3636 -0.4402  0.0815
 5377TIP3    H237767   5.518   2.864   1.343  1.6848 -1.0825 -0.0782
 5378TIP3   OH237768   6.402   3.046   7.453 -0.7788  0.6219 -0.3993
 5378TIP3    H137769   6.452   3.000   7.520  0.2506  1.0509 -0.8643
 5378TIP3    H237770   6.311   3.019   7.468 -0.2423 -1.3595 -0.4740
 5379TIP3   OH237771   3.764   3.905   1.346  0.2222  0.4308  0.3163
 5379TIP3    H137772   3.805   3.914   1.432  0.4226  0.2849  0.2351
 5379TIP3    H237773   3.837   3.907   1.284  0.2828 -1.8913  0.2936
 5380TIP3   OH237774   0.897   1.685   7.842 -0.2014 -0.2913  0.1268
 5380TIP3    H137775   0.842   1.763   7.845  1.3452  0.7744  1.7330
 5380TIP3    H237776   0.972   1.710   7.788  1.2017 -0.0287  2.1358
 5381TIP3   OH237777   5.253   2.117   0.398  0.0116  0.1661  0.3302
 5381TIP3    H137778   5.254   2.140   0.305 -0.8382 -1.8114 -0.1948
 5381TIP3    H237779   5.168   2.148   0.429  0.6023  1.5136  0.6567
 5382TIP3   OH237780   0.269   6.412   0.462 -0.1622 -0.4725  0.8215
 5382TIP3    H137781   0.268   6.323   0.428 -2.1735 -0.7819  1.6393
 5382TIP3    H237782   0.339   6.412   0.528 -0.0732 -1.4173  0.7290
 5383TIP3   OH237783   2.445   3.825   1.224 -0.3721  0.0227  0.4437
 5383TIP3    H137784   2.512   3.881   1.184  1.1381 -1.1877  1.2399
 5383TIP3    H237785   2.481   3.737   1.219 -2.2940 -0.7748  0.1327
 5384TIP3   OH237786   5.242   3.527   0.799  0.4589  0.0417  0.8320
 5384TIP3    H137787   5.257   3.586   0.873 -0.3593 -0.1256  1.1343
 5384TIP3    H237788   5.148   3.533   0.783  0.5672 -0.2637  0.0884
 5385TIP3   OH237789   6.146   5.359   7.258 -0.2602  0.3742  0.3680
 5385TIP3    H137790   6.110   5.385   7.343 -1.4598 -1.1755  0.3600
 5385TIP3    H237791   6.078   5.384   7.195  0.6890  1.6548 -0.1632
 5386TIP3   OH237792   6.709   0.821   1.223 -0.6667  0.0957 -0.0434
 5386TIP3    H137793   6.752   0.891   1.272 -1.3910  0.1170  0.5732
 5386TIP3    H237794   6.692   0.858   1.137  0.4267  0.1275 -0.2544
 5387TIP3   OH237795   6.298   6.190   6.392 -0.4999 -0.0315  0.5448
 5387TIP3    H137796   6.267   6.106   6.357  0.2822  0.7790 -2.2600
 5387TIP3    H237797   6.391   6.191   6.372 -0.6647  1.8596 -0.2490
 5388TIP3   OH237798   2.282   1.266   2.116 -0.4227 -0.0852 -0.0232
 5388TIP3    H137799   2.358   1.215   2.089  1.6838  2.7591  0.3418
 5388TIP3    H237800   2.222   1.201   2.154  1.4309 -2.4903 -1.0550
 5389TIP3   OH237801   6.419   0.135   0.320 -0.0106  0.6262 -0.5197
 5389TIP3    H137802   6.355   0.106   0.386 -2.1236  0.3580 -2.6306
 5389TIP3    H237803   6.474   0.058   0.304 -1.8331 -0.4678 -1.7347
 5390TIP3   OH237804   5.695   1.672   7.896  0.1635 -0.0976 -0.2010
 5390TIP3    H137805   5.677   1.614   7.970 -0.2369  0.4119  0.1093
 5390TIP3    H237806   5.739   1.617   7.832 -1.4199 -1.0721 -0.4739
 5391TIP3   OH237807   0.901   3.557   2.094  0.2956 -0.5014  0.4012
 5391TIP3    H137808   0.873   3.567   2.003  1.7292 -0.3579 -0.0458
 5391TIP3    H237809   0.985   3.511   2.088  1.5225  1.5207  1.4872
 5392TIP3   OH237810   4.704   3.261   7.513 -0.3402  0.1336 -0.0501
 5392TIP3    H137811   4.610   3.270   7.530  0.2026  2.4384  2.0402
 5392TIP3    H237812   4.737   3.351   7.512  1.5086 -0.5028 -3.0291
 5393TIP3   OH237813   6.477   0.907   0.420 -0.6735 -0.7066  0.4234
 5393TIP3    H137814   6.493   0.914   0.325 -0.4811  2.3477  0.6153
 5393TIP3    H237815   6.542   0.844   0.451  0.9387  0.1665 -1.1057
 5394TIP3   OH237816   0.129   5.106   1.389 -0.0330 -0.6062 -0.5177
 5394TIP3    H137817   0.152   5.188   1.345 -0.0091 -0.0662  0.4850
 5394TIP3    H237818   0.133   5.127   1.482  0.8750 -1.9843 -0.2236
 5395TIP3   OH237819   5.602   6.309   1.606 -0.5941 -0.1143 -0.6135
 5395TIP3    H137820   5.591   6.396   1.567  0.7979 -0.1592 -1.1418
 5395TIP3    H237821   5.646   6.325   1.689  1.0638 -0.3939 -1.3963
 5396TIP3   OH237822   1.180   0.715   1.161  0.3564 -0.0989 -0.5383
 5396TIP3    H137823   1.255   0.709   1.103 -0.7431  3.4492 -2.4735
 5396TIP3    H237824   1.204   0.780   1.226 -0.4472 -0.0918 -0.2331
 5397TIP3   OH237825   1.068   5.488   0.079 -0.1223  0.1196  0.1287
 5397TIP3    H137826   1.136   5.503   0.145 -1.1315  1.4841  0.8859
 5397TIP3    H237827   1.033   5.576   0.061 -1.8972 -0.6040 -0.0207
 5398TIP3   OH237828   0.050   6.710   1.677 -0.1534 -0.2711  0.2620
 5398TIP3    H137829   0.010   6.767   1.743  1.2535  0.4248  0.5314
 5398TIP3    H237830   0.019   6.622   1.700 -1.1913  0.2046  0.7067
 5399TIP3   OH237831   0.609   7.054   1.578  0.2196  0.2236  0.2957
 5399TIP3    H137832   0.521   7.090   1.570  0.3069  0.7327  1.6100
 5399TIP3    H237833   0.642   7.087   1.661  0.2126 -3.0443  1.6998
 5400TIP3   OH237834   5.965   3.523   0.563  0.1390  0.1746 -0.1786
 5400TIP3    H137835   6.049   3.536   0.519 -0.4043  1.6921 -0.8051
 5400TIP3    H237836   5.947   3.607   0.605 -0.1782 -0.7145  1.5165
 5401TIP3   OH237837   5.273   5.662   6.623 -0.0345  0.0244  0.4654
 5401TIP3    H137838   5.208   5.707   6.677 -0.4160  1.0160 -0.8205
 5401TIP3    H237839   5.222   5.595   6.577 -0.4993  1.9449 -1.8876
 5402TIP3   OH237840   6.360   1.993   6.566  0.2368  0.0149 -0.8503
 5402TIP3    H137841   6.286   1.935   6.548  0.7403 -1.4732  1.5170
 5402TIP3    H237842   6.425   1.971   6.500 -0.2011 -0.9919 -0.9524
 5403TIP3   OH237843   6.361   2.130   2.017  0.1158  1.0174  0.0474
 5403TIP3    H137844   6.279   2.102   2.059  0.0316  1.9667  0.5388
 5403TIP3    H237845   6.384   2.211   2.062  2.1594 -0.0374  0.9844
 5404TIP3   OH237846   0.198   0.456   7.516 -0.6040  0.2670 -0.4290
 5404TIP3    H137847   0.163   0.539   7.484  0.9840  0.4746 -1.6795
 5404TIP3    H237848   0.126   0.394   7.504 -1.6712  1.3771  0.1527
 5405TIP3   OH237849   2.741   5.403   8.049  0.1290  0.4841 -0.2599
 5405TIP3    H137850   2.730   5.434   8.139  2.2155  1.2040 -0.2237
 5405TIP3    H237851   2.661   5.353   8.031 -0.4355  0.5465  1.8910
 5406TIP3   OH237852   1.561   4.210   0.616  0.3280 -0.0455  0.1261
 5406TIP3    H137853   1.567   4.116   0.637  0.1277 -0.0778  0.0354
 5406TIP3    H237854   1.600   4.217   0.529  0.5394 -0.0135  0.2244
 5407TIP3   OH237855   0.488   5.600   6.426  0.7119  0.0734  0.6966
 5407TIP3    H137856   0.442   5.590   6.509 -0.3647 -0.7105  0.0259
 5407TIP3    H237857   0.514   5.510   6.402 -2.0675 -0.2160 -1.5193
 5408TIP3   OH237858   7.116   2.537   7.279  0.0967  0.5436 -0.3810
 5408TIP3    H137859   7.190   2.489   7.314  0.3529  1.3470  0.2001
 5408TIP3    H237860   7.047   2.472   7.268  0.3688  0.0944  0.6065
 5409TIP3   OH237861   3.994   6.806   1.514 -0.3384  0.2072 -0.1823
 5409TIP3    H137862   3.948   6.803   1.599 -0.7177 -0.1555 -0.3997
 5409TIP3    H237863   4.030   6.718   1.504 -0.2936  0.2516 -0.3977
 5410TIP3   OH237864   5.514   1.711   1.027 -0.2169  0.2386 -0.1545
 5410TIP3    H137865   5.609   1.704   1.029 -0.2974 -0.7683  0.3896
 5410TIP3    H237866   5.492   1.763   1.105 -0.1233  0.3330 -0.1913
 5411TIP3   OH237867   5.521   2.161   1.555 -0.8875 -0.2013 -0.2557
 5411TIP3    H137868   5.468   2.125   1.627 -1.8253  0.9522 -0.3613
 5411TIP3    H237869   5.459   2.212   1.503 -0.4238 -1.7564 -2.4269
 5412TIP3   OH237870   5.252   1.530   7.306  0.4678  0.7976  0.1535
 5412TIP3    H137871   5.231   1.613   7.264 -0.6675  1.3717  1.8049
 5412TIP3    H237872   5.339   1.543   7.345  1.7647  0.0842 -2.4163
 5413TIP3   OH237873   7.117   4.394   1.357  0.3002  0.1329  0.0895
 5413TIP3    H137874   7.117   4.309   1.400 -2.5157  0.1778  0.2744
 5413TIP3    H237875   7.178   4.447   1.408  2.8462 -2.0143 -0.6136
 5414TIP3   OH237876   0.316   1.682   7.426  0.3828 -0.1930 -0.2602
 5414TIP3    H137877   0.355   1.752   7.478  0.8795 -0.4845 -0.2306
 5414TIP3    H237878   0.247   1.724   7.375  1.6066  0.5950 -1.3018
 5415TIP3   OH237879   0.744   3.098   7.948  0.1968  0.6592  0.3659
 5415TIP3    H137880   0.680   3.028   7.930  0.6040  0.7968 -1.8291
 5415TIP3    H237881   0.700   3.178   7.918  1.7296  0.6287 -2.1802
 5416TIP3   OH237882   2.702   0.045   6.214  0.0283  0.4368  0.3673
 5416TIP3    H137883   2.661  -0.029   6.170 -1.5991  1.7990 -0.4486
 5416TIP3    H237884   2.756   0.086   6.146 -1.4762  1.7825 -0.0406
 5417TIP3   OH237885   5.672   5.703   1.376  0.7957 -0.4838 -0.8016
 5417TIP3    H137886   5.584   5.700   1.413  1.7869 -0.0873  1.6772
 5417TIP3    H237887   5.679   5.789   1.336  0.2025 -0.3585 -0.6358
 5418TIP3   OH237888   1.039   0.499   6.886  0.0281  0.3920  0.3999
 5418TIP3    H137889   0.995   0.584   6.885  1.9371  1.4120  0.0499
 5418TIP3    H237890   0.988   0.447   6.948 -0.9805  1.8934  0.8735
 5419TIP3   OH237891   6.586   6.796   2.123  0.4898  0.2528  0.0874
 5419TIP3    H137892   6.550   6.734   2.059 -0.9539  1.7481 -0.5983
 5419TIP3    H237893   6.677   6.768   2.135  0.3818 -0.8982 -1.5779
 5420TIP3   OH237894   7.123   1.659   1.598  0.6979  0.3233 -0.5000
 5420TIP3    H137895   7.123   1.620   1.685 -1.4828 -0.5808 -0.8672
 5420TIP3    H237896   7.042   1.710   1.595  1.0215  0.7760 -1.8237
 5421TIP3   OH237897   5.692   7.008   8.115  0.1451 -0.1299  0.2534
 5421TIP3    H137898   5.758   7.032   8.050 -0.4751 -2.0782 -1.1302
 5421TIP3    H237899   5.616   7.061   8.093  0.1805 -0.2429 -0.1414
 5422TIP3   OH237900   6.597   4.755   1.099 -0.4685 -0.3141 -0.5795
 5422TIP3    H137901   6.560   4.777   1.185 -1.1340  0.1001 -0.9646
 5422TIP3    H237902   6.675   4.810   1.092 -1.3618  0.9465 -0.9517
 5423TIP3   OH237903   2.918   6.406   7.420  0.1439 -0.2656 -0.1026
 5423TIP3    H137904   2.918   6.347   7.496  1.7183 -1.5909 -1.0996
 5423TIP3    H237905   2.864   6.362   7.355  0.5615 -0.1792 -0.5165
 5424TIP3   OH237906   1.229   5.805   1.102  0.0074 -0.1444  0.1477
 5424TIP3    H137907   1.305   5.748   1.118  1.1045  0.7727 -1.6603
 5424TIP3    H237908   1.251   5.887   1.146  0.5948  0.5109 -1.3374
 5425TIP3   OH237909   6.726   0.338   2.079  0.0890  0.0399  0.1653
 5425TIP3    H137910   6.679   0.418   2.101 -2.1002 -0.8939 -0.9682
 5425TIP3    H237911   6.687   0.271   2.135  3.1205  0.0355  2.4110
 5426TIP3   OH237912   5.900   4.368   6.867 -0.6153 -0.1594  0.5853
 5426TIP3    H137913   5.951   4.325   6.935  0.8243  0.2833 -0.1911
 5426TIP3    H237914   5.832   4.304   6.844 -1.2481 -0.2346  2.5424
 5427TIP3   OH237915   5.763   5.979   1.278 -0.0792  0.0873  0.4178
 5427TIP3    H137916   5.819   5.910   1.243 -0.1863  1.2512 -2.1404
 5427TIP3    H237917   5.824   6.046   1.309 -0.0219  0.9302 -1.4823
 5428TIP3   OH237918   2.520   3.224   0.664  0.1052 -0.5817  0.4007
 5428TIP3    H137919   2.578   3.298   0.683 -0.0722 -0.8838  2.1279
 5428TIP3    H237920   2.577   3.147   0.668  0.6725 -0.4377 -3.1415
 5429TIP3   OH237921   5.544   2.453   1.468  0.2681 -0.1130 -0.0161
 5429TIP3    H137922   5.589   2.489   1.544  0.1761  0.3590 -0.1848
 5429TIP3    H237923   5.570   2.361   1.467 -1.4388 -0.6557  1.8537
 5430TIP3   OH237924   4.075   2.770   6.457 -0.1956 -0.4042 -0.0304
 5430TIP3    H137925   4.017   2.835   6.417 -0.4025  0.2013  1.2204
 5430TIP3    H237926   4.069   2.787   6.551 -0.9695 -2.8404  0.3999
 5431TIP3   OH237927   1.553   0.825   7.507 -0.5141 -0.2976  0.0523
 5431TIP3    H137928   1.641   0.789   7.498 -1.6749 -3.0697 -0.5908
 5431TIP3    H237929   1.514   0.816   7.420 -1.3752  1.1214  0.2662
 5432TIP3   OH237930   2.770   5.559   7.004  0.4466 -0.1311  0.2500
 5432TIP3    H137931   2.859   5.578   6.977 -0.0427  0.5246 -0.9370
 5432TIP3    H237932   2.719   5.633   6.972 -0.4136 -0.1541  1.5324
 5433TIP3   OH237933   2.752   5.941   2.150 -0.3067  0.7732  0.6526
 5433TIP3    H137934   2.797   5.955   2.066 -0.6696 -0.2087  0.2859
 5433TIP3    H237935   2.775   6.017   2.202  0.3115  1.1677 -0.1776
 5434TIP3   OH237936   0.728   6.306   0.845 -0.0917 -0.3840 -0.0187
 5434TIP3    H137937   0.781   6.376   0.806  0.3235 -0.6938 -0.0102
 5434TIP3    H237938   0.661   6.353   0.896  0.1016  0.0088 -0.1206
 5435TIP3   OH237939   1.332   3.362   0.991  0.3517 -0.3050 -0.3488
 5435TIP3    H137940   1.392   3.359   0.916  0.5839 -2.1198 -0.1088
 5435TIP3    H237941   1.388   3.350   1.067 -0.1121 -0.2987 -0.0058
 5436TIP3   OH237942   5.400   4.539   7.768 -0.4668  0.5461 -0.6977
 5436TIP3    H137943   5.389   4.445   7.780  1.6000  0.5908  1.8849
 5436TIP3    H237944   5.413   4.549   7.673 -0.0055 -1.8320 -0.9193
 5437TIP3   OH237945   4.479   2.901   2.067  0.1453 -0.0949 -0.6391
 5437TIP3    H137946   4.407   2.945   2.022 -0.4315  0.0416  0.4015
 5437TIP3    H237947   4.477   2.811   2.034 -0.8051 -0.2156 -0.2570
 5438TIP3   OH237948   6.669   4.201   1.468 -0.3024  0.1598 -0.3572
 5438TIP3    H137949   6.716   4.220   1.387  0.2704 -0.2127 -0.1135
 5438TIP3    H237950   6.615   4.278   1.483 -0.1888  0.3550 -0.9380
 5439TIP3   OH237951   1.608   2.551   7.107 -0.3478 -0.1702 -0.0738
 5439TIP3    H137952   1.631   2.610   7.179 -0.8194  0.9110 -0.8050
 5439TIP3    H237953   1.577   2.471   7.151  0.1639  0.1654  0.9158
 5440TIP3   OH237954   3.595   3.176   0.119  0.3958 -0.6121  0.1138
 5440TIP3    H137955   3.505   3.157   0.146 -0.1700 -0.2592 -1.4387
 5440TIP3    H237956   3.637   3.090   0.115 -0.7414 -1.1002 -2.0484
 5441TIP3   OH237957   1.267   3.754   0.282 -0.1896  1.1168 -0.1733
 5441TIP3    H137958   1.172   3.742   0.292 -0.0337  0.1353  0.0976
 5441TIP3    H237959   1.280   3.760   0.187 -0.6011  1.9487 -0.1881
 5442TIP3   OH237960   2.289   4.839   1.965  0.3757 -0.7065 -0.1571
 5442TIP3    H137961   2.331   4.920   1.992 -1.8134  0.1364  0.8436
 5442TIP3    H237962   2.304   4.778   2.037  1.0221 -0.8377 -0.3988
 5443TIP3   OH237963   2.981   3.624   1.883 -0.0964  0.3068  0.4260
 5443TIP3    H137964   3.047   3.688   1.859  1.0395 -0.6332  1.0219
 5443TIP3    H237965   2.942   3.658   1.963  1.1875 -0.2376  1.2837
 5444TIP3   OH237966   0.104   3.438   1.527 -0.5672  0.0753 -0.1145
 5444TIP3    H137967   0.040   3.433   1.598  0.2963  0.1849  0.6960
 5444TIP3    H237968   0.149   3.353   1.530  0.1019  0.4330  0.0881
 5445TIP3   OH237969   6.811   0.119   7.706 -0.0522 -0.7042  1.1794
 5445TIP3    H137970   6.744   0.063   7.744 -1.4643 -0.5341 -0.9916
 5445TIP3    H237971   6.857   0.064   7.643 -0.6355  0.2174 -0.0718
 5446TIP3   OH237972   0.678   4.732   1.080 -0.0699  0.3381  0.3207
 5446TIP3    H137973   0.662   4.647   1.039  1.6487 -0.3827  1.0904
 5446TIP3    H237974   0.612   4.738   1.149 -1.8371  0.7771 -1.3593
 5447TIP3   OH237975   0.534   4.934   6.478  0.3206  0.2322  0.4641
 5447TIP3    H137976   0.520   5.017   6.523  2.5877  0.5355  0.6418
 5447TIP3    H237977   0.543   4.957   6.386  2.3100  0.3450  0.6783
 5448TIP3   OH237978   4.593   1.835   7.116  0.1172  0.5459 -0.1633
 5448TIP3    H137979   4.621   1.831   7.025 -0.9739  0.8386 -0.5150
 5448TIP3    H237980   4.498   1.824   7.113  0.1811 -0.4050  1.0175
 5449TIP3   OH237981   7.077   4.684   0.256  0.1623  0.0235 -0.1482
 5449TIP3    H137982   7.168   4.659   0.272 -0.1497  0.3425  2.3706
 5449TIP3    H237983   7.083   4.768   0.210  1.1448 -0.6431 -1.2459
 5450TIP3   OH237984   3.095   4.596   1.867  0.1814  0.0524 -0.4292
 5450TIP3    H137985   3.092   4.521   1.926  1.4994  1.0042  0.8790
 5450TIP3    H237986   3.187   4.605   1.844  0.1542  1.7462  0.0619
 5451TIP3   OH237987   7.009   5.491   1.703  0.5272 -0.1693  0.0618
 5451TIP3    H137988   7.065   5.564   1.732  0.4086  0.3757 -1.0119
 5451TIP3    H237989   7.062   5.446   1.637 -0.7559  1.1546 -1.9609
 5452TIP3   OH237990   3.853   5.825   6.465  0.1052  0.1299  0.2932
 5452TIP3    H137991   3.896   5.901   6.424  0.1532  0.7617  1.5047
 5452TIP3    H237992   3.760   5.850   6.469  0.2238  0.4375  1.3495
 5453TIP3   OH237993   1.527   2.997   0.457 -0.3210  0.4240  0.4180
 5453TIP3    H137994   1.580   2.924   0.488  0.3022  0.5254 -0.3906
 5453TIP3    H237995   1.587   3.049   0.404 -1.2416  0.4854 -0.5925
 5454TIP3   OH237996   0.273   2.387   1.411 -0.0784 -0.6438  0.5995
 5454TIP3    H137997   0.297   2.294   1.403 -2.0074 -1.3893  2.8212
 5454TIP3    H237998   0.298   2.410   1.500  0.7568  1.1120 -0.0800
 5455TIP3   OH237999   0.451   4.104   7.052 -0.4060  0.0322  0.6185
 5455TIP3    H138000   0.413   4.040   6.992  0.9178 -0.4597  0.2808
 5455TIP3    H238001   0.377   4.156   7.082 -1.2491 -0.5027 -0.5025
 5456TIP3   OH238002   0.192   5.381   1.372  0.3636 -0.3580 -0.0148
 5456TIP3    H138003   0.217   5.405   1.462  0.4313  1.0561 -0.3963
 5456TIP3    H238004   0.137   5.454   1.343 -1.3710 -1.7870 -0.4063
 5457TIP3   OH238005   2.886   3.665   0.811  0.3186 -0.4806  0.3791
 5457TIP3    H138006   2.916   3.582   0.849  0.7097  0.4872  2.2587
 5457TIP3    H238007   2.817   3.694   0.871  1.0103  1.1326  0.4087
 5458TIP3   OH238008   0.239   1.018   1.446  0.1307 -0.1152 -0.1193
 5458TIP3    H138009   0.316   0.966   1.423 -0.6707 -1.8307  0.9382
 5458TIP3    H238010   0.244   1.027   1.542 -1.1772 -0.5737  0.0038
 5459TIP3   OH238011   0.069   5.029   6.872 -0.2497  0.0398  0.0019
 5459TIP3    H138012   0.162   5.024   6.892 -0.1002 -1.2093 -0.9634
 5459TIP3    H238013   0.056   5.117   6.836  0.8635 -0.3538 -1.3798
 5460TIP3   OH238014   0.515   3.393   6.737  0.5968 -0.4534  0.0832
 5460TIP3    H138015   0.515   3.432   6.825 -1.3313  0.0890 -0.1426
 5460TIP3    H238016   0.521   3.468   6.678 -2.0587 -0.5149 -0.3270
 5461TIP3   OH238017   1.725   2.794   6.549  0.0412  0.6902  0.7006
 5461TIP3    H138018   1.649   2.819   6.496  1.9346  5.2290 -0.1205
 5461TIP3    H238019   1.779   2.743   6.489  0.2232  2.2502 -0.5006
 5462TIP3   OH238020   3.576   2.368   1.983  0.5250  0.0151  0.2667
 5462TIP3    H138021   3.489   2.332   2.003  0.1363  0.6333 -0.2709
 5462TIP3    H238022   3.595   2.426   2.056  0.2740  0.2372  0.1580
 5463TIP3   OH238023   0.896   6.142   8.078  0.1705 -0.2641 -0.6316
 5463TIP3    H138024   0.821   6.162   8.135  0.3744 -2.1631  0.3325
 5463TIP3    H238025   0.862   6.079   8.015  0.7082 -0.3942 -0.7899
 5464TIP3   OH238026   4.399   5.891   1.281  0.2502  0.1579  0.2596
 5464TIP3    H138027   4.366   5.819   1.335 -0.9096  1.0232  0.7156
 5464TIP3    H238028   4.388   5.861   1.191 -2.5387  0.7428  0.3771
 5465TIP3   OH238029   1.659   0.499   1.780  0.1705  0.5812  0.0631
 5465TIP3    H138030   1.564   0.507   1.792 -0.1867 -1.7379 -1.0394
 5465TIP3    H238031   1.685   0.430   1.841  0.7666 -0.4444 -1.3482
 5466TIP3   OH238032   6.707   1.305   1.128 -0.5523  0.1494 -0.3086
 5466TIP3    H138033   6.760   1.231   1.099 -0.0714  1.0561 -1.8094
 5466TIP3    H238034   6.756   1.342   1.202 -0.1508 -0.2515 -0.3745
 5467TIP3   OH238035   5.891   2.866   1.176 -0.3575  0.2611 -0.2887
 5467TIP3    H138036   5.984   2.888   1.171 -0.3748  0.2538 -0.6172
 5467TIP3    H238037   5.878   2.841   1.268  0.0665 -0.2053 -0.3533
 5468TIP3   OH238038   1.394   3.196   1.221 -0.2808  1.0351 -0.4372
 5468TIP3    H138039   1.484   3.170   1.241 -0.6774 -0.1648 -0.2251
 5468TIP3    H238040   1.364   3.132   1.156 -1.3997  0.7150  0.3948
 5469TIP3   OH238041   3.284   3.026   1.266 -0.2679  0.0672 -0.3633
 5469TIP3    H138042   3.311   3.032   1.357  0.8574 -0.7852 -0.6283
 5469TIP3    H238043   3.202   3.075   1.262  0.6513  1.7485  0.7070
 5470TIP3   OH238044   2.557   4.641   0.801 -0.0722  0.1638 -0.7683
 5470TIP3    H138045   2.541   4.561   0.851  2.2170 -0.3169 -0.7597
 5470TIP3    H238046   2.628   4.684   0.848 -1.1856  2.1437 -0.8634
 5471TIP3   OH238047   0.694   2.859   0.892  0.4402 -0.9876 -0.1126
 5471TIP3    H138048   0.655   2.804   0.961 -0.3239 -1.4771 -0.9260
 5471TIP3    H238049   0.660   2.946   0.911  1.7090 -0.7538  1.2237
 5472TIP3   OH238050   1.554   2.455   0.492  0.9211  0.1673  0.5730
 5472TIP3    H138051   1.533   2.378   0.439  0.6304  0.1445  0.7185
 5472TIP3    H238052   1.635   2.432   0.537 -0.3966 -0.9853  2.4306
 5473TIP3   OH238053   1.591   2.169   6.549 -0.0059 -0.0164 -0.1559
 5473TIP3    H138054   1.664   2.147   6.490  0.1227 -1.0102  0.3476
 5473TIP3    H238055   1.634   2.206   6.627 -0.1034  0.2805 -0.2438
 5474TIP3   OH238056   3.072   1.628   0.914 -0.5696 -0.0409 -0.1137
 5474TIP3    H138057   3.101   1.537   0.906 -2.0918 -0.4991 -0.4879
 5474TIP3    H238058   3.015   1.629   0.991  0.2010  0.8006  0.4540
 5475TIP3   OH238059   1.785   3.783   0.139  0.0030 -0.5226  0.2261
 5475TIP3    H138060   1.800   3.870   0.176  1.3847 -0.6424 -0.0198
 5475TIP3    H238061   1.697   3.787   0.103  0.5229  1.2066 -0.9364
 5476TIP3   OH238062   5.137   4.720   7.010 -0.4462 -0.2938 -0.7045
 5476TIP3    H138063   5.128   4.804   7.056  0.0445  0.6167 -2.2328
 5476TIP3    H238064   5.095   4.657   7.068  0.7295  0.7222  1.3004
 5477TIP3   OH238065   0.354   3.745   0.074 -0.0058 -0.0926  0.2658
 5477TIP3    H138066   0.402   3.806   0.130  1.0343 -1.6769  1.1222
 5477TIP3    H238067   0.263   3.751   0.104  0.1856  0.6282  0.7092
 5478TIP3   OH238068   0.191   5.902   6.760 -0.0415 -0.1429 -1.0005
 5478TIP3    H138069   0.227   5.892   6.848 -0.5281  1.4059 -0.6046
 5478TIP3    H238070   0.099   5.928   6.775 -0.1844 -0.0925 -1.9545
 5479TIP3   OH238071   6.380   5.875   1.330  0.3323 -0.3145  0.7888
 5479TIP3    H138072   6.439   5.883   1.405 -0.4514 -1.9082  1.5880
 5479TIP3    H238073   6.315   5.810   1.357 -0.3742 -0.3823 -1.0084
 5480TIP3   OH238074   1.004   2.782   1.085 -0.4358 -0.2086  0.3789
 5480TIP3    H138075   1.007   2.820   0.997 -4.3109  0.0957  0.2653
 5480TIP3    H238076   0.994   2.688   1.071  2.1394 -0.5287  0.5668
 5481TIP3   OH238077   1.604   3.371   7.055  0.2074  0.0711  0.2922
 5481TIP3    H138078   1.519   3.351   7.094 -0.4499 -0.6976 -1.4819
 5481TIP3    H238079   1.647   3.286   7.047  0.8247  0.3683  0.4501
 5482TIP3   OH238080   6.727   4.763   0.691  0.5576 -0.0969  0.6600
 5482TIP3    H138081   6.662   4.804   0.635 -0.1959  0.9111  2.2253
 5482TIP3    H238082   6.680   4.691   0.734  1.2074 -1.0540 -0.2200
 5483TIP3   OH238083   7.081   2.315   1.447  0.2133  0.3095 -0.4178
 5483TIP3    H138084   7.080   2.403   1.485 -1.6603  0.0068  0.3308
 5483TIP3    H238085   7.165   2.308   1.402  1.6617  1.4094  2.0192
 5484TIP3   OH238086   5.203   5.519   1.371 -0.3109 -0.1290 -0.3674
 5484TIP3    H138087   5.234   5.429   1.364  0.1904 -0.1039  1.4434
 5484TIP3    H238088   5.114   5.516   1.336 -0.5064 -1.4573  0.2183
 5485TIP3   OH238089   7.069   3.325   7.899 -0.0665 -0.7341 -0.5250
 5485TIP3    H138090   7.107   3.333   7.812 -2.3577  1.4714 -1.3723
 5485TIP3    H238091   7.134   3.275   7.949  2.5680  0.4019 -2.6880
 5486TIP3   OH238092   1.342   5.559   5.803 -0.1648  0.3968 -0.3251
 5486TIP3    H138093   1.398   5.506   5.747 -0.8183  0.5778 -1.1669
 5486TIP3    H238094   1.395   5.635   5.825  0.6352 -0.4069  0.5606
 5487TIP3   OH238095   0.072   2.574   1.405  0.1539 -0.3046 -0.1546
 5487TIP3    H138096   0.149   2.517   1.398 -0.3143 -0.8518 -0.9053
 5487TIP3    H238097   0.023   2.558   1.324 -1.0539 -0.3940  0.5888
 5488TIP3   OH238098   6.339   3.591   7.731 -0.6188  0.4303  0.3444
 5488TIP3    H138099   6.423   3.567   7.694 -1.1120  0.3110 -0.7111
 5488TIP3    H238100   6.359   3.617   7.821  0.3353 -1.0621  0.5763
 5489TIP3   OH238101   6.796   3.450   6.102 -0.0708  0.4417  0.5675
 5489TIP3    H138102   6.730   3.501   6.054  1.0666  1.8257  0.4390
 5489TIP3    H238103   6.805   3.370   6.051 -1.1448  0.5328  0.2053
 5490TIP3   OH238104   4.565   4.526   7.608  0.6632  0.2451 -0.7354
 5490TIP3    H138105   4.583   4.550   7.699  1.4140  0.2851 -0.8845
 5490TIP3    H238106   4.513   4.446   7.614  1.4859 -0.2638 -0.2765
 5491TIP3   OH238107   0.994   2.418   2.159  0.1595 -0.2296  0.0944
 5491TIP3    H138108   1.039   2.338   2.132 -0.5105 -0.4400 -0.4222
 5491TIP3    H238109   1.049   2.489   2.124  0.6551 -0.4603  0.3950
 5492TIP3   OH238110   7.015   2.273   1.141 -0.5289  0.0113 -0.1765
 5492TIP3    H138111   6.950   2.226   1.193 -0.0846  0.4686  0.8094
 5492TIP3    H238112   7.077   2.206   1.114 -1.0552 -0.3185 -0.5686
 5493TIP3   OH238113   6.461   5.996   7.816 -0.4292 -0.4680  0.4105
 5493TIP3    H138114   6.548   5.967   7.788  0.1301  0.7646  0.8643
 5493TIP3    H238115   6.477   6.049   7.894 -1.6102 -0.3366  0.5772
 5494TIP3   OH238116   4.502   1.345   7.992 -0.0198  0.0501 -0.1384
 5494TIP3    H138117   4.532   1.362   7.903 -4.1974  2.4096 -1.2332
 5494TIP3    H238118   4.469   1.255   7.989 -2.0923  0.8327 -1.5964
 5495TIP3   OH238119   5.623   2.899   6.320  0.1907 -0.0784  0.2919
 5495TIP3    H138120   5.628   2.978   6.266  2.8172 -0.8914 -0.7636
 5495TIP3    H238121   5.541   2.907   6.367 -0.1188  2.7455 -0.6282
 5496TIP3   OH238122   1.630   6.256   0.195 -0.3005  0.2023  0.1957
 5496TIP3    H138123   1.569   6.225   0.262 -0.8269  0.0147 -0.3591
 5496TIP3    H238124   1.657   6.176   0.150  0.1510  0.3150  0.2679
 5497TIP3   OH238125   1.720   5.015   0.184  0.4464 -0.1896  0.5578
 5497TIP3    H138126   1.654   4.977   0.126  0.1517  1.3705 -0.1546
 5497TIP3    H238127   1.803   4.994   0.143  0.2089  1.8479 -1.0777
 5498TIP3   OH238128   6.066   4.466   6.616 -0.1959 -0.3252 -0.5299
 5498TIP3    H138129   6.003   4.424   6.673 -0.0645  1.3481  0.8911
 5498TIP3    H238130   6.150   4.457   6.662 -0.0324  0.7440 -0.6074
 5499TIP3   OH238131   4.306   0.002   0.333  0.3936 -0.8253  0.2770
 5499TIP3    H138132   4.279  -0.057   0.403  0.1031 -0.4668  0.4705
 5499TIP3    H238133   4.385  -0.038   0.297  1.0426 -0.5654  1.3781
 5500TIP3   OH238134   1.392   6.038   1.181 -0.8814 -0.3737  0.2646
 5500TIP3    H138135   1.414   6.114   1.127 -0.3858  0.2055  1.2799
 5500TIP3    H238136   1.457   5.972   1.157 -0.3413  0.0615  0.5272
 5501TIP3   OH238137   4.743   4.717   1.641 -0.4197 -0.1154  0.4499
 5501TIP3    H138138   4.680   4.780   1.673 -0.3148  0.0780  0.2748
 5501TIP3    H238139   4.692   4.637   1.627 -0.8828  0.3915 -0.8776
 5502TIP3   OH238140   5.343   6.492   0.944 -0.0977 -0.0378  0.0487
 5502TIP3    H138141   5.294   6.517   0.865 -0.3318  0.5342  0.3673
 5502TIP3    H238142   5.429   6.532   0.932 -0.3822  0.7004  0.4291
 5503TIP3   OH238143   4.509   3.741   1.781  0.0083  0.5605 -0.4492
 5503TIP3    H138144   4.465   3.661   1.810 -0.6035  1.0897  0.1206
 5503TIP3    H238145   4.564   3.767   1.855 -1.6301  1.9689  0.3357
 5504TIP3   OH238146   6.913   1.390   0.184 -0.1839 -0.2850 -0.1235
 5504TIP3    H138147   6.994   1.357   0.224 -0.7506 -0.5937  0.7737
 5504TIP3    H238148   6.864   1.311   0.162  0.2207 -0.1381 -1.6851
 5505TIP3   OH238149   2.136   1.151   0.953 -0.1004 -0.1260 -0.0146
 5505TIP3    H138150   2.083   1.072   0.962  1.2313 -1.0240  0.0996
 5505TIP3    H238151   2.225   1.123   0.974  0.7688  0.8880 -2.1618
 5506TIP3   OH238152   5.182   5.198   8.036  0.2323  0.2504 -0.9754
 5506TIP3    H138153   5.177   5.290   8.013 -1.0173  0.5758  0.5009
 5506TIP3    H238154   5.246   5.161   7.976 -0.7212  1.6742 -2.8976
 5507TIP3   OH238155   3.607   2.238   1.503 -0.0833 -0.2796 -0.1726
 5507TIP3    H138156   3.696   2.222   1.470  0.1228 -0.1385  0.3028
 5507TIP3    H238157   3.613   2.218   1.597 -0.3323  0.5654  0.0248
 5508TIP3   OH238158   0.025   4.403   0.048 -0.1864  0.2667  0.1289
 5508TIP3    H138159   0.018   4.460   0.124  0.0759  0.2874  0.1362
 5508TIP3    H238160   0.062   4.458  -0.021 -1.3493  0.5186 -0.2987
 5509TIP3   OH238161   0.645   1.816   1.339 -0.4075 -0.1352 -0.0340
 5509TIP3    H138162   0.672   1.820   1.247 -1.0139 -0.1935 -0.2171
 5509TIP3    H238163   0.727   1.827   1.389 -0.0620 -0.2327 -0.5780
 5510TIP3   OH238164   1.983   0.682   8.106  0.0700  0.4121  0.0289
 5510TIP3    H138165   1.902   0.695   8.056 -0.2420  1.9260  0.8857
 5510TIP3    H238166   2.050   0.671   8.039 -1.0285 -2.4391 -0.7091
 5511TIP3   OH238167   3.201   0.169   1.471  0.1469 -0.1620  0.7186
 5511TIP3    H138168   3.161   0.124   1.397 -1.7334  1.7559  0.5338
 5511TIP3    H238169   3.280   0.118   1.490 -0.8304 -2.3129 -0.7797
 5512TIP3   OH238170   6.375   4.379   0.867 -0.1580 -0.4886 -0.0328
 5512TIP3    H138171   6.319   4.380   0.944 -0.2972 -0.3015 -0.1369
 5512TIP3    H238172   6.401   4.287   0.857  0.1384 -0.4579  0.4370
 5513TIP3   OH238173   6.859   0.836   0.827  0.5116  0.7638 -0.0383
 5513TIP3    H138174   6.868   0.758   0.882  0.6674 -0.1483 -1.3478
 5513TIP3    H238175   6.870   0.909   0.888  2.1667 -0.2427  0.8921
 5514TIP3   OH238176   7.032   3.676   1.057 -0.1592 -0.3952  0.0343
 5514TIP3    H138177   7.088   3.666   0.980 -0.8106 -0.0873 -0.4859
 5514TIP3    H238178   7.080   3.633   1.128 -0.1311 -1.8112 -0.8165
 5515TIP3   OH238179   2.721   5.411   1.414 -0.0913 -0.3184  0.4747
 5515TIP3    H138180   2.723   5.323   1.451  1.7175 -0.0371  1.1288
 5515TIP3    H238181   2.630   5.440   1.423 -0.6783 -2.0884  0.3035
 5516TIP3   OH238182   6.610   2.033   1.880  0.1024 -0.3362 -0.5180
 5516TIP3    H138183   6.681   2.043   1.943  1.1538  0.2296 -1.7508
 5516TIP3    H238184   6.531   2.058   1.928  1.2151  2.7785 -0.1858
 5517TIP3   OH238185   3.717   4.782   0.270  0.2142 -0.3140 -0.3567
 5517TIP3    H138186   3.758   4.863   0.299 -1.3128  0.7760 -1.1816
 5517TIP3    H238187   3.735   4.719   0.340  4.0271 -0.1487 -1.1104
 5518TIP3   OH238188   5.390   0.778   8.119 -0.3490 -0.2688  0.5788
 5518TIP3    H138189   5.359   0.773   8.209 -1.5820 -1.7197  0.0973
 5518TIP3    H238190   5.310   0.786   8.067  0.2502 -1.0163 -0.4827
 5519TIP3   OH238191   3.312   2.297   0.033  0.1034  0.7814  0.0687
 5519TIP3    H138192   3.303   2.378   0.083 -0.0063  0.6096  0.3290
 5519TIP3    H238193   3.401   2.302  -0.003  0.2072  0.8764  0.3339
 5520TIP3   OH238194   1.765   4.708   1.367 -0.4892  0.3861 -0.3174
 5520TIP3    H138195   1.757   4.613   1.372 -0.6356  0.4979  1.7595
 5520TIP3    H238196   1.677   4.739   1.344  0.0949 -0.1022 -3.4967
 5521TIP3   OH238197   6.839   4.274   1.272  0.3184 -0.5266 -0.1756
 5521TIP3    H138198   6.849   4.361   1.232  0.4003 -0.2664  0.4114
 5521TIP3    H238199   6.915   4.264   1.328  0.5182 -1.1501 -0.5464
 5522TIP3   OH238200   1.055   3.943   2.421 -0.3994  0.5779  0.5658
 5522TIP3    H138201   0.962   3.924   2.410 -0.0172 -1.8135  1.2862
 5522TIP3    H238202   1.098   3.889   2.355  0.5306  1.2618  0.6060
 5523TIP3   OH238203   6.564   2.972   2.113  0.1713 -0.5594 -0.2696
 5523TIP3    H138204   6.474   3.004   2.119 -0.1587 -1.2614 -1.2207
 5523TIP3    H238205   6.586   2.943   2.202 -0.5129 -0.3092 -0.0193
 5524TIP3   OH238206   0.615   2.412   1.261 -0.1336 -0.0623  0.1842
 5524TIP3    H138207   0.532   2.366   1.244  0.7219 -1.1659 -1.1088
 5524TIP3    H238208   0.663   2.353   1.319  0.4188 -0.2132 -0.4143
 5525TIP3   OH238209   6.603   1.623   1.658 -0.2273  0.1356  0.4160
 5525TIP3    H138210   6.527   1.676   1.633 -0.4663 -0.0083  0.8313
 5525TIP3    H238211   6.581   1.589   1.745  0.7962  0.9917  1.0104
 5526TIP3   OH238212   3.008   5.103   1.381 -0.2177  0.2681 -0.0715
 5526TIP3    H138213   3.090   5.055   1.396 -0.1699  0.4183  0.1509
 5526TIP3    H238214   2.941   5.035   1.377  0.2621 -0.1129 -3.0353
 5527TIP3   OH238215   1.031   5.758   0.070 -0.4656 -0.3633  0.2843
 5527TIP3    H138216   1.068   5.841   0.102  1.0877  0.2047 -2.7912
 5527TIP3    H238217   0.951   5.784   0.023  0.4882 -0.4554 -1.4391
 5528TIP3   OH238218   4.135   5.573   0.777  1.1712  0.0195  0.1972
 5528TIP3    H138219   4.118   5.665   0.796 -0.4830 -0.5123  1.4231
 5528TIP3    H238220   4.049   5.536   0.757  1.0642 -2.2248  4.1917
 5529TIP3   OH238221   4.194   5.708   6.591  0.4698 -0.0322 -0.1682
 5529TIP3    H138222   4.101   5.699   6.611  0.9263 -0.1453  2.0056
 5529TIP3    H238223   4.227   5.618   6.585  0.4035  0.0067 -1.0760
 5530TIP3   OH238224   6.381   6.237   7.298  0.1383  0.4128 -0.7648
 5530TIP3    H138225   6.434   6.245   7.377  2.8666  1.0008 -2.6104
 5530TIP3    H238226   6.382   6.144   7.277 -1.9719  0.0132  0.7819
 5531TIP3   OH238227   0.619   3.677   0.070 -0.4191  0.0325  0.5230
 5531TIP3    H138228   0.658   3.745   0.126 -0.2315  0.7045 -0.4114
 5531TIP3    H238229   0.526   3.698   0.068 -0.4114  0.0652  0.5063
 5532TIP3   OH238230   2.876   4.857   1.415 -0.0869  0.5044  0.2044
 5532TIP3    H138231   2.817   4.858   1.491  0.3349  0.3878  0.5339
 5532TIP3    H238232   2.882   4.764   1.391  1.9391  0.2288  1.7134
 5533TIP3   OH238233   0.338   2.444   0.085  0.6686  0.4522 -0.7038
 5533TIP3    H138234   0.263   2.389   0.107  0.4280  0.5342 -1.3148
 5533TIP3    H238235   0.414   2.393   0.112  0.4101  0.1758 -0.4984
 5534TIP3   OH238236   1.118   5.142   1.434  0.2684  0.0922  0.2283
 5534TIP3    H138237   1.171   5.137   1.514  0.4316  1.2099  0.2012
 5534TIP3    H238238   1.174   5.106   1.366  0.3220 -0.3998  0.5304
 5535TIP3   OH238239   6.778   4.523   1.164  0.2286  1.1918  0.0946
 5535TIP3    H138240   6.823   4.527   1.080  0.1430  0.5901  0.0198
 5535TIP3    H238241   6.708   4.588   1.157 -1.0988 -0.3372 -1.0813
 5536TIP3   OH238242   1.577   5.314   0.785 -0.1426  0.0409  0.2993
 5536TIP3    H138243   1.648   5.352   0.836 -0.0677 -0.5935  0.6781
 5536TIP3    H238244   1.579   5.361   0.702  0.1146  0.6702  0.6633
 5537TIP3   OH238245   2.211   3.840   6.194  0.2303 -0.1586 -0.2870
 5537TIP3    H138246   2.222   3.864   6.287 -1.2687  0.7215 -0.3248
 5537TIP3    H238247   2.177   3.919   6.153  1.5805 -0.3183 -1.7597
 5538TIP3   OH238248   6.121   3.251   7.376  0.5983 -0.0792 -0.1611
 5538TIP3    H138249   6.039   3.300   7.382 -1.5270 -3.5442  0.2254
 5538TIP3    H238250   6.180   3.294   7.438 -2.1871  0.1288  2.4470
 5539TIP3   OH238251   3.220   4.327   6.416  0.1138 -0.1234  0.2483
 5539TIP3    H138252   3.189   4.416   6.437  0.9962  0.4409 -0.8048
 5539TIP3    H238253   3.285   4.340   6.346  0.3703 -1.5856  0.2054
 5540TIP3   OH238254   6.677   2.925   7.858  0.4835 -0.7090 -0.6020
 5540TIP3    H138255   6.659   2.966   7.942  0.7175 -2.0905  0.1389
 5540TIP3    H238256   6.674   2.831   7.876 -0.6515 -1.0386 -2.3861
 5541TIP3   OH238257   2.871   3.025   1.435  0.1765 -0.1082  0.9478
 5541TIP3    H138258   2.935   3.096   1.440  0.9522 -0.7642  0.4539
 5541TIP3    H238259   2.840   3.026   1.345  0.2509 -0.4616  0.9200
 5542TIP3   OH238260   0.712   4.701   7.999  0.0467 -0.2731 -0.1031
 5542TIP3    H138261   0.806   4.709   7.981  0.1318 -2.4066 -0.7352
 5542TIP3    H238262   0.698   4.608   8.014 -1.6112  0.2869  2.1495
 5543TIP3   OH238263   3.128   3.668   7.429 -0.1994  0.5096  0.6416
 5543TIP3    H138264   3.143   3.662   7.523 -0.7458  0.0263  0.7035
 5543TIP3    H238265   3.214   3.657   7.390 -0.0168  0.3978  1.0753
 5544TIP3   OH238266   2.844   4.139   1.089 -0.5364  0.6090 -0.5997
 5544TIP3    H138267   2.828   4.128   0.995 -0.3753  0.4017 -0.6035
 5544TIP3    H238268   2.933   4.106   1.102 -0.2434  1.4238 -0.5197
 5545TIP3   OH238269   1.222   5.516   0.328 -0.0752 -0.1794 -0.3747
 5545TIP3    H138270   1.238   5.587   0.391  1.5721  0.1329 -1.1187
 5545TIP3    H238271   1.188   5.444   0.381  1.8484 -0.1262  0.9690
 5546TIP3   OH238272   2.162   5.702   7.122 -0.2515  0.3320 -0.3062
 5546TIP3    H138273   2.070   5.682   7.137 -0.8387  1.9463 -1.6209
 5546TIP3    H238274   2.168   5.797   7.132  0.8659  0.4859 -2.2691
 5547TIP3   OH238275   2.012   3.871   2.065  0.1080  0.2752  0.1821
 5547TIP3    H138276   1.970   3.811   2.004  0.8518 -1.5111  1.3989
 5547TIP3    H238277   2.092   3.899   2.020  1.0717 -1.6726  0.6474
 5548TIP3   OH238278   4.678   3.112   1.040  0.2132  0.1802  0.0576
 5548TIP3    H138279   4.662   3.020   1.019  0.8548  0.4904 -1.9104
 5548TIP3    H238280   4.773   3.122   1.036  0.2767  0.5712  1.9584
 5549TIP3   OH238281   4.499   2.868   0.949 -0.2253 -0.1579  0.2589
 5549TIP3    H138282   4.587   2.848   0.916  0.9297  0.6047  2.7322
 5549TIP3    H238283   4.471   2.943   0.898  0.9786  0.1812  0.0726
 5550TIP3   OH238284   1.939   7.101   0.184  0.1558 -0.0596  0.0552
 5550TIP3    H138285   1.903   7.047   0.113 -1.9410  1.5041 -0.1414
 5550TIP3    H238286   1.933   7.191   0.151  1.5904  0.4786  1.2059
 5551TIP3   OH238287   5.281   3.235   0.718  0.3542  0.7182 -0.3006
 5551TIP3    H138288   5.294   3.330   0.719 -0.7374  0.8742 -0.2221
 5551TIP3    H238289   5.255   3.213   0.807 -0.8488  0.5604 -0.6884
 5552TIP3   OH238290   6.605   5.345   0.130 -0.5019  0.1115  0.3096
 5552TIP3    H138291   6.538   5.297   0.179  0.0986 -1.9357 -0.8063
 5552TIP3    H238292   6.556   5.394   0.064 -0.9744 -0.6829  0.0668
 5553TIP3   OH238293   1.719   5.870   7.861 -0.3305  0.2095 -0.4248
 5553TIP3    H138294   1.746   5.950   7.905 -1.5634 -0.5345  1.7337
 5553TIP3    H238295   1.624   5.878   7.852 -0.4178 -0.8367 -0.5375
 5554TIP3   OH238296   4.715   5.281   1.159  0.5493  0.1004  0.0817
 5554TIP3    H138297   4.766   5.278   1.078  1.8686  0.2753  0.8917
 5554TIP3    H238298   4.715   5.373   1.184 -1.2701  0.3096 -0.5762
 5555TIP3   OH238299   0.380   3.735   6.538  0.1474 -0.0655 -0.0946
 5555TIP3    H138300   0.347   3.666   6.595 -1.2232  0.3283 -0.3874
 5555TIP3    H238301   0.460   3.699   6.499 -0.6284 -1.5359 -0.3442
 5556TIP3   OH238302   6.227   6.881   6.567  0.3305 -0.4521 -0.2441
 5556TIP3    H138303   6.265   6.847   6.486  0.5538  0.5704 -0.5746
 5556TIP3    H238304   6.153   6.824   6.585  1.0495 -1.4697 -0.4821
 5557TIP3   OH238305   7.005   2.407   0.680 -0.4643  0.4794 -0.1501
 5557TIP3    H138306   6.976   2.490   0.718 -1.4698 -0.4417  1.1156
 5557TIP3    H238307   6.972   2.340   0.739 -0.6354 -0.8990 -1.7641
 5558TIP3   OH238308   5.176   0.492   0.670 -0.3759 -0.0109  0.8470
 5558TIP3    H138309   5.255   0.540   0.645 -0.4624 -0.6280 -0.6552
 5558TIP3    H238310   5.189   0.404   0.636 -1.8371 -0.0393  0.3197
 5559TIP3   OH238311   6.001   7.155   0.293 -0.0005 -0.1711 -0.0069
 5559TIP3    H138312   6.082   7.108   0.311  1.1119  1.0806 -1.5870
 5559TIP3    H238313   5.998   7.222   0.361  1.4955  1.2210 -1.2603
 5560TIP3   OH238314   4.150   3.937   2.019 -0.1370 -0.1578  0.1832
 5560TIP3    H138315   4.130   3.981   2.101 -1.7295 -2.7366  1.2501
 5560TIP3    H238316   4.235   3.896   2.033 -1.1443 -1.9681  1.1801
 5561TIP3   OH238317   4.368   5.967   6.899  0.0610  0.1413 -0.8549
 5561TIP3    H138318   4.461   5.958   6.878  0.7602 -0.9246  2.3417
 5561TIP3    H238319   4.364   6.046   6.954 -0.5163 -1.1307  0.9744
 5562TIP3   OH238320   2.531   5.102   1.007  0.4459 -0.1700  0.5665
 5562TIP3    H138321   2.529   5.053   0.925  2.6763 -1.5124  1.2898
 5562TIP3    H238322   2.493   5.187   0.985 -0.3023 -1.0184 -1.5113
 5563TIP3   OH238323   5.608   1.380   7.769  0.4794 -0.3693 -0.5597
 5563TIP3    H138324   5.628   1.394   7.677  2.0759  0.2146 -0.1509
 5563TIP3    H238325   5.694   1.373   7.811 -0.1502  2.3610  1.3188
 5564TIP3   OH238326   5.890   6.947   1.177 -0.7861 -0.3121  0.2028
 5564TIP3    H138327   5.895   6.928   1.271  0.2159 -0.1426  0.1875
 5564TIP3    H238328   5.798   6.969   1.162 -0.9113 -0.1428  1.1846
 5565TIP3   OH238329   1.480   3.240   0.049  0.3146 -0.2729  0.2582
 5565TIP3    H138330   1.539   3.227  -0.025  0.4741  0.8547  0.1827
 5565TIP3    H238331   1.482   3.334   0.066 -0.2873 -0.4237  1.2299
 5566TIP3   OH238332   2.193   0.366   0.094  0.5715 -0.4135  0.4246
 5566TIP3    H138333   2.195   0.294   0.157 -0.1393 -0.2273  0.6618
 5566TIP3    H238334   2.116   0.417   0.118  1.0632  0.4263  0.2501
 5567TIP3   OH238335   5.923   3.828   2.356  0.1932 -0.5324  0.2282
 5567TIP3    H138336   5.971   3.905   2.387 -0.4267 -0.8051  1.9370
 5567TIP3    H238337   5.942   3.824   2.262  1.2056  0.9990  0.3437
 5568TIP3   OH238338   6.503   2.504   7.288 -0.3410 -0.6631 -0.1731
 5568TIP3    H138339   6.506   2.415   7.252 -0.2368  0.1548 -2.2311
 5568TIP3    H238340   6.414   2.513   7.322 -0.1681 -1.7432  0.6255
 5569TIP3   OH238341   1.970   4.022   1.425 -0.1582 -0.5334  0.2447
 5569TIP3    H138342   1.927   4.066   1.499  0.2163  2.4540 -1.2517
 5569TIP3    H238343   1.957   4.081   1.351 -0.2740 -3.3458 -2.0521
 5570TIP3   OH238344   5.904   2.306   0.154 -0.1420 -0.5261  0.1212
 5570TIP3    H138345   5.871   2.374   0.212 -0.8338 -0.3535 -0.4576
 5570TIP3    H238346   5.858   2.226   0.181 -0.7708 -0.3629 -0.4397
 5571TIP3   OH238347   5.650   3.402   2.383 -0.3033 -0.4703  0.1650
 5571TIP3    H138348   5.697   3.322   2.405 -0.3311 -0.6695 -0.4773
 5571TIP3    H238349   5.693   3.433   2.303 -0.2799  0.1663  0.4271
 5572TIP3   OH238350   1.209   3.602   0.781  0.4446  0.6227 -0.0621
 5572TIP3    H138351   1.183   3.573   0.694 -3.2688  0.4569  1.0130
 5572TIP3    H238352   1.224   3.522   0.830 -0.5648  0.6510  0.3036
 5573TIP3   OH238353   6.161   2.819   7.166 -0.0299 -0.7181  0.3569
 5573TIP3    H138354   6.129   2.903   7.133 -1.2744 -1.5872 -0.6858
 5573TIP3    H238355   6.193   2.838   7.254  0.3642  0.9881 -0.1353
 5574TIP3   OH238356   7.061   1.836   0.213  0.3737 -0.6096  0.3495
 5574TIP3    H138357   7.104   1.776   0.275 -0.1684 -2.4597 -1.0057
 5574TIP3    H238358   7.015   1.778   0.153 -1.8163  1.2831  0.1675
 5575TIP3   OH238359   2.286   2.554   7.918 -0.1036  0.3630  1.0931
 5575TIP3    H138360   2.262   2.539   7.826 -1.1178  0.1911  1.3781
 5575TIP3    H238361   2.303   2.648   7.923  0.6740  0.2622  0.5745
 5576TIP3   OH238362   6.368   4.288   7.496 -0.2241 -0.1715 -0.3480
 5576TIP3    H138363   6.325   4.204   7.511 -0.0830 -0.2598 -0.4327
 5576TIP3    H238364   6.461   4.266   7.486  0.2037  0.2428  2.2261
 5577TIP3   OH238365   1.682   4.920   1.037 -0.8396 -0.8041  0.3854
 5577TIP3    H138366   1.704   4.831   1.008  1.1689 -1.2525  3.0277
 5577TIP3    H238367   1.651   4.908   1.127 -2.7341  0.9574 -0.0059
 5578TIP3   OH238368   2.182   4.252   1.117 -0.0961  0.1802 -0.3730
 5578TIP3    H138369   2.104   4.290   1.158 -0.4888  1.1930 -2.0229
 5578TIP3    H238370   2.150   4.218   1.034  1.0650 -0.1844 -0.6645
 5579TIP3   OH238371   0.761   6.784   1.344  0.0903 -0.4200  0.0635
 5579TIP3    H138372   0.684   6.827   1.382  0.9086  1.9728 -0.9254
 5579TIP3    H238373   0.812   6.757   1.420 -0.9925 -0.7068  0.7113
 5580TIP3   OH238374   0.341   4.877   0.345  0.2493 -0.5679  0.3678
 5580TIP3    H138375   0.411   4.941   0.358 -0.3849  0.1828  0.1340
 5580TIP3    H238376   0.262   4.921   0.376 -0.3207 -0.9589 -0.5193
 5581TIP3   OH238377   0.133   0.711   1.581  0.1665  0.1683  0.5111
 5581TIP3    H138378   0.173   0.675   1.660  0.6216  1.5659  0.9411
 5581TIP3    H238379   0.066   0.772   1.613  0.3733  0.7727 -0.1731
 5582TIP3   OH238380   1.964   5.655   0.374  0.3083 -0.4331  0.4557
 5582TIP3    H138381   2.031   5.662   0.306  1.2084  0.7048  1.4287
 5582TIP3    H238382   1.944   5.562   0.378  0.8033 -0.6104 -0.8255
 5583TIP3   OH238383   2.320   4.729   7.891 -0.0682  0.7093 -0.4597
 5583TIP3    H138384   2.393   4.771   7.846 -0.7082  0.6684 -1.5773
 5583TIP3    H238385   2.248   4.735   7.828 -0.4769 -1.0192 -0.1575
 5584TIP3   OH238386   5.574   3.289   7.806  0.3747 -0.3596 -0.0983
 5584TIP3    H138387   5.535   3.372   7.833  0.3179 -0.4908  0.2320
 5584TIP3    H238388   5.577   3.293   7.711 -0.1002 -0.1931 -0.1048
 5585TIP3   OH238389   1.844   6.630   6.929 -0.4939  0.2063  0.7551
 5585TIP3    H138390   1.927   6.593   6.899 -1.7627 -1.0867 -1.2962
 5585TIP3    H238391   1.829   6.706   6.873 -0.4865  0.7095  1.4257
 5586TIP3   OH238392   0.818   5.223   2.102 -0.6635  0.3166 -0.2322
 5586TIP3    H138393   0.895   5.273   2.075 -2.2644  1.6850 -2.4039
 5586TIP3    H238394   0.846   5.131   2.093  1.9785  0.7194  2.9046
 5587TIP3   OH238395   2.238   5.013   1.729 -0.1938  0.1087 -0.4179
 5587TIP3    H138396   2.283   4.948   1.782 -1.0066 -0.6474 -0.6391
 5587TIP3    H238397   2.287   5.094   1.744  0.3757 -0.3812  0.4490
 5588TIP3   OH238398   1.762   5.835   0.814 -0.3135 -0.5495 -0.5394
 5588TIP3    H138399   1.785   5.749   0.779  0.6158  0.2178 -1.8626
 5588TIP3    H238400   1.806   5.838   0.900 -0.8562 -1.6215 -0.2156
 5589TIP3   OH238401   2.542   3.580   0.512 -0.1387 -0.0099  0.2193
 5589TIP3    H138402   2.574   3.503   0.466 -0.1696  0.4108 -0.5183
 5589TIP3    H238403   2.563   3.564   0.604 -2.0546 -1.8604  0.3863
 5590TIP3   OH238404   5.624   6.184   0.376 -0.1340 -0.2939 -1.0163
 5590TIP3    H138405   5.549   6.222   0.421 -0.2798 -3.0182  1.1810
 5590TIP3    H238406   5.700   6.219   0.423 -0.2261 -1.4246  0.0168
 5591TIP3   OH238407   3.100   4.897   6.333  0.3234  0.3071 -0.1280
 5591TIP3    H138408   3.103   4.802   6.316  3.1091  0.0164  1.6740
 5591TIP3    H238409   3.046   4.932   6.262  0.6212 -2.4466 -1.7947
 5592TIP3   OH238410   2.168   3.673   0.579  0.9171  0.4337 -0.4460
 5592TIP3    H138411   2.170   3.638   0.668 -0.7677  1.3796 -0.0019
 5592TIP3    H238412   2.078   3.658   0.550  0.0601  4.3997 -0.1784
 5593TIP3   OH238413   0.393   5.860   0.908 -0.4259 -0.3782  0.2817
 5593TIP3    H138414   0.406   5.784   0.965 -0.7168 -0.2356  0.5400
 5593TIP3    H238415   0.414   5.936   0.963  0.5617 -0.3040 -0.1891
 5594TIP3   OH238416   7.048   0.260   1.553  0.3230  0.2760  0.0781
 5594TIP3    H138417   7.057   0.225   1.642  1.5967  0.2424 -0.0655
 5594TIP3    H238418   7.000   0.342   1.566  0.5525  0.3031  0.8126
 5595TIP3   OH238419   1.285   0.372   1.139  0.6927  0.8330 -0.1901
 5595TIP3    H138420   1.327   0.416   1.213  2.0893 -0.6989 -0.0439
 5595TIP3    H238421   1.284   0.280   1.163  0.6117  0.3887 -1.8042
 5596TIP3   OH238422   3.029   4.272   1.465 -0.0716 -0.4778 -0.0143
 5596TIP3    H138423   3.050   4.265   1.558 -0.3805 -2.1272 -0.0631
 5596TIP3    H238424   3.086   4.208   1.423  0.6307  0.8156 -1.0616
 5597TIP3   OH238425   3.353   5.518   1.409 -0.4499  0.0936  0.2923
 5597TIP3    H138426   3.263   5.488   1.413 -0.6015  0.4733 -0.2199
 5597TIP3    H238427   3.402   5.445   1.371 -0.9060  0.6761 -1.4614
 5598TIP3   OH238428   6.783   2.945   0.036  0.3768  0.0637 -0.5736
 5598TIP3    H138429   6.825   2.980   0.115  1.3665  2.5129 -2.1377
 5598TIP3    H238430   6.847   2.884  -0.000 -0.9048 -2.6460  1.5646
 5599TIP3   OH238431   0.196   1.446   6.457  1.0592  0.0369 -0.0902
 5599TIP3    H138432   0.178   1.533   6.493  2.0735 -0.0293  0.5941
 5599TIP3    H238433   0.184   1.456   6.363  1.8799  1.1032 -0.0822
 5600TIP3   OH238434   6.969   5.202   1.051  0.0214 -0.8746 -0.4114
 5600TIP3    H138435   6.951   5.136   0.985 -0.8516  0.0058 -1.0648
 5600TIP3    H238436   6.884   5.224   1.088  0.1345  0.7947 -1.0894
 5601TIP3   OH238437   5.557   1.932   1.360  0.4233 -0.1112 -0.4200
 5601TIP3    H138438   5.472   1.889   1.359  0.7869 -0.8567  0.1648
 5601TIP3    H238439   5.544   2.009   1.416  0.4170 -0.8338  0.5855
 5602TIP3   OH238440   4.527   6.307   1.235 -0.0686  0.4367 -0.2362
 5602TIP3    H138441   4.533   6.250   1.312 -0.0748  0.0262 -0.5329
 5602TIP3    H238442   4.460   6.371   1.257 -2.3632 -1.5798 -1.1089
 5603TIP3   OH238443   4.707   4.240   1.853  0.3554  0.1900 -0.1019
 5603TIP3    H138444   4.715   4.187   1.933  1.0972  0.4227 -0.0212
 5603TIP3    H238445   4.637   4.302   1.872 -2.7964 -2.8409 -1.3526
 5604TIP3   OH238446   1.394   3.764   0.516 -0.0737  0.2040  0.3816
 5604TIP3    H138447   1.352   3.772   0.430  0.9529  1.0163 -0.0493
 5604TIP3    H238448   1.418   3.671   0.521 -0.8630 -0.0252  0.1460
 5605TIP3   OH238449   1.830   7.085   1.302 -0.0569 -0.1392  0.7403
 5605TIP3    H138450   1.864   7.171   1.280 -0.4261 -0.2315 -0.1930
 5605TIP3    H238451   1.796   7.095   1.392  0.8987  0.3884  1.0472
 5606TIP3   OH238452   1.313   2.962   1.482 -0.3744  0.0281  0.1522
 5606TIP3    H138453   1.241   2.987   1.423  0.0197  2.3731  0.6119
 5606TIP3    H238454   1.362   2.896   1.433 -2.5452 -1.2697 -0.3643
 5607TIP3   OH238455   0.739   2.838   1.188 -0.2789 -0.2408 -0.2437
 5607TIP3    H138456   0.833   2.821   1.182 -0.2272 -0.6651  1.5185
 5607TIP3    H238457   0.702   2.757   1.221 -0.7341  1.1686  2.9199
 5608TIP3   OH238458   3.173   4.072   6.519  0.1416  0.4230 -0.2678
 5608TIP3    H138459   3.079   4.057   6.505  0.1829 -0.7932  0.6364
 5608TIP3    H238460   3.192   4.153   6.471 -0.8740 -0.5608 -2.4309
 5609TIP3   OH238461   1.147   4.967   1.905  0.2081  0.1625  0.6760
 5609TIP3    H138462   1.231   4.922   1.912  0.5418  0.9448  1.6550
 5609TIP3    H238463   1.167   5.049   1.860 -0.5179 -0.9495 -1.7709
 5610TIP3   OH238464   0.372   3.201   7.108  0.0256  0.4362  0.2518
 5610TIP3    H138465   0.442   3.163   7.161 -1.0102 -1.5263  0.2531
 5610TIP3    H238466   0.362   3.290   7.142  0.5326 -0.2320  2.2141
 5611TIP3   OH238467   1.935   3.457   0.875 -0.1758  0.1574 -0.1220
 5611TIP3    H138468   1.937   3.455   0.779 -0.0323 -1.2033 -0.1121
 5611TIP3    H238469   1.845   3.430   0.897 -0.0514 -0.0629  0.1212
 5612TIP3   OH238470   5.732   2.994   7.331  0.5420 -0.2148  0.5803
 5612TIP3    H138471   5.819   3.012   7.297  0.3090  1.0701  0.6444
 5612TIP3    H238472   5.742   2.913   7.381  1.9229  0.5065  1.4876
 5613TIP3   OH238473   5.132   5.199   6.478  0.2136 -0.0265  0.1628
 5613TIP3    H138474   5.125   5.112   6.440  0.2589  0.1338 -0.2146
 5613TIP3    H238475   5.084   5.256   6.418  2.2838  0.6251 -0.9316
 5614TIP3   OH238476   0.439   4.437   7.041 -0.0271 -0.2164  0.1250
 5614TIP3    H138477   0.398   4.523   7.054 -0.3061 -0.6515  2.2685
 5614TIP3    H238478   0.514   4.455   6.983 -0.6583  1.3010 -0.2427
 5615TIP3   OH238479   0.936   0.382   7.883  0.0904  0.8042  0.3851
 5615TIP3    H138480   0.900   0.378   7.795 -1.2394 -1.6335  1.0053
 5615TIP3    H238481   0.864   0.412   7.938  0.2043 -0.0039  0.9932
 5616TIP3   OH238482   4.951   4.306   5.577 -0.2839 -0.0834  0.4537
 5616TIP3    H138483   4.932   4.212   5.579 -0.2904 -0.0648  1.2886
 5616TIP3    H238484   4.943   4.330   5.484 -1.1241 -0.7246  0.3530
 5617TIP3   OH238485   2.789   3.298   7.635  0.1799  0.8533 -0.7565
 5617TIP3    H138486   2.728   3.228   7.656  0.4174  0.9263  0.1906
 5617TIP3    H238487   2.828   3.272   7.551 -3.1694  2.1438 -2.8320
 5618TIP3   OH238488   3.434   4.600   0.423  0.1337  0.3413 -0.0064
 5618TIP3    H138489   3.523   4.584   0.453  0.1680 -0.0916 -0.3282
 5618TIP3    H238490   3.425   4.544   0.346 -0.9169 -0.7484  0.8916
 5619TIP3   OH238491   0.269   6.296   1.099  0.5905 -0.0921 -0.7471
 5619TIP3    H138492   0.229   6.376   1.133 -0.4064 -0.8080 -0.2048
 5619TIP3    H238493   0.335   6.273   1.165  0.6668  0.1108 -0.7515
 5620TIP3   OH238494   1.643   0.394   1.331  0.1311  0.3276 -0.0757
 5620TIP3    H138495   1.574   0.391   1.397  1.1962  0.3407  1.0554
 5620TIP3    H238496   1.720   0.360   1.376  0.9596  0.6899 -1.2154
 5621TIP3   OH238497   1.767   4.689   0.189  0.0359  0.0987 -0.6754
 5621TIP3    H138498   1.764   4.761   0.253  0.1221  1.3061 -2.0221
 5621TIP3    H238499   1.860   4.674   0.174  0.0103  0.0549 -0.7934
 5622TIP3   OH238500   2.338   6.726   0.056 -0.0270 -0.4054  0.8203
 5622TIP3    H138501   2.406   6.783   0.092  0.3516 -0.5570  0.3457
 5622TIP3    H238502   2.326   6.757  -0.034  1.4969 -2.2562 -0.0442
 5623TIP3   OH238503   4.713   4.948   1.375 -0.1509  0.0903  0.0556
 5623TIP3    H138504   4.660   4.987   1.445  0.6745 -0.1569  0.8287
 5623TIP3    H238505   4.700   4.854   1.385 -0.6759  0.0832 -0.6457
 5624TIP3   OH238506   2.813   1.600   0.719  0.1024  0.4017  0.7440
 5624TIP3    H138507   2.760   1.609   0.640  1.4024 -0.7130 -0.2849
 5624TIP3    H238508   2.902   1.617   0.690  0.8996 -2.3135  1.4499
 5625TIP3   OH238509   4.257   5.341   0.689 -0.0542 -0.2600 -0.1852
 5625TIP3    H138510   4.210   5.425   0.683 -0.9299 -0.5955  1.7103
 5625TIP3    H238511   4.337   5.362   0.738 -1.1301 -0.8591  1.8723
 5626TIP3   OH238512   2.602   3.089   7.644  0.8786  0.2496 -0.0143
 5626TIP3    H138513   2.645   3.005   7.659 -0.8104 -0.9371 -1.6058
 5626TIP3    H238514   2.541   3.098   7.717  1.1883  0.1925  0.2550
 5627TIP3   OH238515   2.944   3.975   6.804  0.9277  0.5654  0.3049
 5627TIP3    H138516   2.896   4.052   6.837 -0.1920 -0.4540  1.0757
 5627TIP3    H238517   3.019   3.967   6.862  0.6716  0.6774  0.6571
 5628TIP3   OH238518   3.513   3.458   1.370  0.8020 -0.2172  0.3051
 5628TIP3    H138519   3.436   3.475   1.424 -1.4243 -0.3829 -2.6715
 5628TIP3    H238520   3.545   3.545   1.345  1.0620 -0.1588  0.8436
 5629TIP3   OH238521   1.523   3.177   7.460  0.0422 -0.7096  0.1523
 5629TIP3    H138522   1.549   3.164   7.369  0.3055 -1.2821  0.3059
 5629TIP3    H238523   1.428   3.183   7.458 -0.0710 -2.3621  0.0351
 5630TIP3   OH238524   4.412   0.455   1.443 -0.3067  0.4492 -0.3281
 5630TIP3    H138525   4.492   0.415   1.478 -0.3590  0.4972 -0.1500
 5630TIP3    H238526   4.425   0.549   1.454  0.1819  0.5242 -1.5545
 5631TIP3   OH238527   3.517   4.605   7.094 -0.1196  0.4687 -0.4364
 5631TIP3    H138528   3.601   4.559   7.103  0.4292  1.3261 -1.1665
 5631TIP3    H238529   3.541   4.697   7.087 -1.2468  0.9199  1.4386
 5632TIP3   OH238530   4.655   3.526   6.293 -0.2552 -0.2651  0.3923
 5632TIP3    H138531   4.673   3.436   6.319  0.6593  0.0825  0.9796
 5632TIP3    H238532   4.702   3.537   6.210  2.5687  0.7189  2.0466
 5633TIP3   OH238533   6.781   2.087   6.692  0.0866 -0.3901  0.0906
 5633TIP3    H138534   6.719   2.094   6.620  0.8548 -1.3314 -0.6809
 5633TIP3    H238535   6.767   1.999   6.728  0.3908 -0.3007  0.4320
 5634TIP3   OH238536   1.120   0.728   0.489 -0.0568  0.1279 -0.4238
 5634TIP3    H138537   1.126   0.767   0.576 -1.8388 -0.3463 -0.0696
 5634TIP3    H238538   1.204   0.749   0.448  0.3733  1.3082  0.9991
 5635TIP3   OH238539   1.619   5.745   2.003 -0.6284 -0.2936  0.3068
 5635TIP3    H138540   1.679   5.701   2.063 -0.9397 -0.1641  0.7182
 5635TIP3    H238541   1.550   5.680   1.987 -0.7272 -0.2038  0.3669
 5636TIP3   OH238542   7.109   1.639   0.406  0.0300  0.0619 -0.4473
 5636TIP3    H138543   7.093   1.647   0.500  0.4933  1.6874 -0.4834
 5636TIP3    H238544   7.149   1.553   0.395  0.2052 -0.0313  0.8868
 5637TIP3   OH238545   6.915   7.116   6.621  0.5647  0.1256  0.5429
 5637TIP3    H138546   6.925   7.021   6.619 -0.9240 -0.0495 -2.9866
 5637TIP3    H238547   6.822   7.130   6.642  0.6026  0.7639  0.3131
 5638TIP3   OH238548   2.994   0.977   6.565  0.1135 -0.0020  0.0221
 5638TIP3    H138549   2.921   1.012   6.515 -0.8217  1.1158  2.0977
 5638TIP3    H238550   3.072   1.004   6.516 -0.7346  2.2793 -0.1208
 5639TIP3   OH238551   0.106   4.947   1.005 -0.2620 -0.3694 -0.3351
 5639TIP3    H138552   0.090   4.854   0.989  0.4890 -0.3010 -1.5426
 5639TIP3    H238553   0.187   4.966   0.958  0.6179  0.4557  1.4943
 5640TIP3   OH238554   4.474   0.553   1.881 -0.0042 -0.2449  0.0586
 5640TIP3    H138555   4.567   0.543   1.901  0.3799 -0.6944 -1.8972
 5640TIP3    H238556   4.429   0.517   1.958  1.4319 -0.0871  0.9832
 5641TIP3   OH238557   1.760   6.378   1.259  0.2151 -0.1692 -0.1072
 5641TIP3    H138558   1.730   6.311   1.320  0.1140 -0.5106 -0.5338
 5641TIP3    H238559   1.822   6.430   1.310  0.5746 -0.8117  0.1123
 5642TIP3   OH238560   0.954   2.544   0.874 -0.0739  0.2412 -0.1048
 5642TIP3    H138561   0.877   2.522   0.822  0.3216  1.2855 -1.1581
 5642TIP3    H238562   1.015   2.471   0.858 -0.9451 -0.7487  0.9871
 5643TIP3   OH238563   5.472   3.047   0.453  0.0814  0.1677  0.5857
 5643TIP3    H138564   5.451   3.078   0.365  2.1947 -3.8002 -1.4385
 5643TIP3    H238565   5.533   3.112   0.488  2.9343 -0.5966 -2.7715
 5644TIP3   OH238566   5.636   0.675   7.177 -0.4535  0.2034  0.0251
 5644TIP3    H138567   5.639   0.764   7.143 -0.7308  0.2702  0.1692
 5644TIP3    H238568   5.728   0.650   7.189 -0.3731  0.4022 -0.1883
 5645TIP3   OH238569   4.606   5.928   7.803  0.0805  0.4081 -0.2427
 5645TIP3    H138570   4.595   6.009   7.853 -0.4106 -0.5887  1.3325
 5645TIP3    H238571   4.516   5.895   7.793  0.3039 -0.0822 -0.6072
 5646TIP3   OH238572   5.476   5.714   7.773  0.3262  0.3001 -0.3756
 5646TIP3    H138573   5.452   5.622   7.757 -2.1232  0.8719 -0.1137
 5646TIP3    H238574   5.513   5.744   7.689 -1.4216 -0.1337 -1.3173
 5647TIP3   OH238575   1.869   6.784   0.739 -0.4487  0.9069 -0.3856
 5647TIP3    H138576   1.821   6.806   0.660 -0.4821 -0.5731 -0.7932
 5647TIP3    H238577   1.847   6.692   0.755  2.5218  0.1017 -0.7677
 5648TIP3   OH238578   3.635   5.778   0.507 -0.0159 -0.1755  0.4310
 5648TIP3    H138579   3.643   5.707   0.444  1.1455 -0.9271  1.4056
 5648TIP3    H238580   3.724   5.812   0.517 -0.0920 -0.4131  2.0521
 5649TIP3   OH238581   5.831   5.986   6.402  0.7921 -0.5541 -0.4476
 5649TIP3    H138582   5.881   6.034   6.468 -0.5558  0.1713  0.0707
 5649TIP3    H238583   5.755   6.042   6.384  0.1156 -1.6693 -1.1420
 5650TIP3   OH238584   3.474   1.713   6.104  0.0393  0.7000 -0.1582
 5650TIP3    H138585   3.504   1.696   6.194 -1.7725 -1.0927  0.1350
 5650TIP3    H238586   3.520   1.793   6.079  0.5464  1.2686  2.3883
 5651TIP3   OH238587   0.649   6.190   7.637 -0.0448 -0.3187 -0.0617
 5651TIP3    H138588   0.624   6.278   7.668  0.9100 -0.1692  0.2857
 5651TIP3    H238589   0.618   6.187   7.547 -1.1121 -0.0442  0.2881
 5652TIP3   OH238590   6.983   0.053   7.464 -0.5913 -0.5929 -0.1018
 5652TIP3    H138591   7.029  -0.027   7.438 -2.2340 -1.5803 -0.0618
 5652TIP3    H238592   6.893   0.039   7.434 -0.9210  1.2046 -0.0015
 5653TIP3   OH238593   3.885   5.063   1.623 -0.1109  0.3952 -0.6413
 5653TIP3    H138594   3.885   5.147   1.669 -0.7358  0.1839 -0.2467
 5653TIP3    H238595   3.975   5.053   1.591  0.9765 -0.4877  2.4858
 5654TIP3   OH238596   1.927   6.338   2.429 -0.2143 -0.5113 -0.2047
 5654TIP3    H138597   1.974   6.285   2.365  0.9440  0.7091 -0.3838
 5654TIP3    H238598   1.995   6.389   2.473 -1.3444  1.3903 -0.5681
 5655TIP3   OH238599   1.017   0.675   0.800 -0.5290 -0.1547  0.1538
 5655TIP3    H138600   1.025   0.623   0.880 -0.3062 -1.1926 -0.5380
 5655TIP3    H238601   0.937   0.643   0.758 -0.5169  0.2246 -0.1590
 5656TIP3   OH238602   5.851   1.515   7.697 -0.5411 -0.5844 -0.3519
 5656TIP3    H138603   5.925   1.574   7.687 -0.8032  0.3276  2.6392
 5656TIP3    H238604   5.885   1.429   7.672  1.6424 -0.2394  1.2568
 5657TIP3   OH238605   6.593   3.969   0.151  0.0461  0.1879 -0.0663
 5657TIP3    H138606   6.621   3.961   0.242  2.0039  1.8664 -0.4759
 5657TIP3    H238607   6.600   4.062   0.132 -3.7065  0.3844 -0.9394
 5658TIP3   OH238608   4.004   2.878   1.487 -0.0998  0.3081 -0.2086
 5658TIP3    H138609   3.989   2.946   1.552 -0.1255  0.9391 -0.8745
 5658TIP3    H238610   4.051   2.809   1.535  2.5132  2.0092 -0.2297
 5659TIP3   OH238611   0.655   3.533   1.553 -0.1106 -0.3233  0.6942
 5659TIP3    H138612   0.693   3.556   1.638  0.2361 -3.0354  1.3429
 5659TIP3    H238613   0.727   3.492   1.505 -1.1903 -2.0036  0.4615
 5660TIP3   OH238614   6.141   5.776   1.762  0.3756 -0.3031  0.2452
 5660TIP3    H138615   6.226   5.732   1.771  1.1691  1.6280  2.5916
 5660TIP3    H238616   6.158   5.847   1.700 -0.6066 -2.4376 -2.5732
 5661TIP3   OH238617   4.107   4.680   0.317 -0.0895 -0.1763  0.2106
 5661TIP3    H138618   4.140   4.604   0.364  0.0658 -0.6833 -0.7101
 5661TIP3    H238619   4.081   4.647   0.231 -0.3743  0.7369 -0.0719
 5662TIP3   OH238620   2.023   2.595   6.816  0.4965  0.0401 -0.2539
 5662TIP3    H138621   1.976   2.641   6.884  0.1835  0.3164 -0.6573
 5662TIP3    H238622   2.096   2.552   6.862  0.4349  0.4304  0.2085
 5663TIP3   OH238623   3.873   3.759   1.029  0.1461  0.0407 -0.1000
 5663TIP3    H138624   3.931   3.734   0.957  0.4103  1.9835 -0.5803
 5663TIP3    H238625   3.817   3.827   0.993  0.5475  1.3438  1.6217
 5664TIP3   OH238626   2.285   5.810   0.971  0.5457  0.2721 -0.1484
 5664TIP3    H138627   2.323   5.747   0.909 -1.1175 -2.2248  1.2809
 5664TIP3    H238628   2.353   5.825   1.036  1.7921  1.8081 -1.7645
 5665TIP3   OH238629   3.139   4.872   0.388 -0.0169  0.2592  0.7779
 5665TIP3    H138630   3.080   4.818   0.335 -1.8042  1.4552  1.5127
 5665TIP3    H238631   3.220   4.876   0.337 -1.2536  0.2675 -1.2263
 5666TIP3   OH238632   5.975   2.486   1.354  0.0967  0.2651 -0.2137
 5666TIP3    H138633   5.890   2.516   1.321  0.5575  0.4087 -1.3222
 5666TIP3    H238634   6.038   2.545   1.312  0.7296  0.2576  0.7293
 5667TIP3   OH238635   0.351   3.706   7.936  0.2534 -0.8096  0.2563
 5667TIP3    H138636   0.390   3.777   7.885  1.6665 -1.9758 -0.3317
 5667TIP3    H238637   0.357   3.735   8.027  1.1253 -0.3132  0.0429
 5668TIP3   OH238638   7.082   2.917   0.852  0.3719  0.4344  0.2556
 5668TIP3    H138639   6.991   2.927   0.824  0.3362 -0.4272  0.0739
 5668TIP3    H238640   7.076   2.874   0.937  0.7065 -1.9191 -0.8788
 5669TIP3   OH238641   5.535   3.806   1.295 -0.4792 -0.0157 -0.7268
 5669TIP3    H138642   5.490   3.780   1.375 -1.1931 -0.1990 -1.1801
 5669TIP3    H238643   5.599   3.871   1.323  0.5066 -1.3867  0.2519
 5670TIP3   OH238644   5.058   4.228   0.346 -0.4344 -0.5106  0.1054
 5670TIP3    H138645   5.140   4.275   0.332  1.0998 -3.2823 -0.4752
 5670TIP3    H238646   4.996   4.269   0.286  0.9344  0.6039 -0.5635
 5671TIP3   OH238647   2.721   3.613   1.728  0.0484 -0.0719 -0.3724
 5671TIP3    H138648   2.776   3.560   1.671  0.4786  0.7567 -0.7370
 5671TIP3    H238649   2.772   3.625   1.808 -0.3356 -0.7874 -0.0176
 5672TIP3   OH238650   6.520   3.405   1.298 -0.5827 -0.0094  0.4431
 5672TIP3    H138651   6.552   3.315   1.301 -2.0162 -0.5008  1.3969
 5672TIP3    H238652   6.500   3.420   1.206  2.1888  0.2567 -0.1501
 5673TIP3   OH238653   4.156   1.503   7.204 -0.0899 -0.0685 -0.0779
 5673TIP3    H138654   4.126   1.593   7.191  0.4762  0.1732  0.2500
 5673TIP3    H238655   4.252   1.509   7.205 -0.0545 -0.6087  0.3933
 5674TIP3   OH238656   7.062   2.525   6.305  0.0544  0.3909  0.5601
 5674TIP3    H138657   7.004   2.600   6.313 -0.4837 -0.1093  1.5025
 5674TIP3    H238658   7.142   2.552   6.350 -0.9697 -0.4094  2.9404
 5675TIP3   OH238659   3.171   5.404   0.350 -1.0929 -0.6269  0.0650
 5675TIP3    H138660   3.200   5.493   0.330 -1.7109 -0.1402  1.2715
 5675TIP3    H238661   3.246   5.364   0.394 -1.4032 -0.1342  1.0639
 5676TIP3   OH238662   5.817   1.503   6.386 -0.5813  0.3040  0.1284
 5676TIP3    H138663   5.777   1.430   6.338  0.7017  0.6638 -1.5436
 5676TIP3    H238664   5.754   1.575   6.376 -0.7023  0.1382 -0.3560
 5677TIP3   OH238665   2.713   0.599   1.093  0.2544  0.6596 -0.4974
 5677TIP3    H138666   2.668   0.597   1.009 -0.2290 -0.2207 -0.2197
 5677TIP3    H238667   2.670   0.533   1.146  0.2314  1.5359  0.6166
 5678TIP3   OH238668   2.501   3.031   8.021  0.1414 -0.0045  0.4201
 5678TIP3    H138669   2.518   3.116   8.063  1.1538 -0.2412  0.4999
 5678TIP3    H238670   2.580   2.980   8.038  0.3981 -0.2598 -1.3953
 5679TIP3   OH238671   3.061   3.734   6.752 -0.0560  0.0082 -0.2007
 5679TIP3    H138672   3.033   3.821   6.781  0.4037  0.2045 -0.3324
 5679TIP3    H238673   2.991   3.703   6.694  1.3643  1.7442 -2.9401
 5680TIP3   OH238674   4.335   2.999   7.311 -0.4602  0.4616  0.3854
 5680TIP3    H138675   4.391   3.077   7.314  0.2774 -0.0898  1.2761
 5680TIP3    H238676   4.262   3.020   7.369 -0.7875  0.8897 -0.1835
 5681TIP3   OH238677   3.808   3.874   0.759 -0.6045  0.0296 -0.1413
 5681TIP3    H138678   3.782   3.782   0.768  2.1069 -0.7721  0.0490
 5681TIP3    H238679   3.829   3.883   0.666 -1.6278  0.6884 -0.3156
 5682TIP3   OH238680   6.176   6.825   7.324 -0.0124  0.2845  0.4227
 5682TIP3    H138681   6.215   6.765   7.388  1.0307 -1.3547 -1.6813
 5682TIP3    H238682   6.082   6.822   7.343  0.1682 -1.0637  1.1554
 5683TIP3   OH238683   4.732   3.297   0.253 -0.1808  0.4684  0.0629
 5683TIP3    H138684   4.797   3.332   0.192  0.1754  0.6203  0.5324
 5683TIP3    H238685   4.759   3.328   0.339 -1.2545  1.0934  0.1864
 5684TIP3   OH238686   3.982   6.297   1.697 -0.5496  0.0218 -0.0227
 5684TIP3    H138687   3.999   6.319   1.788  0.4754  0.3388 -0.2898
 5684TIP3    H238688   3.992   6.380   1.650  1.7857 -0.6677 -0.8233
 5685TIP3   OH238689   6.818   5.957   8.123  0.2435 -0.1433 -0.2522
 5685TIP3    H138690   6.771   5.927   8.201  1.2188 -1.1579 -0.0457
 5685TIP3    H238691   6.849   6.044   8.145  2.0610 -1.1317  1.1724
 5686TIP3   OH238692   6.770   1.882   0.092 -0.8457  0.0683 -0.7744
 5686TIP3    H138693   6.817   1.818   0.038 -1.0780  0.3895 -1.3611
 5686TIP3    H238694   6.764   1.840   0.178 -1.0427 -0.7246 -1.1653
 5687TIP3   OH238695   2.837   6.221   2.265  0.3399  0.3928 -0.0152
 5687TIP3    H138696   2.826   6.302   2.316  0.7739  1.3927 -1.4878
 5687TIP3    H238697   2.928   6.223   2.237  0.6251 -1.1120  0.7399
 5688TIP3   OH238698   6.155   2.962   1.114 -0.3865 -0.1806 -0.1609
 5688TIP3    H138699   6.128   3.053   1.115  0.1160 -0.0375  1.6205
 5688TIP3    H238700   6.251   2.965   1.121 -0.3667 -0.8424 -0.0943
 5689TIP3   OH238701   6.546   7.028   0.293 -0.2197 -0.0153 -0.3861
 5689TIP3    H138702   6.499   6.949   0.266  1.5712 -1.4639  0.6192
 5689TIP3    H238703   6.608   6.997   0.360  0.2952  2.2933  0.2354
 5690TIP3   OH238704   0.276   4.480   0.976  0.2564 -0.2109  0.5560
 5690TIP3    H138705   0.226   4.508   1.053 -1.0881 -1.0916  0.0209
 5690TIP3    H238706   0.212   4.482   0.905  0.8652 -1.8420 -0.0451
 5691TIP3   OH238707   0.395   3.950   1.455 -0.1842 -0.6358  0.2818
 5691TIP3    H138708   0.476   3.935   1.405 -0.5543 -1.1646 -0.1680
 5691TIP3    H238709   0.366   3.862   1.480 -0.8183 -0.4759  0.1129
 5692TIP3   OH238710   2.655   4.435   7.871  0.7514  0.5532  0.3332
 5692TIP3    H138711   2.738   4.422   7.917  2.4136  4.8462 -1.2650
 5692TIP3    H238712   2.665   4.387   7.789  0.7543 -0.7109  1.0506
 5693TIP3   OH238713   0.259   6.202   1.890  0.8218 -0.1095  0.5694
 5693TIP3    H138714   0.277   6.239   1.977 -0.2070  0.6537  0.4604
 5693TIP3    H238715   0.326   6.240   1.834 -0.0168  1.3520  0.5270
 5694TIP3   OH238716   4.257   4.557   0.683 -0.6604 -0.1354 -0.2730
 5694TIP3    H138717   4.166   4.585   0.691 -0.7650 -1.1303  2.6681
 5694TIP3    H238718   4.283   4.533   0.772  2.7027  0.7735 -0.9135
 5695TIP3   OH238719   5.668   4.616   6.498 -0.1197 -0.0660  0.1254
 5695TIP3    H138720   5.659   4.711   6.488 -0.8738  0.0738  1.9765
 5695TIP3    H238721   5.686   4.603   6.591  1.0182 -1.6796 -0.2893
 5696TIP3   OH238722   3.373   3.163   0.534 -0.2583  0.2988  0.3226
 5696TIP3    H138723   3.357   3.233   0.597 -0.9140 -0.2354  0.7646
 5696TIP3    H238724   3.382   3.084   0.587 -1.6512 -0.2899 -0.2886
 5697TIP3   OH238725   1.462   2.515   0.094  0.5840  0.0670  0.2194
 5697TIP3    H138726   1.367   2.525   0.099  0.5836 -0.0291  0.4118
 5697TIP3    H238727   1.486   2.551   0.009  0.1380 -1.6940 -0.6792
 5698TIP3   OH238728   1.770   6.000   0.613  0.1791  0.5459  0.1485
 5698TIP3    H138729   1.814   6.070   0.663  0.3034 -0.1820  1.0639
 5698TIP3    H238730   1.763   5.927   0.674 -0.5576 -0.0245 -0.6028
 5699TIP3   OH238731   2.049   3.183   1.342 -0.4841 -0.1618  0.2552
 5699TIP3    H138732   2.023   3.242   1.270 -0.5344 -0.7767 -0.2331
 5699TIP3    H238733   2.138   3.211   1.364 -0.8720  0.7490  0.7008
 5700TIP3   OH238734   4.426   5.421   0.264 -0.3553 -0.1787  0.0498
 5700TIP3    H138735   4.492   5.354   0.284  1.1602  0.8578 -1.3423
 5700TIP3    H238736   4.342   5.374   0.268  0.6718 -2.1728 -0.9135
 5701TIP3   OH238737   1.530   6.271   7.402  0.4755 -0.5258  0.0920
 5701TIP3    H138738   1.617   6.252   7.437  0.5220  1.3517  1.0717
 5701TIP3    H238739   1.488   6.185   7.395  1.8018 -1.2977  1.2198
 5702TIP3   OH238740   0.066   5.297   0.082 -0.4569  0.4073  0.0803
 5702TIP3    H138741   0.032   5.364   0.141 -0.4738  0.9020 -0.4863
 5702TIP3    H238742   0.010   5.303   0.004  0.6034  0.8737 -0.6523
 5703TIP3   OH238743   2.197   2.511   1.723 -0.0144 -0.3307 -0.6685
 5703TIP3    H138744   2.187   2.525   1.629  1.5902  0.7217 -0.7047
 5703TIP3    H238745   2.292   2.504   1.736 -0.3390 -5.1194  0.2467
 5704TIP3   OH238746   3.822   5.175   7.652 -0.3271 -0.4820  0.5070
 5704TIP3    H138747   3.881   5.193   7.579 -1.7365  1.1979 -0.2494
 5704TIP3    H238748   3.798   5.083   7.640  2.0003 -1.1356  0.7459
 5705TIP3   OH238749   3.958   6.849   6.787 -0.0503  0.1866 -0.0646
 5705TIP3    H138750   3.864   6.853   6.772  0.3211  1.5942 -2.1854
 5705TIP3    H238751   3.994   6.817   6.703  1.4440  0.6855  0.3785
 5706TIP3   OH238752   3.990   4.969   6.409 -0.0857 -0.1161  0.8086
 5706TIP3    H138753   3.962   4.993   6.321  1.3631 -0.5530  0.2084
 5706TIP3    H238754   3.926   5.010   6.467 -1.0049  0.2434 -0.4414
 5707TIP3   OH238755   2.665   6.888   6.544 -0.2627 -0.4976  0.1326
 5707TIP3    H138756   2.650   6.893   6.450  1.2937 -0.9733 -0.1582
 5707TIP3    H238757   2.670   6.794   6.562  0.8890 -0.3904  0.4303
 5708TIP3   OH238758   4.317   1.840   0.374  0.2827 -0.1473 -0.2032
 5708TIP3    H138759   4.343   1.787   0.449  0.7709 -0.2210 -0.4295
 5708TIP3    H238760   4.242   1.891   0.406 -0.3138 -1.1050 -0.0473
 5709TIP3   OH238761   5.568   2.804   6.886 -0.1688  0.3704 -0.4513
 5709TIP3    H138762   5.478   2.775   6.900  0.2134 -0.5797  0.0869
 5709TIP3    H238763   5.580   2.876   6.948 -0.2846 -0.0733  0.0855
 5710TIP3   OH238764   3.721   5.929   1.248 -0.1188  0.7688 -0.0829
 5710TIP3    H138765   3.704   5.938   1.154  0.9394 -1.6959 -0.5519
 5710TIP3    H238766   3.814   5.906   1.253 -0.3320  0.2103  1.5231
 5711TIP3   OH238767   2.534   3.496   7.632 -0.2142 -0.1703 -0.4639
 5711TIP3    H138768   2.585   3.438   7.689 -0.0030 -0.9948 -1.4801
 5711TIP3    H238769   2.445   3.490   7.666 -0.5136 -2.3701 -1.5473
 5712TIP3   OH238770   1.045   0.217   0.131  0.2698  0.1756 -0.2151
 5712TIP3    H138771   1.125   0.182   0.170  0.1651 -0.0672 -0.2180
 5712TIP3    H238772   0.986   0.232   0.205  0.4072  0.5873 -0.1881
 5713TIP3   OH238773   0.744   0.012   1.807 -0.1538 -0.1605  0.0223
 5713TIP3    H138774   0.709   0.010   1.896 -1.9415 -0.1970 -0.6536
 5713TIP3    H238775   0.750   0.105   1.785  2.4612 -0.0656  0.9764
 5714TIP3   OH238776   0.703   4.884   0.289  0.0229 -0.1314  0.3296
 5714TIP3    H138777   0.792   4.918   0.293  0.0416  0.1698 -1.9504
 5714TIP3    H238778   0.653   4.952   0.244 -1.3462 -0.3370  1.5031
 5715TIP3   OH238779   3.061   5.107   0.775 -0.4817  0.0457 -0.1044
 5715TIP3    H138780   3.005   5.113   0.852  0.6702  0.2718  0.7360
 5715TIP3    H238781   3.007   5.063   0.709 -0.3412 -3.3405  1.9303
 5716TIP3   OH238782   2.437   4.726   6.567 -0.2946  0.2340 -0.1401
 5716TIP3    H138783   2.366   4.706   6.506  1.0797 -0.2464 -1.6267
 5716TIP3    H238784   2.466   4.640   6.599  1.4463  0.2297 -1.6851
 5717TIP3   OH238785   7.022   6.564   6.698 -0.2262  0.1335  0.0263
 5717TIP3    H138786   7.115   6.551   6.682 -0.4559 -2.1507  0.2881
 5717TIP3    H238787   6.983   6.478   6.681 -2.4889  1.4129 -1.5782
 5718TIP3   OH238788   3.700   3.458   2.439  0.1259 -0.0158  0.1964
 5718TIP3    H138789   3.729   3.442   2.349 -0.1366 -0.7561  0.2372
 5718TIP3    H238790   3.676   3.550   2.440  0.4582  0.0809 -0.4064
 5719TIP3   OH238791   2.096   5.564   1.266  0.2176 -0.3063  0.1270
 5719TIP3    H138792   2.080   5.523   1.351  1.4218  2.0827  1.5926
 5719TIP3    H238793   2.136   5.495   1.213 -0.3702 -1.7874  1.5581
 5720TIP3   OH238794   2.489   4.721   1.157  0.1439  0.5948 -0.3512
 5720TIP3    H138795   2.567   4.671   1.182  0.8118  1.3494 -0.9317
 5720TIP3    H238796   2.520   4.786   1.095 -0.7501  1.6767  0.3096
 5721TIP3   OH238797   0.108   2.777   1.591 -0.3857  0.4435  0.0592
 5721TIP3    H138798   0.102   2.691   1.549 -0.4243  0.3882  0.1789
 5721TIP3    H238799   0.150   2.760   1.675  2.8127  1.0094 -1.3330
 5722TIP3   OH238800   2.834   0.120   1.311  0.0015  0.0729 -0.1733
 5722TIP3    H138801   2.822   0.146   1.403 -1.2745 -1.7490  0.2166
 5722TIP3    H238802   2.794   0.033   1.306 -1.8049  0.9969 -2.9288
 5723TIP3   OH238803   3.083   4.646   6.244 -0.2397  0.4548  0.2966
 5723TIP3    H138804   3.126   4.604   6.170 -1.4355  0.0607 -0.1922
 5723TIP3    H238805   3.007   4.590   6.263 -3.5622  3.8401 -2.2335
 5724TIP3   OH238806   2.723   6.456   2.340 -0.2889 -0.3800 -0.0320
 5724TIP3    H138807   2.679   6.480   2.259 -1.4732  2.0422  1.2943
 5724TIP3    H238808   2.804   6.506   2.339  1.4017 -2.9769 -1.2935
 5725TIP3   OH238809   4.773   3.113   6.117 -0.1339 -0.4580  0.3768
 5725TIP3    H138810   4.854   3.139   6.072  0.0329 -0.1844  0.8353
 5725TIP3    H238811   4.703   3.154   6.066  0.1429  1.2436  1.3283
 5726TIP3   OH238812   1.317   3.625   1.809  0.3171 -0.7515 -0.1831
 5726TIP3    H138813   1.280   3.563   1.747  0.8405 -1.7796  0.5132
 5726TIP3    H238814   1.394   3.581   1.843 -1.0693 -1.0435  2.6899
 5727TIP3   OH238815   1.678   3.644   7.161 -0.0199 -0.3675 -0.4290
 5727TIP3    H138816   1.676   3.718   7.100  0.4088  1.1880  1.4283
 5727TIP3    H238817   1.591   3.605   7.155 -0.3397  0.4495 -1.1695
 5728TIP3   OH238818   0.948   0.178   1.575  0.1214  0.2502 -0.6175
 5728TIP3    H138819   0.902   0.214   1.650  0.5121 -1.3469  0.4016
 5728TIP3    H238820   1.014   0.244   1.554 -0.8300  1.2907 -0.3778
 5729TIP3   OH238821   1.306   3.966   1.022 -0.3983  0.1408 -0.1902
 5729TIP3    H138822   1.227   3.974   1.075 -1.4403 -1.6969 -1.3788
 5729TIP3    H238823   1.289   4.020   0.945 -0.1547  0.4067 -0.0567
 5730TIP3   OH238824   1.855   4.822   0.459 -0.1807  0.1794 -0.1914
 5730TIP3    H138825   1.830   4.773   0.538 -1.6323  2.4662  0.8148
 5730TIP3    H238826   1.928   4.876   0.488  0.1679  0.0323 -0.7984
 5731TIP3   OH238827   3.627   2.401   7.541 -0.8309 -0.6630 -0.0637
 5731TIP3    H138828   3.700   2.451   7.576 -0.6081 -1.0257 -0.0078
 5731TIP3    H238829   3.648   2.310   7.561 -0.8220 -0.8549 -0.9287
 5732TIP3   OH238830   1.414   2.361   6.963  0.5614  0.1380 -0.6293
 5732TIP3    H138831   1.463   2.279   6.970  0.9485  0.3906 -0.3723
 5732TIP3    H238832   1.400   2.387   7.054  0.6728  0.4939 -0.7152
 5733TIP3   OH238833   7.142   5.481   0.702  0.0293 -0.3837 -0.0170
 5733TIP3    H138834   7.064   5.425   0.705  0.3348 -0.7832  0.4291
 5733TIP3    H238835   7.119   5.550   0.639 -0.7808 -0.3623  0.2961
 5734TIP3   OH238836   3.515   5.907   0.848 -0.3920  0.0672 -0.3008
 5734TIP3    H138837   3.474   5.986   0.882  0.1702 -0.4484  1.6368
 5734TIP3    H238838   3.478   5.897   0.760 -1.8008  1.4935  0.0990
 5735TIP3   OH238839   1.451   0.846   0.084  0.0914 -0.3370  0.2744
 5735TIP3    H138840   1.379   0.834   0.021  1.2649 -2.1220 -0.7750
 5735TIP3    H238841   1.522   0.882   0.032  0.5641 -0.3503  0.9124
 5736TIP3   OH238842   3.952   4.554   2.506  1.4231  0.5529  0.6006
 5736TIP3    H138843   3.941   4.519   2.595 -4.5220  0.8608  0.1973
 5736TIP3    H238844   4.005   4.489   2.461  0.3542 -2.1157  3.0475
 5737TIP3   OH238845   0.014   5.801   7.886  0.2886 -0.4297  0.3870
 5737TIP3    H138846  -0.061   5.769   7.936 -0.4704 -0.4556 -0.7561
 5737TIP3    H238847   0.061   5.722   7.859 -0.9686 -0.5621 -1.4847
 5738TIP3   OH238848   1.165   5.902   1.569 -0.4077  0.2952 -0.2243
 5738TIP3    H138849   1.112   5.964   1.619 -0.4971 -0.8750  1.1258
 5738TIP3    H238850   1.102   5.846   1.525 -0.3121  0.7838 -1.0142
 5739TIP3   OH238851   2.094   1.108   0.163 -0.1129  0.2289  0.1103
 5739TIP3    H138852   2.189   1.113   0.152 -0.2679 -2.5917 -3.5890
 5739TIP3    H238853   2.080   1.030   0.216 -0.3504  0.1938 -0.0012
 5740TIP3   OH238854   0.034   4.616   7.955  0.0285  0.0147 -0.7706
 5740TIP3    H138855  -0.003   4.682   7.897 -0.1450 -0.6479 -1.4317
 5740TIP3    H238856   0.128   4.627   7.948 -0.0084  0.4366 -0.5920
 5741TIP3   OH238857   0.960   5.634   5.795 -0.7775  0.5141 -0.5833
 5741TIP3    H138858   1.027   5.596   5.852 -0.9115  1.7311  0.4175
 5741TIP3    H238859   0.894   5.566   5.788  0.2122 -0.4295 -0.9852
 5742TIP3   OH238860   3.324   5.137   0.809 -0.0180  0.5043  0.3735
 5742TIP3    H138861   3.234   5.130   0.777  0.8481 -0.0652 -2.0184
 5742TIP3    H238862   3.354   5.047   0.817  0.7898  0.7253 -0.1419
 5743TIP3   OH238863   4.798   1.707   7.913 -1.0487  0.0814 -0.0107
 5743TIP3    H138864   4.764   1.719   8.001  0.3684  2.1303  0.2812
 5743TIP3    H238865   4.888   1.675   7.926 -0.7034  0.7552 -0.6926
 5744TIP3   OH238866   3.186   0.928   7.120  0.0588  0.2465  0.4771
 5744TIP3    H138867   3.271   0.899   7.088  1.4637  2.9037  1.6317
 5744TIP3    H238868   3.128   0.854   7.104  2.5776 -1.6450 -0.2727
 5745TIP3   OH238869   2.682   2.589   0.506 -0.2377  0.0693 -0.2336
 5745TIP3    H138870   2.728   2.674   0.505  2.0078 -1.1033 -1.4870
 5745TIP3    H238871   2.626   2.591   0.428 -0.5963  0.5989  0.0341
 5746TIP3   OH238872   3.519   5.343   1.247 -0.0370  0.6568 -0.0627
 5746TIP3    H138873   3.495   5.334   1.155 -2.0613  0.1874  0.4906
 5746TIP3    H238874   3.615   5.338   1.248 -0.0365  0.1295 -2.0654
 5747TIP3   OH238875   3.357   0.244   0.012  0.1151  0.0720 -0.4553
 5747TIP3    H138876   3.358   0.232  -0.083  0.5807  0.8256 -0.5461
 5747TIP3    H238877   3.305   0.323   0.026 -0.6291 -0.4885 -0.0281
 5748TIP3   OH238878   3.188   2.038   7.517 -0.2826 -0.2475 -0.2373
 5748TIP3    H138879   3.259   2.014   7.576  0.5976  0.1830 -1.1174
 5748TIP3    H238880   3.116   2.063   7.575  0.0724 -1.2829  0.6562
 5749TIP3   OH238881   2.038   4.410   6.168 -0.1875  0.3263 -0.8218
 5749TIP3    H138882   2.126   4.412   6.206 -0.9103 -1.9092  1.0515
 5749TIP3    H238883   2.046   4.463   6.088  2.7108  0.6070 -0.4159
 5750TIP3   OH238884   0.903   6.799   0.713 -0.4122 -0.3137 -0.2463
 5750TIP3    H138885   0.827   6.778   0.658 -0.8681 -1.2847  0.7235
 5750TIP3    H238886   0.912   6.894   0.707 -4.0151  0.3581  2.5186
 5751TIP3   OH238887   2.902   3.917   1.396  0.2562 -0.1156  0.0720
 5751TIP3    H138888   2.918   3.825   1.417  1.6293 -0.5918 -2.8109
 5751TIP3    H238889   2.913   3.922   1.301 -0.4830  2.8983  0.1021
 5752TIP3   OH238890   2.265   3.879   1.413 -0.6361 -0.3054 -0.1002
 5752TIP3    H138891   2.309   3.855   1.331  0.6614 -0.8680  0.7659
 5752TIP3    H238892   2.335   3.902   1.473 -1.4644 -1.9451  1.5364
 5753TIP3   OH238893   4.034   4.299   1.954 -0.0278 -0.0108  0.2771
 5753TIP3    H138894   4.125   4.316   1.978  0.3042  0.7970 -1.4910
 5753TIP3    H238895   4.009   4.224   2.008  1.2236  0.6646  1.8257
 5754TIP3   OH238896   3.838   0.241   2.066  0.4576  0.1046  0.1492
 5754TIP3    H138897   3.778   0.169   2.082 -0.7264  1.2150  0.8502
 5754TIP3    H238898   3.814   0.307   2.131  1.8334  0.9396 -0.1608
 5755TIP3   OH238899   2.072   4.859   1.027 -0.3935  1.0250  0.6491
 5755TIP3    H138900   2.128   4.784   1.049 -1.3487 -0.3003 -1.2943
 5755TIP3    H238901   2.024   4.877   1.108  0.4586  0.0780  1.3858
 5756TIP3   OH238902   2.697   4.549   1.202  0.6141  0.1663 -0.0628
 5756TIP3    H138903   2.645   4.469   1.213 -0.6702  1.3539  3.0095
 5756TIP3    H238904   2.779   4.530   1.245  0.6824  0.1787 -0.1863
 5757TIP3   OH238905   5.812   2.177   1.573  0.1266 -0.4717  0.7483
 5757TIP3    H138906   5.725   2.143   1.594 -0.0771 -0.2146  0.3443
 5757TIP3    H238907   5.806   2.271   1.593 -0.9376  0.3612 -2.9138
 5758TIP3   OH238908   0.540   6.856   7.849 -0.6379  0.1688 -0.0488
 5758TIP3    H138909   0.459   6.810   7.874 -0.9015  0.8898  0.4537
 5758TIP3    H238910   0.565   6.903   7.928 -1.4551  2.4690 -1.1188
 5759TIP3   OH238911   3.672   0.773   1.476 -0.3162 -0.3114  0.2380
 5759TIP3    H138912   3.585   0.748   1.510 -0.2557 -0.3824  0.3422
 5759TIP3    H238913   3.716   0.689   1.462 -0.2227 -0.2723  0.2970
 5760TIP3   OH238914   1.317   1.863   1.319  0.1965  0.7475  0.3193
 5760TIP3    H138915   1.248   1.921   1.286  0.3111  0.9044  0.3539
 5760TIP3    H238916   1.299   1.778   1.279  0.1067  0.8421  0.1614
 5761TIP3   OH238917   6.557   6.458   7.820  0.1572 -0.6498 -0.5028
 5761TIP3    H138918   6.548   6.432   7.728 -2.4714 -0.3210 -0.3665
 5761TIP3    H238919   6.569   6.553   7.817  0.8143 -0.7317 -0.5362
 5762TIP3   OH238920   3.457   5.872   7.199  0.1396  0.3436  0.3800
 5762TIP3    H138921   3.435   5.965   7.194 -1.5104 -0.0366  0.2352
 5762TIP3    H238922   3.545   5.870   7.236 -0.2757  1.9117  1.4976
 5763TIP3   OH238923   3.823   5.010   2.007  0.0652  0.2914 -0.6074
 5763TIP3    H138924   3.827   5.032   2.100  0.0328  0.6698 -0.6966
 5763TIP3    H238925   3.903   5.048   1.970 -1.2510  2.5239 -1.2423
 5764TIP3   OH238926   0.566   4.328   1.640 -0.5901 -0.3068  0.1170
 5764TIP3    H138927   0.509   4.379   1.698 -0.4638  0.3708 -0.3437
 5764TIP3    H238928   0.650   4.326   1.685 -0.5475  0.0458  0.0545
 5765TIP3   OH238929   1.169   4.790   1.254 -0.1645  0.7930 -0.1550
 5765TIP3    H138930   1.261   4.772   1.234 -0.3464  0.2931 -0.5512
 5765TIP3    H238931   1.120   4.740   1.189 -0.7206  0.9023  0.1760
 5766TIP3   OH238932   6.888   0.556   0.500  0.3090 -0.0292  0.2354
 5766TIP3    H138933   6.831   0.479   0.507 -0.9480  0.9216  0.7049
 5766TIP3    H238934   6.940   0.540   0.422  0.3812 -1.5638  0.5740
 5767TIP3   OH238935   1.573   4.051   0.233 -0.3014 -0.2605  0.3896
 5767TIP3    H138936   1.573   4.137   0.192 -2.4599  0.2822  1.4677
 5767TIP3    H238937   1.648   4.052   0.292  1.0822 -0.0016 -1.3122
 5768TIP3   OH238938   1.655   4.297   0.370 -0.2333  0.1008 -0.1006
 5768TIP3    H138939   1.741   4.330   0.398 -0.4293  0.4313  0.1063
 5768TIP3    H238940   1.656   4.308   0.275  0.0037 -0.0161 -0.1141
 5769TIP3   OH238941   3.213   5.481   0.753  0.2385  0.0644 -0.2654
 5769TIP3    H138942   3.140   5.423   0.773  1.2308 -1.1794 -0.1800
 5769TIP3    H238943   3.243   5.513   0.838  1.7984 -1.9418 -0.0129
 5770TIP3   OH238944   4.189   5.978   1.841  0.4860 -0.0950  0.2350
 5770TIP3    H138945   4.204   5.923   1.917  0.0776  1.5589  1.5362
 5770TIP3    H238946   4.243   6.056   1.857 -0.4152  0.7279 -0.6686
 5771TIP3   OH238947   3.278   0.485   0.200  1.0475 -0.0188 -0.0718
 5771TIP3    H138948   3.276   0.580   0.194 -1.2474 -0.0999 -0.9494
 5771TIP3    H238949   3.293   0.467   0.293  0.4062  1.2007  0.2775
 5772TIP3   OH238950   1.444   5.522   2.023  0.2506  0.0656 -0.2157
 5772TIP3    H138951   1.432   5.428   2.030  1.0933 -0.0172  0.2094
 5772TIP3    H238952   1.402   5.547   1.941 -1.4301 -0.4329  0.4761
 5773TIP3   OH238953   6.283   1.998   1.797 -0.4496  0.3729  0.6611
 5773TIP3    H138954   6.194   2.033   1.799  0.1464  1.9451 -0.0305
 5773TIP3    H238955   6.324   2.032   1.876 -0.6535 -0.9458  1.3630
 5774TIP3   OH238956   1.400   3.886   1.309  0.0814 -0.2598  0.4567
 5774TIP3    H138957   1.399   3.796   1.278 -0.2551 -0.6216  1.5022
 5774TIP3    H238958   1.320   3.895   1.362  0.6744  0.3134  1.2767
 5775TIP3   OH238959   3.653   6.358   2.170 -0.3306  0.3636  0.9051
 5775TIP3    H138960   3.598   6.328   2.242 -0.8138 -0.4657  0.2010
 5775TIP3    H238961   3.596   6.354   2.093  0.4635  0.3176  0.3166
 5776TIP3   OH238962   5.727   4.723   0.763 -0.5886 -0.8849  0.4645
 5776TIP3    H138963   5.784   4.654   0.728  1.4476  0.8636  0.2719
 5776TIP3    H238964   5.771   4.752   0.843 -0.6243  1.2130 -0.2538
 5777TIP3   OH238965   1.249   0.678   7.064 -0.1329  0.4443  0.7890
 5777TIP3    H138966   1.199   0.606   7.025 -0.2128  0.3528  1.0604
 5777TIP3    H238967   1.246   0.747   6.997  1.5707 -0.4877 -0.2716
 5778TIP3   OH238968   4.840   6.723   1.143 -0.0103 -0.2461 -0.0588
 5778TIP3    H138969   4.799   6.799   1.184  2.0667  0.8738  0.0095
 5778TIP3    H238970   4.768   6.673   1.107 -1.6256  0.4909  2.0557
 5779TIP3   OH238971   4.278   6.536   7.620 -0.0649 -0.2766 -0.1440
 5779TIP3    H138972   4.358   6.585   7.603  0.9915 -2.0941 -0.5756
 5779TIP3    H238973   4.254   6.558   7.710  0.1811  1.2812 -0.4544
 5780TIP3   OH238974   6.458   3.103   0.738  0.0858 -0.0429 -0.1391
 5780TIP3    H138975   6.402   3.130   0.666 -2.9182 -0.1635  2.0625
 5780TIP3    H238976   6.417   3.141   0.816  2.5478 -0.9212  1.6556
 5781TIP3   OH238977   6.418   1.306   0.291  0.2965  0.0869 -1.0186
 5781TIP3    H138978   6.428   1.279   0.382  0.3734  2.7026 -0.2041
 5781TIP3    H238979   6.391   1.226   0.245  1.8346 -1.6373  0.9833
 5782TIP3   OH238980   3.595   6.509   6.378 -0.1976  0.6039 -0.1116
 5782TIP3    H138981   3.655   6.454   6.329  0.7388  1.0570  0.5192
 5782TIP3    H238982   3.649   6.553   6.443 -1.3774  0.2015  1.1745
 5783TIP3   OH238983   1.796   3.951   1.199 -0.0602  0.0084  0.2446
 5783TIP3    H138984   1.735   4.017   1.229 -0.1731  0.0019  0.0326
 5783TIP3    H238985   1.742   3.889   1.150 -0.0529 -0.5622  0.9522
 5784TIP3   OH238986   2.379   3.553   0.070  0.7196  0.0928 -0.0075
 5784TIP3    H138987   2.350   3.597   0.150 -0.0904  0.9311 -0.7523
 5784TIP3    H238988   2.474   3.553   0.076  0.7790  2.3333 -0.1570
 5785TIP3   OH238989   3.237   2.086   1.409 -0.3723 -0.6420  0.2023
 5785TIP3    H138990   3.284   2.013   1.449 -0.6909 -0.8062  0.2736
 5785TIP3    H238991   3.174   2.114   1.475  0.2270  0.1576  0.4482
 5786TIP3   OH238992   3.384   4.311   1.331 -0.1164 -0.0137 -0.1015
 5786TIP3    H138993   3.335   4.338   1.253  0.0851 -4.4520 -1.9277
 5786TIP3    H238994   3.469   4.282   1.297  2.2123  3.3880  2.5286
 5787TIP3   OH238995   6.956   3.011   0.358  0.3255  0.4852 -0.1437
 5787TIP3    H138996   7.004   3.081   0.314  1.4580 -0.5596 -0.5796
 5787TIP3    H238997   7.021   2.967   0.413 -0.9876  1.5426  2.3360
 5788TIP3   OH238998   3.104   5.991   7.069 -0.3268  0.1560  0.2499
 5788TIP3    H138999   3.046   5.947   7.006 -0.7446  0.0646  0.6980
 5788TIP3    H239000   3.168   6.036   7.014  0.1728 -1.0972 -0.2295
 5789TIP3   OH239001   1.950   1.133   7.401  0.3859  0.1178  0.0836
 5789TIP3    H139002   1.960   1.227   7.413 -0.2101 -0.0897  2.5308
 5789TIP3    H239003   2.032   1.105   7.360  1.2904  1.4601  0.9342
 5790TIP3   OH239004   1.222   0.920   6.830  0.2578 -0.2271 -0.2411
 5790TIP3    H139005   1.240   0.946   6.739  1.5583 -0.6261 -0.1154
 5790TIP3    H239006   1.259   0.991   6.882 -1.3531  0.4777 -0.0329
 5791TIP3   OH239007   6.497   5.779   0.377  0.1884 -0.1380  0.4025
 5791TIP3    H139008   6.484   5.739   0.463  1.5794  0.0479  0.7185
 5791TIP3    H239009   6.409   5.802   0.347 -0.3257 -0.4254  1.6662
 5792TIP3   OH239010   3.150   4.819   8.002  0.0855  0.3083 -0.1826
 5792TIP3    H139011   3.074   4.864   7.966  1.2786  2.1841 -0.4379
 5792TIP3    H239012   3.166   4.862   8.086 -0.7591 -1.9141  1.1551
 5793TIP3   OH239013   6.146   5.345   0.274 -0.5335  0.0763 -0.2304
 5793TIP3    H139014   6.113   5.409   0.211 -0.7657  1.0862  0.8883
 5793TIP3    H239015   6.145   5.392   0.358 -1.2008 -1.5580  0.6948
 5794TIP3   OH239016   1.446   2.782   1.319  0.2144  0.1341  0.4847
 5794TIP3    H139017   1.494   2.810   1.241 -0.7578 -0.3258 -0.2930
 5794TIP3    H239018   1.514   2.762   1.383  0.9991  1.3795  0.0575
 5795TIP3   OH239019   1.956   4.288   6.841 -0.5571 -0.3265 -0.2042
 5795TIP3    H139020   1.863   4.270   6.854 -0.8579  0.7654 -0.7857
 5795TIP3    H239021   1.960   4.382   6.820  0.6184 -0.4730 -0.6915
 5796TIP3   OH239022   4.559   2.234   0.885 -0.1584  0.3059  0.0759
 5796TIP3    H139023   4.612   2.288   0.944 -0.8484  1.0625 -0.0049
 5796TIP3    H239024   4.539   2.291   0.812  0.7657 -0.6602 -0.9514
 5797TIP3   OH239025   0.981   0.064   2.034 -0.7114 -0.2605 -0.4104
 5797TIP3    H139026   0.885   0.063   2.038 -0.6873 -0.6695  0.2579
 5797TIP3    H239027   1.008  -0.003   2.097 -0.0074 -0.9480 -1.4175
 5798TIP3   OH239028   5.046   1.684   0.154  0.0613  0.0899 -0.1495
 5798TIP3    H139029   5.135   1.689   0.188 -0.5565 -0.1878  1.5701
 5798TIP3    H239030   5.052   1.628   0.077  1.4884  0.6613 -0.4551
 5799TIP3   OH239031   2.386   3.792   0.525 -0.3956  0.2070  0.1300
 5799TIP3    H139032   2.406   3.698   0.526 -1.1930  0.0441  0.6902
 5799TIP3    H239033   2.305   3.800   0.575  0.5073  1.3912  1.4433
 5800TIP3   OH239034   3.588   0.331   6.102  0.3582  0.0751 -0.2567
 5800TIP3    H139035   3.493   0.340   6.097  0.3040  0.4221  1.2247
 5800TIP3    H239036   3.618   0.346   6.012 -0.8928  1.1565 -0.5107
 5801TIP3   OH239037   5.416   3.955   1.890  0.1014  0.2284 -0.1389
 5801TIP3    H139038   5.388   3.987   1.975  1.4316  1.1902 -0.0489
 5801TIP3    H239039   5.353   3.991   1.828  0.1312  0.9463  0.2470
 5802TIP3   OH239040   2.456   4.123   0.846 -0.3549  0.6402  0.6054
 5802TIP3    H139041   2.493   4.043   0.810  1.5857  0.9737  1.7690
 5802TIP3    H239042   2.362   4.113   0.835 -0.0044 -0.7834 -1.3188
 5803TIP3   OH239043   1.274   5.016   7.219 -0.5580  0.4066 -0.2055
 5803TIP3    H139044   1.311   4.929   7.232 -4.0117 -1.4535 -2.0199
 5803TIP3    H239045   1.284   5.033   7.125 -3.1627  0.3222 -0.5418
 5804TIP3   OH239046   4.347   0.170   1.258 -0.0697  0.3597 -0.2241
 5804TIP3    H139047   4.401   0.133   1.328 -0.6767  2.9338  1.6669
 5804TIP3    H239048   4.264   0.123   1.265 -0.4611  1.2665  1.4363
 5805TIP3   OH239049   7.076   2.628   7.570 -0.5745 -0.7078 -0.3542
 5805TIP3    H139050   6.980   2.631   7.577 -0.5052 -0.0626  0.3740
 5805TIP3    H239051   7.092   2.590   7.484 -1.4854  1.2163 -1.4123
 5806TIP3   OH239052   5.018   1.459   5.926 -0.3691 -0.6928 -0.1701
 5806TIP3    H139053   5.106   1.421   5.924  0.5562  1.4215 -0.7665
 5806TIP3    H239054   5.012   1.499   6.012  0.6163  2.2118 -1.3947
 5807TIP3   OH239055   6.329   2.480   1.316  0.0243 -0.4007 -0.1265
 5807TIP3    H139056   6.297   2.543   1.251  1.7074  0.3873 -0.2342
 5807TIP3    H239057   6.409   2.520   1.350  0.4872 -1.9533  0.6544
 5808TIP3   OH239058   2.358   5.955   1.618  0.3546 -0.2276 -0.0196
 5808TIP3    H139059   2.422   6.003   1.564 -0.0248  0.2231 -0.0794
 5808TIP3    H239060   2.329   6.019   1.683  1.0676 -0.8788  0.9477
 5809TIP3   OH239061   0.671   3.367   5.994  0.1164 -0.1222  0.1527
 5809TIP3    H139062   0.602   3.301   5.991  1.1391 -1.1517 -1.1773
 5809TIP3    H239063   0.742   3.325   6.042  0.6833  0.1088 -0.4882
 5810TIP3   OH239064   1.507   3.309   0.796  0.1155  0.7034  0.1499
 5810TIP3    H139065   1.558   3.227   0.798  0.3824  0.8785  0.5020
 5810TIP3    H239066   1.556   3.366   0.737 -1.8330 -0.5467 -2.7973
 5811TIP3   OH239067   5.573   3.066   6.805  0.2679  0.3725  0.6366
 5811TIP3    H139068   5.615   3.065   6.891  0.8800  2.5949  0.3845
 5811TIP3    H239069   5.485   3.099   6.821 -0.6786 -2.0777  0.8105
 5812TIP3   OH239070   4.941   4.293   6.106 -0.1331  0.0396 -0.1953
 5812TIP3    H139071   5.007   4.240   6.150  0.5162  0.0437 -1.1278
 5812TIP3    H239072   4.990   4.339   6.038 -1.2341 -0.5655 -1.4247
 5813TIP3   OH239073   5.502   2.425   6.204 -0.2254  0.1243 -0.1908
 5813TIP3    H139074   5.570   2.398   6.143  1.8917  0.2129  2.0620
 5813TIP3    H239075   5.444   2.350   6.211  1.4938 -1.1794  0.3636
 5814TIP3   OH239076   3.392   5.974   1.582  0.5841 -0.1835 -0.3557
 5814TIP3    H139077   3.407   5.884   1.610  0.9056 -0.4266 -1.3128
 5814TIP3    H239078   3.357   6.018   1.660 -0.0526 -1.2591 -0.0339
 5815TIP3   OH239079   5.496   6.481   0.355  0.8336  0.1065  0.1158
 5815TIP3    H139080   5.510   6.560   0.406 -0.3391  0.7813 -0.5644
 5815TIP3    H239081   5.494   6.410   0.419  0.3194  0.8261  0.8960
 5816TIP3   OH239082   4.262   5.925   1.013  0.0778  0.5641 -0.4214
 5816TIP3    H139083   4.256   6.017   0.988 -1.0721 -0.3416 -3.7085
 5816TIP3    H239084   4.338   5.893   0.964  0.6151 -0.1760  0.8969
 5817TIP3   OH239085   3.578   0.948   6.709  0.1167  0.2073 -0.1282
 5817TIP3    H139086   3.656   0.908   6.669  0.0460  1.3335 -1.4117
 5817TIP3    H239087   3.578   1.038   6.677 -2.9204 -0.3540 -1.9186
 5818TIP3   OH239088   2.829   5.955   1.875 -0.1371 -0.1911 -0.3076
 5818TIP3    H139089   2.755   6.010   1.850  1.6353  1.7346 -1.5020
 5818TIP3    H239090   2.829   5.884   1.811  0.0196  0.7258 -1.3453
 5819TIP3   OH239091   3.765   4.313   0.779  0.1551 -0.5954  0.1098
 5819TIP3    H139092   3.789   4.360   0.698  0.1763 -1.0384 -0.1430
 5819TIP3    H239093   3.683   4.269   0.757  0.7716 -1.6669 -0.0401
 5820TIP3   OH239094   4.171   3.721   5.904 -0.0089 -0.5224 -0.5322
 5820TIP3    H139095   4.217   3.638   5.912 -0.3306 -0.8383 -1.7980
 5820TIP3    H239096   4.098   3.703   5.845 -1.3921  0.1264  0.9477
 5821TIP3   OH239097   3.704   5.630   6.944  0.2688  0.0481  0.2883
 5821TIP3    H139098   3.749   5.713   6.929  0.2742  0.3378  1.7758
 5821TIP3    H239099   3.694   5.626   7.040  1.1584 -2.1247  0.3153
 5822TIP3   OH239100   4.215   5.389   7.717 -0.0485 -0.8677 -0.2209
 5822TIP3    H139101   4.125   5.362   7.738  0.1379 -1.9414 -0.7654
 5822TIP3    H239102   4.209   5.424   7.628 -0.0954 -0.0926  0.0885
 5823TIP3   OH239103   7.042   4.966   7.624 -0.0155  0.0123 -0.9538
 5823TIP3    H139104   6.981   5.013   7.681  2.5549 -1.4714  3.2310
 5823TIP3    H239105   7.103   5.034   7.594  0.1919  0.4016  0.2930
 5824TIP3   OH239106   2.913   5.402   7.400  0.2837 -0.1404  0.1788
 5824TIP3    H139107   2.928   5.421   7.308 -1.0920 -1.5106 -0.3503
 5824TIP3    H239108   2.891   5.309   7.402 -1.7876  0.3592  1.6281
 5825TIP3   OH239109   5.162   5.362   7.194 -0.6714 -0.3786 -0.2131
 5825TIP3    H139110   5.189   5.419   7.266  0.6249 -0.4591 -0.6207
 5825TIP3    H239111   5.072   5.338   7.215 -0.3024 -0.4218  1.4069
 5826TIP3   OH239112   6.106   5.673   8.074 -0.1727  0.0224 -0.2128
 5826TIP3    H139113   6.155   5.697   7.995 -0.9171  0.7953 -0.4459
 5826TIP3    H239114   6.139   5.733   8.141 -1.1397  0.8724 -0.4896
 5827TIP3   OH239115   5.283   6.705   6.985 -0.0963  0.2630 -0.0977
 5827TIP3    H139116   5.276   6.645   6.912 -3.3015 -0.8244  1.0277
 5827TIP3    H239117   5.376   6.706   7.007  0.6886 -0.5267 -3.1829
 5828TIP3   OH239118   1.640   3.152   7.728  0.0079  0.6212  0.3486
 5828TIP3    H139119   1.596   3.190   7.652  0.4714  0.2210 -0.1256
 5828TIP3    H239120   1.733   3.155   7.706 -0.0259 -2.0031 -0.2805
 5829TIP3   OH239121   4.152   5.351   0.281 -0.3663  0.3448  0.0096
 5829TIP3    H139122   4.174   5.286   0.215  1.8740 -0.2822  1.3069
 5829TIP3    H239123   4.062   5.377   0.261 -1.2844 -3.0857 -0.5870
 5830TIP3   OH239124   0.571   7.105   7.530 -0.1917 -0.0929 -0.5867
 5830TIP3    H139125   0.592   7.179   7.588 -1.3868 -0.6696  0.6265
 5830TIP3    H239126   0.502   7.138   7.472  0.1029  0.1067 -0.8189
 5831TIP3   OH239127   3.536   0.916   1.277  0.5402 -0.3513 -0.2444
 5831TIP3    H139128   3.595   0.860   1.327  0.4090 -1.1676 -0.9903
 5831TIP3    H239129   3.449   0.880   1.292  0.2172  0.8938  0.9058
 5832TIP3   OH239130   3.078   0.394   7.921 -0.2195 -0.2069 -0.0444
 5832TIP3    H139131   3.010   0.461   7.927 -0.2559 -0.1397 -1.2266
 5832TIP3    H239132   3.100   0.389   7.828  2.2104  0.5913  0.4464
 5833TIP3   OH239133   5.876   5.406   1.749  0.3269  0.5256  0.0475
 5833TIP3    H139134   5.940   5.394   1.820  0.5045 -0.6228 -0.2938
 5833TIP3    H239135   5.791   5.404   1.792  0.4446 -0.0036  0.2625
 5834TIP3   OH239136   4.957   3.069   1.071 -0.2195  0.0515  0.0336
 5834TIP3    H139137   4.948   2.994   1.129  0.3142 -0.7063 -0.8524
 5834TIP3    H239138   4.976   3.031   0.985  2.5685  1.2417  0.0568
 5835TIP3   OH239139   5.427   3.766   1.600  0.3640 -0.0101 -0.2943
 5835TIP3    H139140   5.365   3.839   1.611  1.0840  0.4844  0.5547
 5835TIP3    H239141   5.405   3.706   1.671  0.7587  0.0966 -0.0821
 5836TIP3   OH239142   0.010   1.837   7.869 -0.0936 -0.5429  0.0108
 5836TIP3    H139143  -0.082   1.851   7.892  0.5278  0.4250  1.9760
 5836TIP3    H239144   0.047   1.790   7.943  1.1471 -0.4104 -0.5077
 5837TIP3   OH239145   4.125   5.016   7.572 -0.2551 -0.0726 -0.1402
 5837TIP3    H139146   4.060   5.086   7.565 -1.8576 -1.6915 -1.8382
 5837TIP3    H239147   4.168   5.014   7.487 -0.6092 -1.4990 -0.3022
 5838TIP3   OH239148   4.261   4.986   1.287  0.2996 -0.5730 -0.1728
 5838TIP3    H139149   4.350   5.021   1.288  1.0522 -2.4456  0.1299
 5838TIP3    H239150   4.234   4.984   1.379 -0.6259  1.3388 -0.3730
 5839TIP3   OH239151   4.610   0.647   0.774  0.0387  0.4285 -0.1881
 5839TIP3    H139152   4.660   0.565   0.763  0.4537  0.8484 -1.5712
 5839TIP3    H239153   4.573   0.640   0.862  1.1168 -0.6798  0.2089
 5840TIP3   OH239154   4.995   5.302   1.553  0.4439 -0.6742 -0.4826
 5840TIP3    H139155   5.009   5.349   1.471  0.0279  0.1648 -0.0773
 5840TIP3    H239156   5.012   5.210   1.531  0.4965 -0.4356 -1.4658
 5841TIP3   OH239157   1.363   5.555   7.995 -0.1492  0.2430  0.8134
 5841TIP3    H139158   1.293   5.491   7.976 -0.1350  0.7711 -1.1816
 5841TIP3    H239159   1.408   5.519   8.071  0.2391 -2.4664 -0.6153
 5842TIP3   OH239160   5.485   6.206   8.059  0.4922 -0.1577  0.4460
 5842TIP3    H139161   5.434   6.177   8.135  0.5405 -1.3633  0.0262
 5842TIP3    H239162   5.512   6.295   8.081 -0.7563  0.0530  1.2034
 5843TIP3   OH239163   6.271   4.490   6.806 -0.1147 -0.6016 -0.4689
 5843TIP3    H139164   6.292   4.528   6.720 -0.7558 -0.0863 -0.4054
 5843TIP3    H239165   6.356   4.472   6.845  0.2353  1.2040 -0.3193
 5844TIP3   OH239166   5.555   5.501   7.475 -0.3719  0.4638 -0.3848
 5844TIP3    H139167   5.593   5.487   7.388  1.5078 -1.8938  0.7862
 5844TIP3    H239168   5.570   5.594   7.492  2.4360  0.1964 -1.1297
 5845TIP3   OH239169   2.189   6.082   7.498  0.2218  0.0852  0.6389
 5845TIP3    H139170   2.181   6.101   7.592 -0.6735 -0.4041  0.6684
 5845TIP3    H239171   2.196   6.168   7.456  2.7802  0.2646  1.3196
 5846TIP3   OH239172   0.525   1.435   0.018  0.0701 -0.6795 -0.0430
 5846TIP3    H139173   0.431   1.425   0.005 -0.0031  0.3012 -0.3299
 5846TIP3    H239174   0.535   1.526   0.046  0.9415 -0.7605 -0.0847
 5847TIP3   OH239175   1.245   4.330   1.537  0.0547 -0.2959 -0.6757
 5847TIP3    H139176   1.207   4.256   1.489 -0.3691 -0.1527 -0.5559
 5847TIP3    H239177   1.183   4.348   1.608  0.2851  0.0098 -0.5492
 5848TIP3   OH239178   3.504   3.793   6.193 -0.1268  0.4584  0.3448
 5848TIP3    H139179   3.533   3.882   6.210  0.3283  0.2281  0.7785
 5848TIP3    H239180   3.423   3.803   6.143 -0.2324  1.1154  0.6491
 5849TIP3   OH239181   2.777   1.107   0.806  0.4958  0.4795 -0.6540
 5849TIP3    H139182   2.749   1.075   0.720  0.2600  0.6925 -0.6584
 5849TIP3    H239183   2.798   1.200   0.792 -2.9550  1.4667  0.2433
 5850TIP3   OH239184   5.877   3.817   0.493 -0.3227  0.1421  0.0962
 5850TIP3    H139185   5.941   3.748   0.477  0.1056 -0.5341  4.3579
 5850TIP3    H239186   5.793   3.776   0.471  0.2369 -0.5797 -0.7520
 5851TIP3   OH239187   6.859   5.142   0.566 -0.0468 -0.3668 -0.0512
 5851TIP3    H139188   6.879   5.236   0.564 -2.3828  0.1449 -0.9480
 5851TIP3    H239189   6.917   5.104   0.499  3.0055 -0.0610  2.3011
 5852TIP3   OH239190   4.618   4.090   1.640 -0.0993  0.3156  0.8028
 5852TIP3    H139191   4.663   4.146   1.704 -0.2251 -0.3378  1.4689
 5852TIP3    H239192   4.689   4.055   1.586 -0.1280  2.1473 -0.4632
 5853TIP3   OH239193   6.221   6.946   7.070 -0.1188 -0.4871  0.0460
 5853TIP3    H139194   6.271   7.024   7.095  0.8730 -1.2374  0.4773
 5853TIP3    H239195   6.179   6.919   7.152 -1.0657  0.0231 -0.2714
 5854TIP3   OH239196   3.072   3.128   0.382  0.1575 -0.6532 -0.7125
 5854TIP3    H139197   3.019   3.064   0.336 -1.3044 -0.2046  0.3168
 5854TIP3    H239198   3.018   3.156   0.456  1.7742 -0.1124  0.3019
 5855TIP3   OH239199   4.906   4.665   1.037 -0.3359 -0.0590  0.6257
 5855TIP3    H139200   4.833   4.649   0.977 -0.5278 -0.8575  1.0534
 5855TIP3    H239201   4.922   4.579   1.078  0.6603  0.1689  0.7359
 5856TIP3   OH239202   5.327   5.224   1.513 -0.5949 -0.2694  0.7664
 5856TIP3    H139203   5.381   5.226   1.434 -0.6695 -1.3415  0.6706
 5856TIP3    H239204   5.253   5.168   1.490 -1.3000  0.4917  1.1774
 5857TIP3   OH239205   4.242   3.854   0.118  0.2483 -0.4736  0.2963
 5857TIP3    H139206   4.163   3.801   0.121  0.6498 -1.1292 -0.5173
 5857TIP3    H239207   4.310   3.795   0.086  1.2550 -0.1357  1.7724
 5858TIP3   OH239208   0.111   2.549   8.072 -0.2038 -0.0006 -0.4828
 5858TIP3    H139209   0.060   2.486   8.123  0.2437 -0.2248 -0.3059
 5858TIP3    H239210   0.181   2.577   8.132  0.4285 -0.3964 -1.0338
 5859TIP3   OH239211   4.615   6.549   1.710  0.3470  0.0204  0.3137
 5859TIP3    H139212   4.698   6.575   1.670  0.8111 -0.8676  0.6912
 5859TIP3    H239213   4.635   6.538   1.803  0.1631 -1.6368  0.1754
 5860TIP3   OH239214   6.186   4.999   0.672 -0.0839 -0.7639  0.0018
 5860TIP3    H139215   6.164   4.924   0.617  1.9020 -0.5471 -1.1327
 5860TIP3    H239216   6.123   5.067   0.646  0.3376 -0.9155 -1.4908
 5861TIP3   OH239217   2.154   5.951   0.668 -0.4217  0.3857  0.1501
 5861TIP3    H139218   2.121   5.868   0.704  0.6807  0.1549  0.6697
 5861TIP3    H239219   2.179   5.930   0.578  1.2933 -0.2600  0.7454
 5862TIP3   OH239220   0.058   4.183   7.537  0.2420  0.1215  0.0151
 5862TIP3    H139221   0.072   4.278   7.530 -1.1486  0.2323 -1.7726
 5862TIP3    H239222  -0.006   4.164   7.468  2.0029 -2.4359 -0.9464
 5863TIP3   OH239223   0.190   1.578   1.457  0.4467  0.0015  0.3972
 5863TIP3    H139224   0.252   1.649   1.441 -0.8853  1.0216 -0.3097
 5863TIP3    H239225   0.124   1.616   1.515 -0.4917 -0.5178 -0.3089
 5864TIP3   OH239226   1.567   6.564   7.326  0.2963  0.5439  0.4287
 5864TIP3    H139227   1.532   6.576   7.237  3.7792  1.4439 -0.9000
 5864TIP3    H239228   1.556   6.471   7.343 -1.7336  0.6162 -0.3576
 5865TIP3   OH239229   3.576   5.181   1.642  0.1000 -0.0614 -0.0183
 5865TIP3    H139230   3.551   5.115   1.707  0.2557  1.1207  1.2441
 5865TIP3    H239231   3.669   5.196   1.657  0.5141 -0.9093 -1.5550
 5866TIP3   OH239232   2.920   3.245   2.059 -0.2433 -0.3119 -0.1884
 5866TIP3    H139233   2.992   3.205   2.010  0.1096  0.2771 -0.1605
 5866TIP3    H239234   2.864   3.172   2.083  0.0890 -0.7207 -0.6371
 5867TIP3   OH239235   1.111   2.248   0.868  0.0128 -0.1840 -0.2353
 5867TIP3    H139236   1.201   2.232   0.899  0.5216  2.0054 -0.5383
 5867TIP3    H239237   1.058   2.186   0.918  1.4261 -0.0517  1.5191
 5868TIP3   OH239238   5.981   3.411   0.868  0.2569 -0.2846  0.2752
 5868TIP3    H139239   5.921   3.481   0.843  0.3873  0.0620  0.9169
 5868TIP3    H239240   5.926   3.333   0.875 -0.0153 -0.0932  0.2812
 5869TIP3   OH239241   4.838   0.747   0.642 -0.1247 -0.4081  0.2405
 5869TIP3    H139242   4.771   0.718   0.704 -0.0277 -0.5237  0.2913
 5869TIP3    H239243   4.876   0.667   0.607 -1.0950 -0.3352 -0.9717
 5870TIP3   OH239244   4.896   2.663   0.006 -0.0974  0.1852  0.1805
 5870TIP3    H139245   4.941   2.588   0.045 -1.5796 -1.1479 -0.6199
 5870TIP3    H239246   4.946   2.681  -0.074  1.2995  1.1702  1.2649
 5871TIP3   OH239247   3.710   5.626   0.142  0.0316 -0.1860 -0.3820
 5871TIP3    H139248   3.627   5.633   0.189  0.0029  0.4397 -0.5328
 5871TIP3    H239249   3.725   5.712   0.104  1.2710  0.0127  0.5151
 5872TIP3   OH239250   6.104   2.817   1.499  0.3582 -0.0214  0.0713
 5872TIP3    H139251   6.012   2.843   1.499  0.9390  2.1059  0.9494
 5872TIP3    H239252   6.146   2.872   1.565  2.4456 -0.3152 -0.9392
 5873TIP3   OH239253   4.458   6.855   1.080  0.5207  0.8276 -0.1189
 5873TIP3    H139254   4.527   6.852   1.014  0.5183 -1.2355 -0.0683
 5873TIP3    H239255   4.423   6.944   1.074  1.3880  1.0771 -1.9915
 5874TIP3   OH239256   3.899   3.524   0.302  0.1376 -0.1139 -0.4830
 5874TIP3    H139257   3.817   3.554   0.341 -0.2270 -0.5496 -0.9117
 5874TIP3    H239258   3.875   3.448   0.250  1.2999 -2.1398  1.8682
 5875TIP3   OH239259   5.247   6.438   7.950 -0.3080 -0.0179 -0.0137
 5875TIP3    H139260   5.284   6.525   7.967 -1.0045  0.0227  1.2977
 5875TIP3    H239261   5.282   6.414   7.864  3.1776 -0.2262  1.4134
 5876TIP3   OH239262   5.447   4.753   0.902  0.3668 -0.2352 -0.3584
 5876TIP3    H139263   5.507   4.826   0.886  1.7331 -1.0743  0.8277
 5876TIP3    H239264   5.366   4.778   0.856  1.8803  0.5177 -2.7190
 5877TIP3   OH239265   4.653   7.123   6.426  0.3991 -0.2146 -0.0828
 5877TIP3    H139266   4.733   7.121   6.478  0.1652  0.7911  0.3279
 5877TIP3    H239267   4.681   7.097   6.338  0.7706 -2.0504  0.5660
 5878TIP3   OH239268   5.880   4.052   0.331  0.5512  0.2211  0.0991
 5878TIP3    H139269   5.853   3.984   0.394  0.1514  1.6376  1.4857
 5878TIP3    H239270   5.973   4.063   0.347  0.4244  0.6709  0.5424
 5879TIP3   OH239271   0.858   2.141   7.995  0.0279 -0.2984  0.0900
 5879TIP3    H139272   0.864   2.198   7.919  0.1094 -1.2017 -0.5819
 5879TIP3    H239273   0.825   2.198   8.065 -1.3043  0.2033 -0.9506
 5880TIP3   OH239274   4.415   4.758   0.337  0.6261 -0.6252  0.2111
 5880TIP3    H139275   4.336   4.778   0.287  0.9245 -0.5710 -0.2509
 5880TIP3    H239276   4.429   4.664   0.321 -1.0848 -1.3873  2.8146
 5881TIP3   OH239277   3.046   4.304   2.000 -0.1312 -0.7010  0.2242
 5881TIP3    H139278   3.119   4.246   1.977  0.0346 -0.6332  0.5733
 5881TIP3    H239279   2.969   4.248   1.998  0.2226 -1.2933  2.0540
 5882TIP3   OH239280   3.130   4.983   2.054 -0.4720 -0.1485  0.3862
 5882TIP3    H139281   3.099   4.897   2.025 -0.7938  0.1560 -0.2039
 5882TIP3    H239282   3.222   4.986   2.027 -1.1256  0.6660 -1.9303
 5883TIP3   OH239283   4.075   1.311   0.211 -0.0304  0.1321  0.0353
 5883TIP3    H139284   4.158   1.344   0.247 -0.1097  0.7753 -0.3512
 5883TIP3    H239285   4.025   1.283   0.288  1.4505 -2.4557  0.1189
 5884TIP3   OH239286   3.423   4.842   1.591  0.1292  0.5412  0.0316
 5884TIP3    H139287   3.513   4.815   1.610  0.0540 -0.3269 -0.7738
 5884TIP3    H239288   3.425   4.869   1.499 -1.1424 -2.8286 -1.0768
 5885TIP3   OH239289   5.450   0.434   5.828 -0.3159  0.6202 -0.4641
 5885TIP3    H139290   5.529   0.478   5.857  0.1347 -0.6364  0.2869
 5885TIP3    H239291   5.415   0.490   5.759  0.8564  1.5347 -0.3394
 5886TIP3   OH239292   1.959   0.472   0.167  0.1061 -0.2366  0.1613
 5886TIP3    H139293   1.957   0.539   0.099 -0.8301 -1.1245 -0.7017
 5886TIP3    H239294   1.983   0.520   0.247 -0.8082  1.1815 -0.3806
 5887TIP3   OH239295   5.093   4.205   1.518  0.0760 -0.2303  0.4241
 5887TIP3    H139296   5.134   4.123   1.548 -0.0411 -0.8110 -0.9968
 5887TIP3    H239297   5.111   4.267   1.589  3.3520 -0.4868 -0.0964
 5888TIP3   OH239298   3.992   2.220   1.739 -0.0060 -0.6646 -0.1106
 5888TIP3    H139299   4.074   2.222   1.789  1.3673  1.0286 -2.3177
 5888TIP3    H239300   3.927   2.261   1.797  1.5495  1.2977  0.2974
 5889TIP3   OH239301   5.756   0.337   6.742 -0.7171  0.6364  0.2089
 5889TIP3    H139302   5.690   0.274   6.715 -0.6396  0.3629  0.6464
 5889TIP3    H239303   5.733   0.417   6.696 -2.0400  0.8721  1.2581
 5890TIP3   OH239304   6.553   6.411   7.090  0.2748 -0.0459  0.1068
 5890TIP3    H139305   6.637   6.404   7.136  1.4866  0.6440 -1.8736
 5890TIP3    H239306   6.499   6.342   7.127  2.3524 -1.7081  0.1759
 5891TIP3   OH239307   4.185   7.001   7.055  0.1188  0.0722  0.0444
 5891TIP3    H139308   4.134   6.922   7.037 -0.7662  1.0162 -1.7270
 5891TIP3    H239309   4.120   7.070   7.067  0.8459  0.3787  2.6254
 5892TIP3   OH239310   4.276   4.342   2.098 -0.2979  0.3602  0.0646
 5892TIP3    H139311   4.306   4.251   2.096 -0.8758  0.1560  0.6948
 5892TIP3    H239312   4.353   4.392   2.126 -1.0502 -0.3722  3.6091
 5893TIP3   OH239313   1.547   2.849   7.055  0.4193 -0.1366 -0.1066
 5893TIP3    H139314   1.568   2.841   7.148 -2.0568 -1.5709  0.3975
 5893TIP3    H239315   1.498   2.769   7.035  0.0183  0.6385 -2.3843
 5894TIP3   OH239316   5.733   3.515   2.055 -0.1126 -0.4251 -0.2853
 5894TIP3    H139317   5.799   3.466   2.105 -0.7173 -1.2235 -0.2560
 5894TIP3    H239318   5.681   3.447   2.012 -1.0585  0.1929 -0.1191
 5895TIP3   OH239319   0.206   2.507   0.639 -0.7510 -0.2524  0.2695
 5895TIP3    H139320   0.277   2.571   0.644 -0.7987 -0.2159  0.4865
 5895TIP3    H239321   0.129   2.554   0.671 -0.8898 -0.2671 -0.0428
 5896TIP3   OH239322   4.806   4.154   1.074  0.4879 -0.0702  0.0112
 5896TIP3    H139323   4.808   4.197   0.989  0.6206  1.2617  0.6663
 5896TIP3    H239324   4.891   4.111   1.082  0.0205 -1.1826 -1.0190
 5897TIP3   OH239325   3.449   5.911   1.255  0.2167 -0.2231  0.0517
 5897TIP3    H139326   3.431   5.828   1.211  0.7400 -0.8163  0.9299
 5897TIP3    H239327   3.457   5.975   1.184 -1.0822 -0.7394 -0.5867
 5898TIP3   OH239328   1.974   6.035   1.591  0.0058  0.4273 -0.5382
 5898TIP3    H139329   1.909   6.083   1.641 -0.8434 -1.0944 -0.1560
 5898TIP3    H239330   2.040   6.009   1.655  1.1776  2.2404 -0.9785
 5899TIP3   OH239331   5.193   0.482   8.103 -0.1599 -0.0699  0.6448
 5899TIP3    H139332   5.157   0.433   8.176 -1.3729  0.0069  0.1138
 5899TIP3    H239333   5.116   0.519   8.059  0.6030  0.5336 -0.1964
 5900TIP3   OH239334   5.536   3.760   7.870 -0.4748  0.0005  0.3030
 5900TIP3    H139335   5.572   3.687   7.919 -0.1700 -0.1146 -0.0889
 5900TIP3    H239336   5.445   3.737   7.853 -0.2138 -0.5639 -0.3488
 5901TIP3   OH239337   4.807   3.319   1.310  0.1236  0.1832 -0.0943
 5901TIP3    H139338   4.829   3.226   1.313 -0.0232  0.1696  0.7997
 5901TIP3    H239339   4.715   3.323   1.337  0.6982  0.7539  1.9447
 5902TIP3   OH239340   5.745   1.802   1.243  0.0824  0.0170 -0.3025
 5902TIP3    H139341   5.688   1.852   1.302  0.5642 -0.7119  0.7836
 5902TIP3    H239342   5.775   1.866   1.178 -0.1879  0.8888  0.4334
 5903TIP3   OH239343   6.134   4.608   1.833  0.3480 -0.2068 -0.2439
 5903TIP3    H139344   6.045   4.628   1.862  0.8287 -1.5633  2.3339
 5903TIP3    H239345   6.190   4.654   1.896  1.4317 -1.9572  0.1151
 5904TIP3   OH239346   5.259   4.984   1.849 -0.3535  0.3745 -0.5909
 5904TIP3    H139347   5.247   4.900   1.804  1.0484 -0.1492 -0.0357
 5904TIP3    H239348   5.187   4.988   1.912 -0.0034 -0.7928 -0.0925
 5905TIP3   OH239349   3.183   5.513   1.051 -0.1156 -0.1715 -0.1718
 5905TIP3    H139350   3.202   5.430   1.093  1.2774 -0.6347 -1.6825
 5905TIP3    H239351   3.107   5.494   0.995  0.2176 -0.4282 -0.5357
 5906TIP3   OH239352   3.996   5.778   8.033  0.2679 -0.0258 -0.2548
 5906TIP3    H139353   4.054   5.705   8.009 -0.9904 -1.5774  1.3286
 5906TIP3    H239354   4.056   5.848   8.059  1.4783 -0.8747 -0.6903
 5907TIP3   OH239355   5.205   2.191   0.145  0.1247  0.5687 -0.3558
 5907TIP3    H139356   5.121   2.238   0.141 -0.8411 -1.1548 -1.3661
 5907TIP3    H239357   5.199   2.127   0.074  1.2778 -1.2615  1.1720
 5908TIP3   OH239358   3.935   2.517   7.343 -0.2802  0.2844  0.2386
 5908TIP3    H139359   4.016   2.485   7.303 -1.1991 -0.6812 -0.8923
 5908TIP3    H239360   3.959   2.601   7.381  1.0496  0.4077 -0.8205
 5909TIP3   OH239361   4.501   3.801   1.043 -0.1349 -0.0015 -0.1874
 5909TIP3    H139362   4.533   3.876   1.093  1.7714 -1.0735  0.2515
 5909TIP3    H239363   4.500   3.830   0.952  0.4316  0.6168  0.0026
 5910TIP3   OH239364   4.812   2.422   0.965 -0.3704 -0.8919  0.1251
 5910TIP3    H139365   4.832   2.339   1.007 -1.2422 -1.3556 -0.3521
 5910TIP3    H239366   4.810   2.486   1.036 -0.9339 -1.5091  0.6693
 5911TIP3   OH239367   4.733   1.598   1.599  0.3506  0.2107  0.3518
 5911TIP3    H139368   4.789   1.549   1.659 -0.6097  2.0768  2.8845
 5911TIP3    H239369   4.788   1.669   1.566 -0.2465  1.6952  2.3882
 5912TIP3   OH239370   4.248   4.702   7.971  0.1830 -0.2105 -0.0007
 5912TIP3    H139371   4.323   4.723   7.915 -0.9450  2.2988 -0.6008
 5912TIP3    H239372   4.172   4.735   7.924 -1.0881 -0.6676  1.6827
 5913TIP3   OH239373   5.357   5.631   1.791 -0.2364 -0.3559  0.0850
 5913TIP3    H139374   5.365   5.718   1.752  1.4486  0.1169  1.4422
 5913TIP3    H239375   5.267   5.605   1.773 -1.2360  2.3218  1.0127
 5914TIP3   OH239376   6.667   2.018   0.799 -0.7323 -0.4831  0.0119
 5914TIP3    H139377   6.637   2.064   0.721  0.6693 -0.1873 -0.3616
 5914TIP3    H239378   6.715   1.942   0.766 -1.3842 -1.1788  0.6125
 5915TIP3   OH239379   6.000   3.707   7.272 -0.0898  0.0666  0.3207
 5915TIP3    H139380   5.913   3.747   7.280  1.3569  3.4201  0.0343
 5915TIP3    H239381   6.028   3.727   7.183  0.1638 -2.8800 -0.3342
 5916TIP3   OH239382   4.313   1.349   7.513 -0.0064  0.2331  0.3089
 5916TIP3    H139383   4.262   1.287   7.565  0.4082 -0.1586  0.2453
 5916TIP3    H239384   4.334   1.302   7.433 -0.3397  0.7165 -0.0697
 5917TIP3   OH239385   5.871   6.069   7.148 -0.7594 -0.0993 -0.7954
 5917TIP3    H139386   5.859   6.147   7.094 -1.5492 -0.6898 -1.4807
 5917TIP3    H239387   5.965   6.062   7.159 -0.4781 -0.8704 -3.4241
 5918TIP3   OH239388   4.878   3.505   0.115  0.2428 -0.2868  0.5800
 5918TIP3    H139389   4.881   3.559   0.037 -1.1532  0.1669  0.8418
 5918TIP3    H239390   4.969   3.502   0.145  0.8329 -0.6835 -1.1854
 5919TIP3   OH239391   2.775   3.368   1.563  0.3648 -0.0173 -0.5295
 5919TIP3    H139392   2.775   3.429   1.489 -0.0245  0.0880 -0.4426
 5919TIP3    H239393   2.867   3.362   1.589  0.4035  0.5089 -0.5560
 5920TIP3   OH239394   1.558   0.801   6.574 -0.4962  0.0524  0.7308
 5920TIP3    H139395   1.628   0.766   6.519 -1.0935  1.9769 -1.3414
 5920TIP3    H239396   1.599   0.815   6.659  0.8467 -1.6017  0.3820
 5921TIP3   OH239397   1.816   6.523   0.818 -0.1635 -0.2279  0.0961
 5921TIP3    H139398   1.755   6.507   0.890  0.4746 -0.2484  0.6371
 5921TIP3    H239399   1.840   6.436   0.787  1.3472 -0.3166  1.3869
 5922TIP3   OH239400   4.356   4.100   1.408  0.7560  0.1926  0.3043
 5922TIP3    H139401   4.354   4.008   1.434  1.4589 -0.2798 -1.2523
 5922TIP3    H239402   4.408   4.101   1.328 -0.5426  1.7321 -0.5552
 5923TIP3   OH239403   3.789   5.336   1.334 -0.2094 -0.3932  0.3406
 5923TIP3    H139404   3.794   5.243   1.355  0.9137 -0.3107  0.4871
 5923TIP3    H239405   3.881   5.366   1.335 -0.7473  1.3487  3.1803
 5924TIP3   OH239406   6.323   6.897   7.749 -0.6346 -0.3297  0.6567
 5924TIP3    H139407   6.280   6.921   7.831 -1.4495  0.6825 -0.0673
 5924TIP3    H239408   6.373   6.975   7.724 -1.3176 -0.2279 -0.4139
 5925TIP3   OH239409   5.500   5.552   6.293 -0.2101  0.3272  0.0331
 5925TIP3    H139410   5.512   5.592   6.207  0.9480 -1.3818 -0.6188
 5925TIP3    H239411   5.562   5.596   6.350 -1.5823  2.0718  0.2233
 5926TIP3   OH239412   2.419   3.254   0.037  0.2571 -0.1685  0.0828
 5926TIP3    H139413   2.400   3.347   0.032  0.3461 -0.0847  1.3982
 5926TIP3    H239414   2.444   3.238   0.128 -0.3435 -1.5794  0.0205
 5927TIP3   OH239415   6.450   0.847   7.892 -0.1026 -0.3439 -0.4798
 5927TIP3    H139416   6.541   0.861   7.917  1.0752 -0.6564 -4.2150
 5927TIP3    H239417   6.414   0.935   7.883  0.5703 -0.1510 -1.3833
 5928TIP3   OH239418   4.676   2.667   0.419  0.8664  0.3071  0.2346
 5928TIP3    H139419   4.764   2.650   0.452  0.6727 -1.1882  0.0365
 5928TIP3    H239420   4.688   2.730   0.349  1.9605 -0.9051 -0.6981
 5929TIP3   OH239421   2.724   1.674   8.044  0.1887 -0.5768  0.2184
 5929TIP3    H139422   2.801   1.684   8.099 -0.8089 -0.3547  1.5984
 5929TIP3    H239423   2.736   1.590   8.001  1.4100 -0.3383  0.0827
 5930TIP3   OH239424   3.393   5.277   1.907  0.1066 -0.0827  0.5219
 5930TIP3    H139425   3.441   5.302   1.828 -1.7344  1.4817 -0.1441
 5930TIP3    H239426   3.408   5.348   1.968 -0.6321 -0.0079  0.6204
 5931TIP3   OH239427   5.397   6.279   0.531 -0.1991  0.2900 -0.1465
 5931TIP3    H139428   5.341   6.340   0.578 -0.3046 -0.5638  0.8448
 5931TIP3    H239429   5.395   6.199   0.583  1.0366 -0.1160 -0.6969
 5932TIP3   OH239430   3.856   5.486   0.740 -0.2436  0.4419 -0.1591
 5932TIP3    H139431   3.796   5.487   0.665 -0.0033 -1.5385 -0.4040
 5932TIP3    H239432   3.821   5.417   0.797  1.2166 -0.0180  0.1879
 5933TIP3   OH239433   6.613   6.797   7.485  0.4364  0.0852  0.6696
 5933TIP3    H139434   6.633   6.748   7.405 -1.6146 -2.2545  1.5153
 5933TIP3    H239435   6.543   6.857   7.459 -0.5591 -1.0035  0.7733
 5934TIP3   OH239436   3.022   1.889   0.855  0.3355  0.7365 -0.4662
 5934TIP3    H139437   3.067   1.805   0.866  1.2110  1.1076 -1.1356
 5934TIP3    H239438   3.035   1.912   0.763  0.2012  1.6640 -0.2642
 5935TIP3   OH239439   4.306   5.643   1.381 -0.3469  0.0976 -0.4190
 5935TIP3    H139440   4.247   5.617   1.451  0.3738 -0.7086 -0.0990
 5935TIP3    H239441   4.263   5.612   1.301 -0.9872  0.6822 -0.2982
 5936TIP3   OH239442   4.537   3.874   0.670  0.2099  0.6190  0.0527
 5936TIP3    H139443   4.556   3.886   0.577 -0.1530  0.6979 -0.0097
 5936TIP3    H239444   4.444   3.852   0.673 -0.0823  1.8764  0.4985
 5937TIP3   OH239445   4.854   3.583   1.344 -0.6150 -0.3384  0.6851
 5937TIP3    H139446   4.888   3.561   1.431 -1.1365 -1.3650  0.6292
 5937TIP3    H239447   4.816   3.502   1.311  1.5168 -0.5292 -1.4208
 5938TIP3   OH239448   6.035   1.661   0.288 -0.1465 -0.0107  0.1971
 5938TIP3    H139449   6.056   1.650   0.381  0.0380  0.2444  0.1856
 5938TIP3    H239450   6.048   1.754   0.271 -1.0636  0.1091  0.1281
 5939TIP3   OH239451   4.937   3.685   8.067  0.0657  0.0847  0.1907
 5939TIP3    H139452   4.853   3.730   8.064  0.5141  1.0160  1.3223
 5939TIP3    H239453   4.992   3.734   8.005 -0.5300 -1.2150 -1.4196
 5940TIP3   OH239454   4.194   5.965   8.110  0.1055  0.2823  0.0190
 5940TIP3    H139455   4.210   6.022   8.034 -0.0011 -0.6234 -0.6936
 5940TIP3    H239456   4.278   5.922   8.125  0.0195  0.1651  0.1643
 5941TIP3   OH239457   4.244   4.447   0.286 -0.0335  0.3536  0.7797
 5941TIP3    H139458   4.270   4.499   0.210  0.4214  0.8298  1.2595
 5941TIP3    H239459   4.316   4.384   0.297 -0.0673  0.3272  0.8511
 5942TIP3   OH239460   3.411   4.547   7.743  0.1057  0.1237  0.2401
 5942TIP3    H139461   3.369   4.522   7.825 -1.3401  1.5776 -0.0414
 5942TIP3    H239462   3.354   4.511   7.674  0.8545 -0.3500 -0.1446
 5943TIP3   OH239463   0.259   4.259   7.148 -0.2958 -0.4680  0.4159
 5943TIP3    H139464   0.261   4.301   7.235 -2.7251 -0.1572  0.3746
 5943TIP3    H239465   0.297   4.324   7.089  3.7053 -1.6480  1.5624
 5944TIP3   OH239466   4.899   3.043   1.703  0.0892 -0.0747 -0.4414
 5944TIP3    H139467   4.952   3.093   1.764 -1.6326  0.1200  0.9544
 5944TIP3    H239468   4.880   2.961   1.750 -1.0365 -0.0324 -0.8124
 5945TIP3   OH239469   5.233   5.014   7.222 -0.3656  0.1406 -0.5226
 5945TIP3    H139470   5.180   5.089   7.249 -1.2772 -0.1989 -1.3358
 5945TIP3    H239471   5.231   5.016   7.126 -2.1909 -2.1061 -0.6010
 5946TIP3   OH239472   3.720   5.483   1.553  0.1143  0.0993  0.4917
 5946TIP3    H139473   3.773   5.444   1.622  1.8021 -0.9802 -1.3608
 5946TIP3    H239474   3.746   5.436   1.474  0.2889  3.1700 -1.3572
 5947TIP3   OH239475   5.597   4.324   7.384  0.3203  0.3774 -0.2915
 5947TIP3    H139476   5.509   4.340   7.418  0.2487 -1.8373  0.6798
 5947TIP3    H239477   5.583   4.277   7.302  0.6006 -0.0679 -0.0847
 5948TIP3   OH239478   4.294   7.000   0.576  0.1958 -0.0197 -0.2985
 5948TIP3    H139479   4.260   6.947   0.648 -0.6763 -0.2830 -0.8966
 5948TIP3    H239480   4.389   6.989   0.582  0.1616  0.4482  1.1654
 5949TIP3   OH239481   0.866   3.147   1.142 -0.2467  0.2163 -0.5188
 5949TIP3    H139482   0.932   3.190   1.087 -0.1254 -1.0223 -1.3649
 5949TIP3    H239483   0.801   3.114   1.080 -1.3313  0.8609  0.2706
 5950TIP3   OH239484   6.190   6.621   1.085  0.4927 -0.3123  0.5446
 5950TIP3    H139485   6.100   6.651   1.081  0.0066 -1.7885  0.1466
 5950TIP3    H239486   6.192   6.560   1.159  1.2819  0.0781  0.8599
 5951TIP3   OH239487   4.243   3.555   7.266  0.0390  0.2023  0.0851
 5951TIP3    H139488   4.279   3.630   7.218 -1.9807  1.6094  0.7178
 5951TIP3    H239489   4.172   3.523   7.210 -0.0667 -0.2935  0.5047
 5952TIP3   OH239490   2.193   4.060   7.292 -0.2032 -0.6582 -0.2991
 5952TIP3    H139491   2.265   4.120   7.311  1.1283 -1.6409 -2.0271
 5952TIP3    H239492   2.213   3.982   7.343 -1.3864 -0.0280  1.1488
 5953TIP3   OH239493   3.789   3.744   2.269  0.1920 -0.2588  0.4009
 5953TIP3    H139494   3.734   3.778   2.339  1.8674 -0.1771  1.6926
 5953TIP3    H239495   3.741   3.764   2.189 -1.8072 -0.4753  1.5186
 5954TIP3   OH239496   6.418   6.745   0.828  0.5614 -0.1819 -0.3523
 5954TIP3    H139497   6.434   6.652   0.812  0.6502 -0.0664 -0.9509
 5954TIP3    H239498   6.483   6.790   0.773  1.4850  0.2162  1.0403
 5955TIP3   OH239499   6.435   3.701   7.981 -0.1286  0.2377 -0.1469
 5955TIP3    H139500   6.514   3.752   7.996  0.2571  0.3005 -2.2770
 5955TIP3    H239501   6.445   3.624   8.038 -0.6144  2.3362  2.9142
 5956TIP3   OH239502   5.451   6.435   7.298 -0.7658  0.3311  0.2518
 5956TIP3    H139503   5.410   6.471   7.220  0.1517 -1.4184 -1.0806
 5956TIP3    H239504   5.537   6.478   7.302  0.2114 -1.3976 -1.1758
 5957TIP3   OH239505   1.030   2.321   0.058 -0.0555 -0.2090  0.2096
 5957TIP3    H139506   1.074   2.267  -0.008  0.7401  0.4100  0.2236
 5957TIP3    H239507   1.054   2.281   0.141  2.4518  1.4835  0.3699
 5958TIP3   OH239508   0.369   5.582   0.949  0.3449 -0.0077  0.1150
 5958TIP3    H139509   0.444   5.532   0.980  0.2448 -1.3989 -1.8259
 5958TIP3    H239510   0.357   5.555   0.858 -0.9844  2.0307 -0.3598
 5959TIP3   OH239511   5.112   4.257   1.967  0.2212  0.3457  0.3571
 5959TIP3    H139512   5.146   4.177   1.928  0.3304  0.7249 -0.3422
 5959TIP3    H239513   5.140   4.253   2.058 -2.0245 -1.6571  0.9980
 5960TIP3   OH239514   6.038   5.990   6.922 -0.3294  0.4119  0.9138
 5960TIP3    H139515   6.010   6.082   6.917 -1.0429  0.1801  0.6083
 5960TIP3    H239516   5.977   5.943   6.865 -0.3232 -0.3368  1.5182
 5961TIP3   OH239517   5.474   4.851   6.786  0.4714  0.3506 -0.2599
 5961TIP3    H139518   5.470   4.756   6.792  0.4952  0.4564  1.9181
 5961TIP3    H239519   5.383   4.878   6.770  0.1181  0.0496  1.1231
 5962TIP3   OH239520   6.944   3.807   1.458  0.2137  0.2970 -0.0306
 5962TIP3    H139521   6.864   3.841   1.500  1.4534  0.5550  2.1902
 5962TIP3    H239522   6.950   3.717   1.489  1.3161  0.5924  0.6526
 5963TIP3   OH239523   3.714   6.585   1.837 -0.2879 -0.5934  0.4634
 5963TIP3    H139524   3.619   6.573   1.841 -0.2937 -0.3546  1.1414
 5963TIP3    H239525   3.733   6.598   1.745 -1.1966  1.6214  0.5693
 5964TIP3   OH239526   5.817   6.310   0.515 -0.3875  0.0639 -0.8051
 5964TIP3    H139527   5.901   6.273   0.490 -0.4796  0.8981 -2.3883
 5964TIP3    H239528   5.839   6.381   0.575 -0.1344 -1.5289  1.0373
 5965TIP3   OH239529   4.980   6.451   0.596  0.2771 -0.2794 -0.4118
 5965TIP3    H139530   4.892   6.452   0.558  0.7186  0.5465 -1.4351
 5965TIP3    H239531   5.009   6.361   0.587 -0.6408 -0.6607  0.3544
 5966TIP3   OH239532   3.500   4.920   0.711  0.2047  0.2392 -0.8045
 5966TIP3    H139533   3.433   4.856   0.688  1.5672 -1.1747 -0.9572
 5966TIP3    H239534   3.492   4.989   0.646 -0.4943 -0.3752 -1.3634
 5967TIP3   OH239535   5.358   6.669   7.985 -0.6478  0.4008 -0.2480
 5967TIP3    H139536   5.439   6.646   7.939 -0.5932  0.6597 -0.2813
 5967TIP3    H239537   5.384   6.677   8.077 -0.8683 -0.6893 -0.0818
 5968TIP3   OH239538   2.945   2.791   8.061  0.4921  0.2529  0.1128
 5968TIP3    H139539   2.947   2.878   8.021  0.5189  0.2811  0.1758
 5968TIP3    H239540   3.002   2.738   8.005 -0.6904 -0.0889 -0.7795
 5969TIP3   OH239541   6.108   5.112   1.312 -0.8742 -0.6294  0.2134
 5969TIP3    H139542   6.114   5.140   1.404  0.4014  1.8245 -0.5795
 5969TIP3    H239543   6.148   5.025   1.310 -0.3863 -0.4567  1.8786
 5970TIP3   OH239544   4.986   4.939   1.917 -0.1576  0.4987  0.6019
 5970TIP3    H139545   4.980   4.844   1.916 -1.3355  0.5867 -0.9783
 5970TIP3    H239546   4.900   4.969   1.947  0.0196  1.0808  0.5449
 5971TIP3   OH239547   3.969   4.666   2.106  0.0852  0.2142  0.2896
 5971TIP3    H139548   4.000   4.720   2.179  2.1265 -1.0033  0.3634
 5971TIP3    H239549   3.908   4.604   2.147  0.1870  0.4115  0.7454
 5972TIP3   OH239550   5.486   5.062   1.225 -0.8627  0.3639 -0.1570
 5972TIP3    H139551   5.475   4.970   1.198 -0.2901 -0.3516  1.9855
 5972TIP3    H239552   5.572   5.064   1.267 -1.1152  1.7734  0.2943
 5973TIP3   OH239553   0.499   2.381   0.832 -0.1446  0.3866 -0.4408
 5973TIP3    H139554   0.563   2.436   0.877 -1.8551 -0.7328  3.6037
 5973TIP3    H239555   0.515   2.293   0.864 -1.5371 -0.4641 -1.9889
 5974TIP3   OH239556   4.260   6.462   7.053  0.2346  0.1740 -0.3460
 5974TIP3    H139557   4.294   6.538   7.004  1.7196 -0.7451 -0.7640
 5974TIP3    H239558   4.167   6.482   7.065  0.6358  2.1695 -0.2698
 5975TIP3   OH239559   6.785   3.924   6.617  0.2225 -0.2260 -0.4330
 5975TIP3    H139560   6.718   3.982   6.580 -0.3881 -1.3565 -1.1388
 5975TIP3    H239561   6.865   3.975   6.615 -1.0391  2.0065  2.5876
 5976TIP3   OH239562   4.990   2.905   1.307 -0.4827 -0.1363  0.7340
 5976TIP3    H139563   5.018   2.818   1.281  1.4696  0.6339  0.2215
 5976TIP3    H239564   5.071   2.953   1.323 -1.5333  1.6431  0.8333
 5977TIP3   OH239565   5.300   2.271   1.451  0.4182  0.6519 -0.4894
 5977TIP3    H139566   5.224   2.220   1.421  1.2983 -1.2421  0.3987
 5977TIP3    H239567   5.263   2.354   1.480 -1.3305 -0.2512 -0.0698
 5978TIP3   OH239568   4.196   6.111   1.557  0.5748 -0.7208  0.0052
 5978TIP3    H139569   4.255   6.045   1.595  0.4212 -1.1338 -0.4815
 5978TIP3    H239570   4.209   6.188   1.613 -1.2651 -1.9818  2.2643
 5979TIP3   OH239571   4.305   3.686   0.426 -0.4651 -0.4884  0.2460
 5979TIP3    H139572   4.234   3.747   0.407 -0.9656 -0.8148  1.0433
 5979TIP3    H239573   4.385   3.734   0.406 -0.9274 -0.3058 -1.2051
 5980TIP3   OH239574   2.249   5.491   1.752 -0.5148  0.0942  0.0034
 5980TIP3    H139575   2.184   5.422   1.745 -0.6782  0.2667 -0.2180
 5980TIP3    H239576   2.317   5.456   1.809 -1.3249  0.3202  1.1119
 5981TIP3   OH239577   6.697   6.600   0.722 -0.5270  0.2860 -0.0213
 5981TIP3    H139578   6.707   6.684   0.767  0.5390  0.9396 -1.4226
 5981TIP3    H239579   6.682   6.536   0.792  0.8828  1.3132  1.2527
 5982TIP3   OH239580   6.732   6.498   1.116 -0.1531 -0.2589 -0.7900
 5982TIP3    H139581   6.669   6.473   1.183  0.3281  2.1036  0.6195
 5982TIP3    H239582   6.809   6.444   1.135 -0.6091 -0.8250 -0.5152
 5983TIP3   OH239583   5.043   3.261   6.704 -0.7425 -0.5973  0.3405
 5983TIP3    H139584   4.975   3.306   6.754 -0.6555 -1.4588  1.2492
 5983TIP3    H239585   5.123   3.310   6.724 -0.7955 -0.6393  0.6643
 5984TIP3   OH239586   4.153   5.434   1.680 -0.7292  0.5438 -0.2206
 5984TIP3    H139587   4.174   5.391   1.598  1.9683  1.2870  0.0310
 5984TIP3    H239588   4.201   5.517   1.677 -0.5306  0.5567  2.1097
 5985TIP3   OH239589   5.153   4.662   1.414  0.5212  0.5605  0.0292
 5985TIP3    H139590   5.077   4.626   1.458 -0.2027 -0.0061 -1.6535
 5985TIP3    H239591   5.226   4.609   1.445  0.0419  0.2727  0.6673
 5986TIP3   OH239592   1.717   5.172   1.372  0.2321  0.2362 -0.4234
 5986TIP3    H139593   1.751   5.120   1.445 -1.0051 -0.7285 -0.5076
 5986TIP3    H239594   1.787   5.171   1.307  0.3466 -1.0978 -0.2973
 5987TIP3   OH239595   2.078   4.791   7.757 -0.2825  0.4824  0.6237
 5987TIP3    H139596   2.084   4.786   7.662 -1.4867 -0.5209  0.5926
 5987TIP3    H239597   1.987   4.812   7.775  0.1060  1.4544  1.5387
 5988TIP3   OH239598   4.326   5.684   6.872  0.0143  0.2252 -0.0558
 5988TIP3    H139599   4.330   5.731   6.789  0.1197  0.0098 -0.1747
 5988TIP3    H239600   4.317   5.752   6.938  1.2722  0.4765 -0.1375
 5989TIP3   OH239601   3.701   1.174   7.531 -0.6397 -0.3776  0.4697
 5989TIP3    H139602   3.672   1.172   7.622  0.2716 -1.2052  0.7443
 5989TIP3    H239603   3.785   1.128   7.531 -0.6658 -0.4495 -0.8026
 5990TIP3   OH239604   5.070   3.990   2.215  0.0149  0.3346  0.4694
 5990TIP3    H139605   5.003   3.993   2.283 -0.2361  1.0156  0.1965
 5990TIP3    H239606   5.031   3.942   2.143 -0.8983  2.3643 -0.4424
 5991TIP3   OH239607   2.394   4.631   1.768  0.3611 -0.1477 -0.0950
 5991TIP3    H139608   2.395   4.714   1.815  0.2969 -0.4543  0.4602
 5991TIP3    H239609   2.461   4.640   1.701  0.9188  0.0638  0.4838
 5992TIP3   OH239610   6.654   3.755   7.527  0.3071  0.0033 -0.9190
 5992TIP3    H139611   6.703   3.789   7.602 -0.8377  1.4624 -0.7975
 5992TIP3    H239612   6.653   3.660   7.540  0.6071  0.1867  0.6044
 5993TIP3   OH239613   4.198   7.051   6.663 -0.2683 -0.4346  0.1377
 5993TIP3    H139614   4.128   7.101   6.622  0.5558 -0.3274 -1.1904
 5993TIP3    H239615   4.218   7.099   6.744 -1.8352 -0.5812  0.6247
 5994TIP3   OH239616   4.702   4.398   1.192  0.3918 -1.3138  0.3129
 5994TIP3    H139617   4.730   4.347   1.116  2.3023  0.8219 -0.5206
 5994TIP3    H239618   4.762   4.373   1.261  3.2987  1.7872 -0.9126
 5995TIP3   OH239619   3.125   4.514   0.080  0.0469 -0.0841 -0.4175
 5995TIP3    H139620   3.041   4.491   0.119  0.9500 -1.1987  0.9320
 5995TIP3    H239621   3.134   4.609   0.094  0.2273 -0.4183  1.8841
 5996TIP3   OH239622   3.707   4.882   6.802 -0.2271  0.0909 -0.2646
 5996TIP3    H139623   3.769   4.841   6.742 -1.0696 -2.5125  0.5823
 5996TIP3    H239624   3.629   4.827   6.798 -1.1361  1.1776  1.5120
 5997TIP3   OH239625   4.779   3.119   7.002  0.1595  0.1850 -0.0588
 5997TIP3    H139626   4.778   3.103   7.096  3.1571 -0.3401 -0.0551
 5997TIP3    H239627   4.744   3.207   6.992  0.3953  0.4841  1.5982
 5998TIP3   OH239628   3.320   4.401   7.127 -0.0568  0.0838 -0.5109
 5998TIP3    H139629   3.343   4.363   7.042 -0.9466  0.0939 -0.7661
 5998TIP3    H239630   3.364   4.486   7.128  1.2557 -0.5890 -0.2899
 5999TIP3   OH239631   2.313   2.842   1.081  0.0758 -0.4713 -0.6309
 5999TIP3    H139632   2.381   2.889   1.032 -0.1585  0.0553 -0.4572
 5999TIP3    H239633   2.349   2.830   1.168 -1.5483  3.2455  0.6272
 6000TIP3   OH239634   1.557   4.112   1.242 -0.1353  0.5958 -0.6499
 6000TIP3    H139635   1.491   4.053   1.278 -0.1607  1.5599  0.9114
 6000TIP3    H239636   1.516   4.150   1.164 -1.2837  0.9465  0.1360
 6001TIP3   OH239637   3.825   5.627   7.837 -0.2344  0.5950  0.6869
 6001TIP3    H139638   3.755   5.587   7.887 -1.0476  0.3556 -0.6272
 6001TIP3    H239639   3.878   5.673   7.902 -0.3215 -1.0869  1.9724
 6002TIP3   OH239640   3.265   6.141   1.357 -0.0591  0.7368  0.5874
 6002TIP3    H139641   3.357   6.146   1.333 -0.0400  0.7430  0.6629
 6002TIP3    H239642   3.260   6.074   1.425 -0.1717  0.4506  0.2962
 6003TIP3   OH239643   5.653   4.227   6.907 -0.0149  0.1447 -0.1066
 6003TIP3    H139644   5.581   4.279   6.872  1.0428  0.3617 -2.0376
 6003TIP3    H239645   5.654   4.148   6.853  0.9235 -0.0551  0.1975
 6004TIP3   OH239646   5.720   5.165   6.918  0.0243  0.0075  0.0409
 6004TIP3    H139647   5.712   5.129   6.830 -0.4091 -0.0713  0.1086
 6004TIP3    H239648   5.768   5.099   6.967 -0.9976 -0.6114  0.2319
 6005TIP3   OH239649   2.649   0.081   7.970  0.1053 -0.1756  0.4025
 6005TIP3    H139650   2.737   0.116   7.978 -0.8129  2.1572  0.8805
 6005TIP3    H239651   2.649   0.034   7.887  1.3007  1.3499 -0.4913
 6006TIP3   OH239652   3.264   4.116   6.158  0.1588 -0.0117 -0.2821
 6006TIP3    H139653   3.308   4.076   6.232 -0.6996  0.9079  0.7406
 6006TIP3    H239654   3.295   4.206   6.157  1.3252 -0.4060 -1.9666
 6007TIP3   OH239655   3.238   6.635   1.150  0.2738  0.1210 -0.4178
 6007TIP3    H139656   3.208   6.681   1.228 -0.1770 -2.6070  1.0303
 6007TIP3    H239657   3.287   6.560   1.182  3.5717  1.1253 -2.7545
 6008TIP3   OH239658   1.228   5.688   6.196  0.3411  0.1716  0.2073
 6008TIP3    H139659   1.234   5.772   6.152 -1.7534  0.8186  1.1021
 6008TIP3    H239660   1.250   5.706   6.287 -2.2086  0.1882  0.8517
 6009TIP3   OH239661   3.586   2.060   1.027  0.0873 -0.1008 -0.0067
 6009TIP3    H139662   3.504   2.022   0.996  0.1157 -0.6479  0.5765
 6009TIP3    H239663   3.653   1.996   1.002  0.0849 -0.6477  1.3480
 6010TIP3   OH239664   3.707   3.492   1.627 -0.0814 -0.4172  0.1944
 6010TIP3    H139665   3.688   3.442   1.707 -3.0732 -0.9211 -0.7552
 6010TIP3    H239666   3.649   3.454   1.561 -0.0117  2.1480 -1.4030
 6011TIP3   OH239667   0.388   3.660   1.469  0.0465 -0.4325 -0.1447
 6011TIP3    H139668   0.401   3.665   1.564  0.6863  0.9391 -0.2838
 6011TIP3    H239669   0.467   3.618   1.435  0.9272  1.3096 -0.2937
 6012TIP3   OH239670   0.420   1.754   0.463 -0.6130 -0.2659  0.1931
 6012TIP3    H139671   0.480   1.791   0.528  1.8076 -0.6761 -1.7077
 6012TIP3    H239672   0.360   1.825   0.442  2.4803  1.9202 -1.6612
 6013TIP3   OH239673   3.456   2.160   0.710 -0.0285 -0.2801  0.4641
 6013TIP3    H139674   3.403   2.207   0.775 -1.9543  0.2370 -1.4225
 6013TIP3    H239675   3.438   2.205   0.627  1.5872 -1.5620 -0.6217
 6014TIP3   OH239676   3.020   4.594   2.238  0.0795  0.2309 -0.5899
 6014TIP3    H139677   3.098   4.541   2.253 -0.2147 -0.4645 -1.4888
 6014TIP3    H239678   2.948   4.532   2.240 -0.2614  0.5828 -1.7200
 6015TIP3   OH239679   5.765   6.729   1.694  0.2018  0.2881  0.0389
 6015TIP3    H139680   5.742   6.761   1.782  1.3770  0.8568  0.1491
 6015TIP3    H239681   5.858   6.707   1.700 -0.4864 -2.9708 -0.1004
 6016TIP3   OH239682   2.814   4.264   0.597 -0.5376 -0.1727 -0.0661
 6016TIP3    H139683   2.875   4.213   0.543 -0.4938 -0.7213  0.5006
 6016TIP3    H239684   2.774   4.325   0.535 -0.7047 -0.9970 -0.7818
 6017TIP3   OH239685   5.426   3.608   2.046  0.1048 -0.2332  0.6681
 6017TIP3    H139686   5.481   3.687   2.054 -0.2926  0.0028  1.1128
 6017TIP3    H239687   5.489   3.536   2.047  0.3607 -0.0184  2.2036
 6018TIP3   OH239688   5.717   7.022   0.272  0.1588  0.1741  0.4952
 6018TIP3    H139689   5.671   7.021   0.189 -0.5198 -0.7289  0.8698
 6018TIP3    H239690   5.782   7.092   0.264 -0.2642  0.4370 -0.5877
 6019TIP3   OH239691   2.940   4.088   1.758 -0.0121 -0.3685  0.2878
 6019TIP3    H139692   2.931   3.996   1.785 -0.9278 -0.0140  1.1883
 6019TIP3    H239693   2.854   4.127   1.774  0.0723  0.4018 -1.0689
 6020TIP3   OH239694   4.760   3.623   0.894  0.0138 -0.7440 -0.2677
 6020TIP3    H139695   4.767   3.718   0.900  0.1381 -0.6449 -1.8189
 6020TIP3    H239696   4.847   3.591   0.916  0.3307 -0.4187 -1.0020
 6021TIP3   OH239697   0.385   0.630   1.471  0.8773 -0.3054  0.3662
 6021TIP3    H139698   0.399   0.536   1.483 -1.2073 -0.8649 -1.2955
 6021TIP3    H239699   0.290   0.641   1.473  1.1316  1.9284  1.5494
 6022TIP3   OH239700   5.259   2.457   8.115  0.4081 -0.8198 -0.7443
 6022TIP3    H139701   5.242   2.424   8.203 -0.9842 -0.6695 -0.9428
 6022TIP3    H239702   5.193   2.415   8.060  1.2885 -0.9342 -1.7253
 6023TIP3   OH239703   2.648   1.753   7.344 -0.1099  0.0111 -0.2303
 6023TIP3    H139704   2.593   1.802   7.284  0.8578  1.9614  0.4123
 6023TIP3    H239705   2.699   1.695   7.288 -0.2544  0.7779 -1.1709
 6024TIP3   OH239706   6.040   5.129   6.588  0.0991 -0.2812  0.0390
 6024TIP3    H139707   6.093   5.157   6.514 -0.4215 -0.8585 -0.5633
 6024TIP3    H239708   6.012   5.210   6.630 -3.5943  0.2881 -3.2401
 6025TIP3   OH239709   6.183   1.891   0.230  0.3424  0.2771 -0.5238
 6025TIP3    H139710   6.193   1.970   0.177  0.3285  0.8409  0.2984
 6025TIP3    H239711   6.267   1.880   0.274 -0.1013  0.6175  0.4176
 6026TIP3   OH239712   1.223   4.864   8.062  0.4614 -0.3046 -0.4457
 6026TIP3    H139713   1.210   4.959   8.067 -0.8096 -0.5599  1.5256
 6026TIP3    H239714   1.305   4.854   8.013 -0.4229  1.7274 -2.4137
 6027TIP3   OH239715   0.265   4.168   1.295  0.2679  0.0752 -0.1478
 6027TIP3    H139716   0.298   4.114   1.367 -1.0796 -2.3155 -1.3063
 6027TIP3    H239717   0.342   4.185   1.241  1.1163  1.1621  1.3564
 6028TIP3   OH239718   4.410   0.774   7.580 -0.4849 -0.3771  0.3965
 6028TIP3    H139719   4.502   0.749   7.590 -0.3548 -0.0774  0.0114
 6028TIP3    H239720   4.362   0.692   7.584 -0.1077 -0.6446 -0.3655
 6029TIP3   OH239721   5.991   5.777   2.020 -0.0641  0.1173  0.3513
 6029TIP3    H139722   6.053   5.754   1.951 -1.3000  0.6024 -0.9316
 6029TIP3    H239723   6.045   5.781   2.099  1.2687 -1.0162 -0.4618
 6030TIP3   OH239724   4.690   5.479   7.613  0.1174  0.4584 -0.1082
 6030TIP3    H139725   4.755   5.533   7.658  1.0435  0.6130 -1.6093
 6030TIP3    H239726   4.654   5.537   7.545 -0.0156 -0.3144 -0.6977
 6031TIP3   OH239727   6.720   0.676   0.063  0.3665 -0.5059 -0.6014
 6031TIP3    H139728   6.630   0.644   0.074 -0.1285  0.6930 -1.0613
 6031TIP3    H239729   6.773   0.597   0.059 -0.7098 -1.2415 -0.6787
 6032TIP3   OH239730   4.506   0.201   7.146  0.5986 -0.8682 -0.5463
 6032TIP3    H139731   4.573   0.182   7.080  2.0178 -0.5216  0.7435
 6032TIP3    H239732   4.539   0.158   7.225 -0.1181  0.3193  0.4078
 6033TIP3   OH239733   5.663   3.709   2.419 -0.1479 -0.0072 -0.0644
 6033TIP3    H139734   5.754   3.738   2.417  0.1051 -0.7829  0.0871
 6033TIP3    H239735   5.668   3.614   2.426 -0.9599 -0.1624 -1.3727
 6034TIP3   OH239736   3.868   6.729   7.173  0.5074  0.1923 -0.0218
 6034TIP3    H139737   3.953   6.745   7.131  0.8119 -2.7405 -0.6603
 6034TIP3    H239738   3.815   6.690   7.103 -0.2109 -1.2250  1.2952
 6035TIP3   OH239739   6.938   4.917   0.829 -0.7831  0.1993  0.3419
 6035TIP3    H139740   6.872   4.879   0.770  1.2107 -1.0585 -1.1473
 6035TIP3    H239741   7.005   4.952   0.771  0.0065  1.2522  1.8443
 6036TIP3   OH239742   0.673   2.878   0.427 -0.0495 -0.3456  0.1700
 6036TIP3    H139743   0.761   2.876   0.465 -0.5239  2.8058  1.5803
 6036TIP3    H239744   0.648   2.786   0.420  3.6888 -1.3594 -1.1193
 6037TIP3   OH239745   5.624   2.864   6.617 -0.4339  0.3120 -0.0128
 6037TIP3    H139746   5.596   2.954   6.607 -0.6360  0.1889 -0.5528
 6037TIP3    H239747   5.585   2.835   6.700  1.9747  1.6091  1.6372
 6038TIP3   OH239748   6.541   4.062   7.713 -0.0062  0.1180  0.1513
 6038TIP3    H139749   6.534   4.134   7.651 -1.7391  0.9934  1.3242
 6038TIP3    H239750   6.457   4.016   7.706 -0.7744  1.0256  2.7730
 6039TIP3   OH239751   0.693   1.897   0.215 -0.3377  0.3291 -0.0035
 6039TIP3    H139752   0.742   1.841   0.275 -0.7132 -0.8645 -0.8002
 6039TIP3    H239753   0.759   1.958   0.180  0.2570 -0.2230  0.1532
 6040TIP3   OH239754   0.698   6.402   1.482  0.1857 -0.0184  0.1875
 6040TIP3    H139755   0.607   6.427   1.499  0.6182  1.5489  0.2770
 6040TIP3    H239756   0.717   6.335   1.548 -0.6848  0.1600  0.6307
 6041TIP3   OH239757   0.257   4.111   0.266 -0.1641  0.4220  0.1976
 6041TIP3    H139758   0.178   4.080   0.224 -0.0154 -0.0771  0.2861
 6041TIP3    H239759   0.298   4.032   0.302  0.7310  0.5770 -0.4601
 6042TIP3   OH239760   0.950   0.903   7.887 -0.1823 -0.1072  0.2288
 6042TIP3    H139761   1.026   0.894   7.828  0.2991 -2.3932  1.1605
 6042TIP3    H239762   0.924   0.995   7.877  1.2166  0.1136 -1.9216
 6043TIP3   OH239763   5.781   3.772   2.071 -0.0934 -0.0814 -0.6505
 6043TIP3    H139764   5.832   3.773   1.990  1.0269 -0.7869  0.0452
 6043TIP3    H239765   5.745   3.684   2.076 -0.8486  0.2068 -0.7800
 6044TIP3   OH239766   4.042   5.651   1.841 -0.3164  0.4901 -0.3213
 6044TIP3    H139767   4.106   5.677   1.907  0.8886  0.4891 -1.4696
 6044TIP3    H239768   3.979   5.596   1.888  1.0159 -0.2404  0.6391
 6045TIP3   OH239769   5.791   3.952   1.177  0.3184  0.3074 -0.0465
 6045TIP3    H139770   5.805   4.030   1.123 -2.0345  0.5477 -0.3842
 6045TIP3    H239771   5.779   3.881   1.115  0.2964  0.0824  0.2146
 6046TIP3   OH239772   0.606   0.586   7.485 -0.2095 -1.0239  0.1009
 6046TIP3    H139773   0.633   0.571   7.576 -0.4982 -1.0097  0.1887
 6046TIP3    H239774   0.670   0.650   7.451 -0.6792 -0.2877  0.5887
 6047TIP3   OH239775   7.042   4.327   7.012 -0.2044  0.3400 -0.2333
 6047TIP3    H139776   7.021   4.242   6.973 -0.3755  1.1747 -2.0036
 6047TIP3    H239777   7.136   4.336   7.000 -0.1245  0.2219  0.3127
 6048TIP3   OH239778   4.737   5.592   1.551 -0.1196  0.1567 -0.2259
 6048TIP3    H139779   4.745   5.554   1.638  2.6224  0.1032 -0.4308
 6048TIP3    H239780   4.660   5.649   1.556  0.3299  0.6058  2.4130
 6049TIP3   OH239781   1.511   4.207   8.055  0.3945 -0.3443 -0.2058
 6049TIP3    H139782   1.480   4.178   7.969  1.7597 -0.5478 -0.6532
 6049TIP3    H239783   1.500   4.302   8.054 -1.6049 -0.5574  0.2361
 6050TIP3   OH239784   5.497   6.587   1.798 -0.3249  0.0761 -0.4729
 6050TIP3    H139785   5.574   6.644   1.795 -0.0154 -0.3416 -0.4767
 6050TIP3    H239786   5.507   6.537   1.879  1.1176 -2.3540 -2.0938
 6051TIP3   OH239787   0.693   6.464   6.961  0.0557  0.0406  0.6463
 6051TIP3    H139788   0.632   6.438   6.892  0.2834 -2.1224  1.2233
 6051TIP3    H239789   0.767   6.502   6.915 -0.0324 -0.9035 -0.2805
 6052TIP3   OH239790   6.226   3.924   7.993  0.5695 -0.4362 -0.6747
 6052TIP3    H139791   6.156   3.918   7.928  0.1692 -0.3718 -0.2516
 6052TIP3    H239792   6.286   3.853   7.970  0.1749 -0.7297 -0.8150
 6053TIP3   OH239793   6.137   4.548   6.377  0.0262 -0.6452  0.6310
 6053TIP3    H139794   6.127   4.643   6.378 -1.0771 -0.7349 -0.3736
 6053TIP3    H239795   6.096   4.519   6.459 -0.2195 -0.3057  0.6276
 6054TIP3   OH239796   2.541   4.054   7.397 -0.1580  0.3019 -0.3054
 6054TIP3    H139797   2.548   4.037   7.303  0.2017  0.1897 -0.2597
 6054TIP3    H239798   2.485   4.131   7.404 -1.7351 -0.8037 -0.5173
 6055TIP3   OH239799   1.330   3.405   6.620  0.0416  0.2203 -0.1799
 6055TIP3    H139800   1.395   3.429   6.554  0.1139  0.7844  0.0894
 6055TIP3    H239801   1.382   3.381   6.697 -0.0563  0.5684  0.0007
 6056TIP3   OH239802   6.750   6.364   1.731 -0.2029  0.5095 -0.1709
 6056TIP3    H139803   6.683   6.343   1.665 -1.8448  0.2490  1.5196
 6056TIP3    H239804   6.749   6.289   1.790  0.7670  1.0470  0.5290
 6057TIP3   OH239805   4.667   3.247   6.373 -0.0793  0.1258 -0.4712
 6057TIP3    H139806   4.679   3.208   6.286 -1.0887 -0.1715 -0.4855
 6057TIP3    H239807   4.700   3.180   6.433 -1.7631 -0.7741 -0.4985
 6058TIP3   OH239808   6.060   5.295   1.581  0.5033  0.2839 -0.4633
 6058TIP3    H139809   6.119   5.367   1.602 -0.3033  0.7155  0.4049
 6058TIP3    H239810   5.995   5.296   1.652  0.7146 -1.5467 -0.2159
 6059TIP3   OH239811   2.407   6.709   6.882  0.2441 -0.6316  0.2333
 6059TIP3    H139812   2.426   6.706   6.975 -0.1286 -0.3013  0.3249
 6059TIP3    H239813   2.332   6.650   6.871  0.2191 -0.5863  0.1601
 6060TIP3   OH239814   6.988   5.162   2.224  0.1249  0.2938  0.6901
 6060TIP3    H139815   7.082   5.168   2.205  0.0945 -1.4576 -0.0542
 6060TIP3    H239816   6.978   5.206   2.308  1.9750 -1.4296  1.8640
 6061TIP3   OH239817   5.440   1.604   7.533 -0.3069  0.1335  0.1225
 6061TIP3    H139818   5.408   1.691   7.512  2.2047  0.5268 -2.4646
 6061TIP3    H239819   5.535   1.615   7.541 -0.3481 -1.5819  4.0941
 6062TIP3   OH239820   5.536   2.345   8.043  0.0911  0.3658  0.1087
 6062TIP3    H139821   5.460   2.373   8.094  0.8143  0.8103  0.9549
 6062TIP3    H239822   5.590   2.296   8.105  1.5324  1.8921  0.0662
 6063TIP3   OH239823   4.761   2.812   0.939 -0.5241 -0.0881  0.2964
 6063TIP3    H139824   4.844   2.819   0.893 -1.5396 -0.4671 -1.6755
 6063TIP3    H239825   4.778   2.751   1.011  1.0264  0.2651  0.2309
 6064TIP3   OH239826   0.826   3.651   7.351  0.4276  0.0725 -0.4887
 6064TIP3    H139827   0.787   3.622   7.433  1.4872 -1.7485 -0.6095
 6064TIP3    H239828   0.771   3.610   7.283 -1.2250  2.6006 -0.7324
 6065TIP3   OH239829   0.969   5.215   6.984  0.6900 -0.0560 -0.3453
 6065TIP3    H139830   0.943   5.139   7.037  0.2153  1.3594  1.4935
 6065TIP3    H239831   1.048   5.186   6.938  1.1168 -1.3240  1.1375
 6066TIP3   OH239832   6.677   3.395   0.718 -0.1216  0.0443  0.2593
 6066TIP3    H139833   6.648   3.486   0.704 -1.5081 -0.1604  1.5703
 6066TIP3    H239834   6.682   3.357   0.631 -1.5013  0.8202 -0.1751
 6067TIP3   OH239835   0.334   3.249   0.930  0.2772 -0.7349 -0.4892
 6067TIP3    H139836   0.310   3.167   0.886 -1.2966 -0.4809 -0.1389
 6067TIP3    H239837   0.252   3.299   0.933  1.4645  1.3076 -1.6444
 6068TIP3   OH239838   3.770   3.780   6.500 -0.1628  0.2647 -0.3947
 6068TIP3    H139839   3.855   3.762   6.460  0.3017  0.2314  0.5725
 6068TIP3    H239840   3.787   3.778   6.594 -0.9567  1.6353 -0.2055
 6069TIP3   OH239841   6.401   3.487   6.613  0.6133 -0.2406 -0.4862
 6069TIP3    H139842   6.416   3.477   6.519  1.4774  0.7388 -0.4667
 6069TIP3    H239843   6.489   3.485   6.651  0.3593  0.7508  0.1585
 6070TIP3   OH239844   1.506   0.754   1.436  0.2121 -0.1071 -0.6639
 6070TIP3    H139845   1.578   0.708   1.393  0.3885 -1.1047  0.6510
 6070TIP3    H239846   1.532   0.758   1.528 -1.3222 -0.3349 -0.1987
 6071TIP3   OH239847   1.258   2.604   2.025  0.1682 -0.1554 -0.4774
 6071TIP3    H139848   1.302   2.648   1.952 -0.0127  2.0244  0.6689
 6071TIP3    H239849   1.164   2.618   2.008  0.1530  1.5311  0.8143
 6072TIP3   OH239850   3.977   6.983   6.345  0.2046 -0.6517  0.0270
 6072TIP3    H139851   4.043   6.920   6.315  0.5950  0.5266 -1.6539
 6072TIP3    H239852   3.915   6.989   6.273 -1.7596 -1.7262  1.6016
 6073TIP3   OH239853   5.364   4.254   1.674  0.0171  0.0184  0.1089
 6073TIP3    H139854   5.315   4.173   1.686  0.0828 -0.3044 -1.6495
 6073TIP3    H239855   5.326   4.314   1.738 -1.1325 -0.9041  0.3257
 6074TIP3   OH239856   6.092   5.978   0.484 -0.6626  0.4247  0.1014
 6074TIP3    H139857   6.159   5.992   0.417 -0.3625 -0.6172  0.1740
 6074TIP3    H239858   6.113   6.042   0.552  1.2405 -0.9471  0.8453
 6075TIP3   OH239859   4.847   4.765   6.917 -0.2016  0.2094 -0.6018
 6075TIP3    H139860   4.917   4.824   6.889  0.0822 -0.0844 -0.5275
 6075TIP3    H239861   4.877   4.678   6.888 -0.2720  0.0085 -0.0807
 6076TIP3   OH239862   0.163   3.699   0.311  0.2275  0.4500 -0.0691
 6076TIP3    H139863   0.080   3.652   0.306 -0.1315  1.0662  0.1329
 6076TIP3    H239864   0.165   3.738   0.398  1.6049 -1.1767  0.6522
 6077TIP3   OH239865   5.300   6.493   6.795  0.5913  0.0367 -0.3692
 6077TIP3    H139866   5.305   6.445   6.712 -1.6838  1.2590 -1.2301
 6077TIP3    H239867   5.250   6.435   6.853  1.4788 -0.4575 -0.0868
 6078TIP3   OH239868   6.326   4.830   6.743  0.4817  0.5303  0.2035
 6078TIP3    H139869   6.404   4.807   6.692 -0.2611 -0.3934 -0.5253
 6078TIP3    H239870   6.256   4.839   6.678  0.0498  1.7331  0.8081
 6079TIP3   OH239871   4.033   2.674   0.202  0.6543 -0.0567  0.2917
 6079TIP3    H139872   3.942   2.690   0.177  0.4038 -1.4871  0.2182
 6079TIP3    H239873   4.084   2.732   0.146 -0.1978  0.5046  0.0934
 6080TIP3   OH239874   0.711   5.781   0.342  0.3308  0.6354  0.0950
 6080TIP3    H139875   0.709   5.819   0.254  1.4587 -0.1023 -0.2633
 6080TIP3    H239876   0.618   5.772   0.367  0.0241  1.4847 -0.7348
 6081TIP3   OH239877   1.081   2.000   7.383 -0.3807 -0.3757 -0.0312
 6081TIP3    H139878   1.045   1.918   7.348 -0.7386  0.5376 -1.8320
 6081TIP3    H239879   1.162   2.013   7.335 -1.2712  1.2915 -1.1409
 6082TIP3   OH239880   6.358   3.751   0.786  0.3805  0.3771  0.3906
 6082TIP3    H139881   6.309   3.676   0.820  0.4767  0.5553  0.9382
 6082TIP3    H239882   6.362   3.812   0.860  0.8017  0.6724  0.1276
 6083TIP3   OH239883   4.893   2.914   1.936  0.1052  0.0127 -0.1588
 6083TIP3    H139884   4.817   2.888   1.988  1.7145 -1.9070  1.3187
 6083TIP3    H239885   4.923   2.996   1.975  0.7801 -0.9725  1.4143
 6084TIP3   OH239886   4.731   6.950   1.213  0.4096 -0.3546  0.1660
 6084TIP3    H139887   4.723   6.993   1.298  4.8417  0.7311  0.1534
 6084TIP3    H239888   4.700   7.015   1.150 -1.0178 -0.4298  0.7741
 6085TIP3   OH239889   5.969   4.372   7.199 -0.1016  0.0937 -0.1574
 6085TIP3    H139890   6.010   4.338   7.279 -3.7751 -0.1567  1.7503
 6085TIP3    H239891   5.932   4.294   7.157  0.2939  0.4653 -1.2193
 6086TIP3   OH239892   1.808   2.819   7.764 -0.4299 -0.2227  0.1635
 6086TIP3    H139893   1.756   2.739   7.765  0.8897 -1.1237 -0.7860
 6086TIP3    H239894   1.885   2.798   7.816  1.0710 -0.4082 -2.0501
 6087TIP3   OH239895   5.104   3.475   1.194 -0.4609 -0.3534 -0.2544
 6087TIP3    H139896   5.020   3.501   1.231 -0.1077 -0.0695  0.3697
 6087TIP3    H239897   5.082   3.419   1.120 -1.1880 -0.7707  0.2742
 6088TIP3   OH239898   3.303   1.863   7.279  0.1615 -0.8067 -0.3856
 6088TIP3    H139899   3.251   1.874   7.358  0.3151  1.0189 -0.5289
 6088TIP3    H239900   3.370   1.931   7.285  0.9124 -1.4380 -1.5012
 6089TIP3   OH239901   5.201   6.964   7.069  0.2226  0.0063 -0.1173
 6089TIP3    H139902   5.274   6.974   7.131  0.6119 -0.5927 -0.4650
 6089TIP3    H239903   5.222   6.884   7.021 -1.6734 -1.2737  1.1254
 6090TIP3   OH239904   5.477   3.485   7.288 -0.1924  0.3960  0.0830
 6090TIP3    H139905   5.450   3.393   7.280  0.5969  0.1090  0.7200
 6090TIP3    H239906   5.498   3.511   7.198  0.7375 -0.3983  0.0585
 6091TIP3   OH239907   1.868   4.843   7.597  0.2114  0.4069  0.3064
 6091TIP3    H139908   1.788   4.813   7.641  0.6303 -0.4930  0.4638
 6091TIP3    H239909   1.848   4.838   7.504 -0.1308  0.8003  0.3542
 6092TIP3   OH239910   2.765   4.518   0.083 -0.5951 -0.4570  0.1673
 6092TIP3    H139911   2.778   4.483  -0.006  0.4600 -1.0742  0.5475
 6092TIP3    H239912   2.754   4.612   0.070 -0.4398 -0.5414 -0.6246
 6093TIP3   OH239913   5.653   5.929   7.274 -0.0430 -0.3823  0.8809
 6093TIP3    H139914   5.712   6.003   7.256 -0.0821 -0.1183  1.8187
 6093TIP3    H239915   5.607   5.916   7.191  0.0582  0.5594  0.6606
 6094TIP3   OH239916   5.229   3.651   1.035 -0.1776 -0.4873  0.5685
 6094TIP3    H139917   5.197   3.737   1.061 -2.1293 -0.1313 -2.7888
 6094TIP3    H239918   5.190   3.590   1.098 -1.6563  0.7135  0.8326
 6095TIP3   OH239919   3.256   4.937   1.110 -0.2068 -0.2205 -0.0411
 6095TIP3    H139920   3.281   4.873   1.044  0.8978  0.7558 -0.5779
 6095TIP3    H239921   3.311   4.916   1.186 -0.8548 -0.7924  0.2757
 6096TIP3   OH239922   3.595   6.123   1.898 -1.1488 -0.2854 -0.3901
 6096TIP3    H139923   3.628   6.157   1.815  1.8716 -0.3543  0.7014
 6096TIP3    H239924   3.573   6.202   1.949  2.1267  0.0241  0.6806
 6097TIP3   OH239925   2.515   2.959   0.935 -0.0202  0.3377 -0.2460
 6097TIP3    H139926   2.537   3.001   0.852  0.6897  1.1280  0.3272
 6097TIP3    H239927   2.531   3.027   1.001 -1.2645 -0.0512  0.4712
 6098TIP3   OH239928   0.514   3.877   1.165 -0.0501 -0.2850  0.0274
 6098TIP3    H139929   0.596   3.858   1.210 -1.8066 -0.6374  3.2024
 6098TIP3    H239930   0.484   3.792   1.132 -0.4738 -0.6106  1.2331
 6099TIP3   OH239931   3.375   5.583   7.263 -0.6170 -0.2745 -0.1442
 6099TIP3    H139932   3.335   5.520   7.324  1.1032  0.8548  2.2425
 6099TIP3    H239933   3.307   5.650   7.251 -1.8413 -1.6928 -1.3898
 6100TIP3   OH239934   3.605   4.616   0.774  0.1322 -0.0677  0.7467
 6100TIP3    H139935   3.552   4.538   0.790 -0.9395  0.4476 -0.1728
 6100TIP3    H239936   3.646   4.600   0.688  0.0052  0.3215  0.6105
 6101TIP3   OH239937   0.493   5.642   7.416 -0.0382 -0.6173  0.1597
 6101TIP3    H139938   0.443   5.560   7.414 -0.2257 -0.5567  1.7148
 6101TIP3    H239939   0.580   5.617   7.386  0.3836 -1.7632  2.2358
 6102TIP3   OH239940   5.450   4.824   2.081 -0.5798  0.2091 -0.5863
 6102TIP3    H139941   5.422   4.912   2.108 -1.2000  0.0035 -0.5387
 6102TIP3    H239942   5.528   4.839   2.028 -1.2812  0.8669 -1.4614
 6103TIP3   OH239943   6.355   3.029   7.010 -0.5418 -0.3133  0.4080
 6103TIP3    H139944   6.355   2.955   7.072 -2.5595 -0.1123  0.6864
 6103TIP3    H239945   6.264   3.057   7.007  0.5381  3.6770  2.0608
 6104TIP3   OH239946   3.530   6.183   1.363 -0.4057  0.1396  0.4182
 6104TIP3    H139947   3.512   6.224   1.448  1.0461  0.7233  0.4461
 6104TIP3    H239948   3.618   6.212   1.340 -0.6151 -0.3819 -1.0848
 6105TIP3   OH239949   4.445   2.903   6.424 -0.6384  0.1748 -0.4459
 6105TIP3    H139950   4.537   2.926   6.434 -0.3127 -1.2236 -0.1176
 6105TIP3    H239951   4.429   2.905   6.330 -0.4683  1.1253 -0.4606
 6106TIP3   OH239952   0.254   4.928   1.258 -0.6497 -0.1032  0.5768
 6106TIP3    H139953   0.240   4.993   1.327 -0.9686 -1.9689  2.2958
 6106TIP3    H239954   0.181   4.941   1.198 -1.0605  0.6981  1.2396
 6107TIP3   OH239955   5.886   1.788   0.970 -0.1406 -0.1823 -0.1624
 6107TIP3    H139956   5.845   1.862   0.925 -0.0075  0.2546  0.4207
 6107TIP3    H239957   5.823   1.717   0.963 -0.4646  0.1203 -0.3447
 6108TIP3   OH239958   4.684   1.979   6.045  0.1104  0.1006  0.3788
 6108TIP3    H139959   4.704   1.894   6.084  1.3572  0.5548  0.7796
 6108TIP3    H239960   4.589   1.981   6.038  0.0636 -1.2755  0.4717
 6109TIP3   OH239961   1.126   5.577   0.996  0.0119  0.6324 -0.3029
 6109TIP3    H139962   1.154   5.649   1.052 -0.2797 -0.2314  0.9826
 6109TIP3    H239963   1.102   5.618   0.913 -1.5215  2.1742  0.8867
 6110TIP3   OH239964   5.011   0.009   7.103 -0.4012 -0.7190 -0.7245
 6110TIP3    H139965   5.074  -0.048   7.059  2.5099  2.7966 -1.3274
 6110TIP3    H239966   4.937   0.014   7.042  0.4464 -1.7355 -1.8658
 6111TIP3   OH239967   1.474   2.920   6.738 -0.0253  0.1239  0.1186
 6111TIP3    H139968   1.520   2.866   6.802 -2.0582 -2.6684 -0.7022
 6111TIP3    H239969   1.390   2.941   6.779  0.0288  1.2025 -0.2956
 6112TIP3   OH239970   0.550   6.190   7.256 -0.3201 -0.2334  0.1524
 6112TIP3    H139971   0.592   6.262   7.210 -1.1398 -0.2371 -0.6119
 6112TIP3    H239972   0.604   6.114   7.236 -0.2544 -0.0941 -0.2046
 6113TIP3   OH239973   4.488   4.511   7.299  0.3222  0.1833 -0.0141
 6113TIP3    H139974   4.574   4.542   7.327 -0.1809  1.6156  0.0041
 6113TIP3    H239975   4.501   4.482   7.208  1.0587 -0.6335  0.3540
 6114TIP3   OH239976   6.458   2.831   0.867 -0.2361  0.7300  0.2924
 6114TIP3    H139977   6.452   2.917   0.826  1.9675  0.0662 -1.5096
 6114TIP3    H239978   6.489   2.849   0.956  0.4874  1.8026 -0.1633
 6115TIP3   OH239979   6.311   2.166   7.950  0.0577  0.0480  0.6009
 6115TIP3    H139980   6.289   2.076   7.928  2.7490 -1.1845  2.6040
 6115TIP3    H239981   6.338   2.205   7.867  0.5725 -1.5423 -0.0113
 6116TIP3   OH239982   1.558   1.474   0.787  0.0371  0.1121 -0.1609
 6116TIP3    H139983   1.580   1.390   0.747 -1.1909 -0.0335 -0.5382
 6116TIP3    H239984   1.591   1.466   0.877 -0.2099 -0.8330 -0.1483
 6117TIP3   OH239985   2.757   4.933   6.509  0.0496  0.6343  0.1221
 6117TIP3    H139986   2.839   4.967   6.544  0.0590  2.0753 -1.2513
 6117TIP3    H239987   2.690   4.993   6.542 -0.2671  0.3430  0.0071
 6118TIP3   OH239988   1.765   0.605   0.976 -0.1683  0.0192  0.2415
 6118TIP3    H139989   1.732   0.608   1.066 -1.1355  0.3254 -0.1086
 6118TIP3    H239990   1.855   0.636   0.982 -0.0688 -0.4358  1.1773
 6119TIP3   OH239991   3.321   4.853   0.190 -0.2980  0.1289  0.5921
 6119TIP3    H139992   3.405   4.847   0.144 -0.5641 -3.3406  0.4235
 6119TIP3    H239993   3.283   4.936   0.160  0.9627 -0.5070 -3.0193
 6120TIP3   OH239994   1.921   1.980   0.940  0.3963 -0.5235  0.4626
 6120TIP3    H139995   1.993   1.921   0.961  1.0689  0.4901  1.0500
 6120TIP3    H239996   1.880   2.001   1.024  2.1688  2.3521  0.6794
 6121TIP3   OH239997   2.894   5.698   6.688  0.1501  0.0830 -0.2945
 6121TIP3    H139998   2.980   5.668   6.658 -0.4692 -0.9399 -1.1009
 6121TIP3    H239999   2.832   5.646   6.637 -0.9646 -1.8247  2.8807
 6122TIP3   OH240000   3.916   3.343   1.391 -0.0420  0.0667 -0.3180
 6122TIP3    H140001   3.954   3.270   1.342  1.3719 -0.3002  1.2574
 6122TIP3    H240002   3.915   3.416   1.329 -0.4894 -1.0041 -1.5885
 6123TIP3   OH240003   0.120   3.744   7.584 -0.1717  0.3998  0.1461
 6123TIP3    H140004   0.039   3.773   7.542  1.1369  0.3821 -2.5313
 6123TIP3    H240005   0.176   3.822   7.587  1.2599 -0.4893 -1.9441
 6124TIP3   OH240006   5.430   4.816   0.513 -0.5681 -0.1587  0.0607
 6124TIP3    H140007   5.350   4.851   0.552  0.1779  0.0663  1.3861
 6124TIP3    H240008   5.399   4.764   0.439 -1.8354  1.3485 -0.5008
 6125TIP3   OH240009   0.157   2.862   1.336  0.4217  0.6814 -0.4075
 6125TIP3    H140010   0.117   2.944   1.308  1.2876  1.2061 -0.1486
 6125TIP3    H240011   0.153   2.864   1.431  0.5975  0.5046 -0.3945
 6126TIP3   OH240012   4.535   4.361   0.117  0.8645 -0.0130 -0.4032
 6126TIP3    H140013   4.554   4.361   0.023  2.5301 -0.7511 -0.0838
 6126TIP3    H240014   4.492   4.277   0.132  0.7606  0.0289 -0.4622
 6127TIP3   OH240015   1.725   5.174   7.620  0.4023  0.3681  0.2258
 6127TIP3    H140016   1.815   5.195   7.599  0.8440 -0.4903  1.2160
 6127TIP3    H240017   1.689   5.137   7.539  0.2573  2.7674 -0.8601
 6128TIP3   OH240018   7.016   2.541   1.653 -0.1814  0.0506  0.2533
 6128TIP3    H140019   6.950   2.502   1.711 -0.4048 -1.8677 -1.2406
 6128TIP3    H240020   7.095   2.547   1.707 -1.1573  0.9434  1.6046
 6129TIP3   OH240021   6.640   4.878   6.916  0.1286 -1.0439  0.1500
 6129TIP3    H140022   6.726   4.896   6.879  0.1435 -1.0277  0.1921
 6129TIP3    H240023   6.578   4.920   6.856  0.1686 -0.7532  0.3099
 6130TIP3   OH240024   5.452   4.012   0.781  0.1839 -0.1911 -0.0847
 6130TIP3    H140025   5.356   4.017   0.788  0.2500  0.6152  0.2922
 6130TIP3    H240026   5.481   3.981   0.867  0.3647  1.0991  0.3337
 6131TIP3   OH240027   0.429   3.609   0.690  0.0117  0.5280  0.3643
 6131TIP3    H140028   0.426   3.664   0.768 -0.7665  1.3477 -0.2226
 6131TIP3    H240029   0.466   3.526   0.720 -0.0840  0.9014  1.5522
 6132TIP3   OH240030   5.008   5.767   0.126 -0.3856  0.3792 -0.1688
 6132TIP3    H140031   5.014   5.708   0.051  3.1955 -1.6704  1.6086
 6132TIP3    H240032   4.993   5.709   0.201  1.4474  1.8746  1.3968
 6133TIP3   OH240033   7.048   5.474   1.121  0.5205 -0.3939 -0.0947
 6133TIP3    H140034   7.041   5.378   1.119 -1.1791 -0.2801  0.0786
 6133TIP3    H240035   7.078   5.498   1.034  0.9211 -1.0835 -0.1472
 6134TIP3   OH240036   0.286   4.703   8.122 -0.1393 -0.4659 -0.1186
 6134TIP3    H140037   0.248   4.651   8.193  2.0123  0.6724  1.9045
 6134TIP3    H240038   0.380   4.700   8.138  0.2938  0.6630 -2.3638
 6135TIP3   OH240039   0.238   6.530   1.287 -0.4602  0.7740 -0.7219
 6135TIP3    H140040   0.236   6.523   1.382  0.6409  0.1993 -0.7352
 6135TIP3    H240041   0.300   6.600   1.269  1.2984 -0.8504 -1.0762
 6136TIP3   OH240042   4.526   5.250   2.057 -0.2073  0.2305  0.5936
 6136TIP3    H140043   4.531   5.157   2.035 -0.3907  0.8694 -2.2592
 6136TIP3    H240044   4.610   5.286   2.028 -2.1520  1.9187 -3.1842
 6137TIP3   OH240045   5.267   3.904   0.417  0.1364  0.6300 -0.0462
 6137TIP3    H140046   5.276   3.999   0.407 -0.8044  0.6645 -0.5462
 6137TIP3    H240047   5.341   3.868   0.367 -0.2201  1.0580 -0.8898
 6138TIP3   OH240048   4.689   6.060   0.488  0.2146 -0.1247  0.5879
 6138TIP3    H140049   4.681   6.155   0.479 -3.4491 -0.3364  0.6763
 6138TIP3    H240050   4.679   6.027   0.399 -4.1917 -0.6092  1.1293
 6139TIP3   OH240051   5.097   0.808   0.488  0.1930 -0.7774  0.0974
 6139TIP3    H140052   5.028   0.799   0.554 -1.8014 -0.4055 -1.8864
 6139TIP3    H240053   5.102   0.722   0.447 -0.7033 -0.1649 -1.3108
 6140TIP3   OH240054   5.948   3.948   1.696  0.3854 -0.5604 -0.6496
 6140TIP3    H140055   5.951   3.976   1.605  2.1139 -0.4458 -0.5772
 6140TIP3    H240056   5.861   3.975   1.727 -0.1103 -0.3766 -2.1810
 6141TIP3   OH240057   1.312   6.005   0.504 -0.0258 -0.6074 -0.1626
 6141TIP3    H140058   1.323   6.070   0.574 -3.1865  0.2257 -0.3699
 6141TIP3    H240059   1.353   6.045   0.427 -0.3051  0.3296  0.1710
 6142TIP3   OH240060   0.592   3.388   1.251 -0.8075  0.4942 -0.4657
 6142TIP3    H140061   0.652   3.386   1.326 -0.2158 -3.0434 -0.9798
 6142TIP3    H240062   0.647   3.413   1.177 -0.0912 -1.8586 -0.7691
 6143TIP3   OH240063   3.991   2.095   1.161  0.1701 -0.0357  0.1983
 6143TIP3    H140064   4.076   2.138   1.175  0.6640 -1.1272  0.5896
 6143TIP3    H240065   4.012   2.015   1.112 -0.6931 -0.0764 -0.1174
 6144TIP3   OH240066   3.954   6.032   1.734 -0.2352 -0.5420  0.0557
 6144TIP3    H140067   4.029   6.009   1.788  1.0227 -1.6571 -2.0954
 6144TIP3    H240068   3.971   6.122   1.706 -0.1310 -0.4950  0.2698
 6145TIP3   OH240069   6.116   6.304   1.110  0.3472 -0.6021  0.0182
 6145TIP3    H140070   6.179   6.321   1.181 -1.8010  1.7535  1.4365
 6145TIP3    H240071   6.038   6.271   1.155 -0.5751 -0.4049 -1.4148
 6146TIP3   OH240072   0.510   2.777   6.989 -0.1179 -0.1120 -0.0615
 6146TIP3    H140073   0.433   2.725   6.968 -0.9909  0.3633  1.9205
 6146TIP3    H240074   0.571   2.758   6.917 -1.6819 -1.2391 -1.1372
 6147TIP3   OH240075   4.212   3.748   1.094  0.1098 -0.3702 -0.0732
 6147TIP3    H140076   4.293   3.773   1.138 -0.8502 -1.1418  2.2091
 6147TIP3    H240077   4.167   3.831   1.079  0.1966 -0.1381  0.9288
 6148TIP3   OH240078   6.846   4.767   7.494 -0.0878  0.3831 -0.4352
 6148TIP3    H140079   6.898   4.845   7.515 -0.0720  0.1218  0.4793
 6148TIP3    H240080   6.864   4.705   7.564  0.8117 -0.9089 -1.7923
 6149TIP3   OH240081   4.683   4.148   2.288  0.2793  0.1073 -0.0102
 6149TIP3    H140082   4.717   4.235   2.268 -0.7526  0.3850 -0.5755
 6149TIP3    H240083   4.692   4.099   2.207 -0.8920  0.2635 -0.2490
 6150TIP3   OH240084   2.646   4.966   1.566  0.2421 -0.0316 -0.7371
 6150TIP3    H140085   2.700   5.037   1.531  1.0889 -0.5424 -0.4795
 6150TIP3    H240086   2.640   4.985   1.660  3.5207 -2.2309  0.0141
 6151TIP3   OH240087   4.658   4.761   7.477  0.6316 -0.0233  0.5364
 6151TIP3    H140088   4.587   4.703   7.505 -1.2754  1.3314 -1.3343
 6151TIP3    H240089   4.722   4.756   7.548 -0.0424 -3.3887  1.0262
 6152TIP3   OH240090   6.932   0.933   7.978  0.0985  0.2759  0.1022
 6152TIP3    H140091   6.970   0.883   7.905 -1.8584 -1.0618 -0.0311
 6152TIP3    H240092   6.999   0.930   8.046  1.0185 -0.4268 -0.8082
 6153TIP3   OH240093   2.909   4.409   0.288 -0.1922 -0.0723  0.0878
 6153TIP3    H140094   2.872   4.462   0.217 -1.0862  0.2388  0.7820
 6153TIP3    H240095   2.888   4.458   0.368  0.0665 -0.8559  0.6368
 6154TIP3   OH240096   0.261   5.571   6.577 -0.4576  0.3468 -0.0298
 6154TIP3    H140097   0.261   5.483   6.539 -0.4898  0.6020 -0.6273
 6154TIP3    H240098   0.179   5.610   6.546 -1.3291 -0.0400  1.7241
 6155TIP3   OH240099   6.217   5.246   0.919  0.0502 -0.2277  0.0145
 6155TIP3    H140100   6.242   5.279   1.006 -2.0294  1.3933  0.0354
 6155TIP3    H240101   6.294   5.265   0.864  0.3873  1.1720  0.9167
 6156TIP3   OH240102   2.934   4.504   6.956 -0.4875  0.3414 -0.7102
 6156TIP3    H140103   3.019   4.491   6.912  0.9714  2.7610  1.2471
 6156TIP3    H240104   2.930   4.599   6.971 -3.8814  0.3404 -1.3658
 6157TIP3   OH240105   4.387   4.173   0.391 -0.7158  0.8898 -0.4694
 6157TIP3    H140106   4.402   4.247   0.450  0.5464 -0.3207  0.7749
 6157TIP3    H240107   4.467   4.121   0.398 -0.6191  0.6283 -3.1352
 6158TIP3   OH240108   5.488   3.013   7.838 -0.1993  0.1847  0.0658
 6158TIP3    H140109   5.469   2.978   7.751 -1.9358  0.9517  0.1226
 6158TIP3    H240110   5.527   3.099   7.821  0.7652 -0.2559  0.0193
 6159TIP3   OH240111   0.865   5.529   6.484 -0.0170 -0.1816 -0.0473
 6159TIP3    H140112   0.822   5.561   6.405 -1.3036 -2.1213 -0.1675
 6159TIP3    H240113   0.945   5.486   6.452 -0.9258 -1.6410 -0.3759
 6160TIP3   OH240114   0.250   3.465   1.208  0.1567 -0.2915  0.4041
 6160TIP3    H140115   0.198   3.468   1.128  1.2223  2.7078 -0.2549
 6160TIP3    H240116   0.277   3.374   1.216 -1.5494 -1.0152 -1.5949
 6161TIP3   OH240117   4.720   5.070   7.551  0.5280 -0.2309 -0.4426
 6161TIP3    H140118   4.644   5.125   7.530  1.1295  0.6260 -0.4034
 6161TIP3    H240119   4.712   4.994   7.494 -1.0277 -0.7377  0.4276
 6162TIP3   OH240120   5.503   3.880   2.273  0.1860 -0.1635  0.3477
 6162TIP3    H140121   5.575   3.935   2.244  0.1933 -0.3811 -0.0567
 6162TIP3    H240122   5.545   3.803   2.311  0.1916  0.4847  1.7024
 6163TIP3   OH240123   2.293   5.445   0.633  0.4061  0.4644  0.1306
 6163TIP3    H140124   2.333   5.372   0.587 -0.2542 -0.9362  1.7564
 6163TIP3    H240125   2.214   5.408   0.674 -0.9967  2.5068 -0.6319
 6164TIP3   OH240126   6.870   5.493   1.362  0.4117  0.1568  0.3428
 6164TIP3    H140127   6.824   5.413   1.338 -0.4141  0.7169  0.0404
 6164TIP3    H240128   6.937   5.503   1.294  0.5950 -0.3308  0.4454
 6165TIP3   OH240129   1.146   6.386   6.008 -0.0065 -0.2921  0.3765
 6165TIP3    H140130   1.204   6.366   5.935 -0.8806  0.8454 -0.6536
 6165TIP3    H240131   1.130   6.480   6.002 -0.6353 -0.3054  1.6220
 6166TIP3   OH240132   3.719   3.091   1.068  0.5109  0.6190 -0.2484
 6166TIP3    H140133   3.737   3.074   0.975  0.5702  0.4932 -0.2154
 6166TIP3    H240134   3.683   3.179   1.070  0.6027  0.6605 -0.3809
 6167TIP3   OH240135   1.385   1.488   6.924 -0.1488 -0.4594 -0.6365
 6167TIP3    H140136   1.455   1.451   6.870  0.1582 -1.3582  0.3605
 6167TIP3    H240137   1.397   1.582   6.917  1.4207 -0.6000 -0.1696
 6168TIP3   OH240138   2.710   5.442   0.747  0.3999 -0.0115 -0.2488
 6168TIP3    H140139   2.695   5.380   0.676 -0.7508 -0.2459  0.1802
 6168TIP3    H240140   2.767   5.509   0.710 -1.1752  0.5176 -1.7647
 6169TIP3   OH240141   0.205   3.514   1.809 -0.5488 -0.1235 -0.0893
 6169TIP3    H140142   0.161   3.449   1.753 -0.9134 -0.0201  0.0764
 6169TIP3    H240143   0.144   3.588   1.812 -0.2474  0.1218 -0.0654
 6170TIP3   OH240144   4.188   2.354   6.227  0.3385 -0.1078 -0.0925
 6170TIP3    H140145   4.115   2.293   6.230 -0.3317  0.5180 -2.6303
 6170TIP3    H240146   4.250   2.316   6.165  0.8359  0.7855 -0.1646
 6171TIP3   OH240147   5.787   4.015   2.183  0.1291 -0.1205  0.2160
 6171TIP3    H140148   5.800   3.977   2.270  0.8050 -0.1956  0.0799
 6171TIP3    H240149   5.786   3.940   2.124 -2.0354 -0.2233  0.3429
 6172TIP3   OH240150   3.413   3.155   1.945  0.2638 -0.2150 -0.1186
 6172TIP3    H140151   3.420   3.188   1.855 -0.8684  1.1995  0.2996
 6172TIP3    H240152   3.490   3.099   1.956 -0.7835 -2.2767 -2.7372
 6173TIP3   OH240153   0.872   2.207   1.101 -0.1286  0.0638  0.4258
 6173TIP3    H140154   0.956   2.162   1.114 -0.4976 -0.9877 -0.8291
 6173TIP3    H240155   0.824   2.191   1.183 -0.5909 -2.5533 -0.3257
 6174TIP3   OH240156   5.825   3.364   7.306 -0.0502 -0.1776 -0.9359
 6174TIP3    H140157   5.857   3.309   7.234 -1.3853 -0.0408 -1.6527
 6174TIP3    H240158   5.769   3.429   7.263 -0.1452  0.4442  0.1342
 6175TIP3   OH240159   5.600   2.967   1.494  0.1013 -0.5497  0.0364
 6175TIP3    H140160   5.524   3.018   1.524 -0.2174  0.0072 -1.6551
 6175TIP3    H240161   5.636   3.019   1.422  1.0878 -1.6516 -0.2721
 6176TIP3   OH240162   5.842   4.143   1.932 -0.6210 -0.2959  0.2471
 6176TIP3    H140163   5.839   4.238   1.947 -0.4849 -0.5884  2.3187
 6176TIP3    H240164   5.787   4.106   2.002 -0.5423 -1.7486 -0.4454
 6177TIP3   OH240165   4.748   2.569   6.862 -0.5081 -0.1636  0.1677
 6177TIP3    H140166   4.682   2.500   6.870 -0.4687 -0.3432 -0.9095
 6177TIP3    H240167   4.787   2.554   6.775 -0.0018  0.7775  0.2293
 6178TIP3   OH240168   0.438   5.111   1.451  0.1045  0.3870  0.4839
 6178TIP3    H140169   0.524   5.070   1.453  0.8803  1.9630  0.2666
 6178TIP3    H240170   0.421   5.136   1.542 -1.1553 -1.9638  0.9324
 6179TIP3   OH240171   6.316   4.187   7.939 -0.0958  0.0182  0.2421
 6179TIP3    H140172   6.294   4.205   7.848  1.7011  0.4757 -0.1204
 6179TIP3    H240173   6.304   4.093   7.949 -0.9356  0.0696 -0.2891
 6180TIP3   OH240174   2.378   5.501   0.235 -0.3826  0.1726 -0.1585
 6180TIP3    H140175   2.385   5.448   0.314 -0.7028  1.6138  0.8372
 6180TIP3    H240176   2.375   5.591   0.266  1.6016  0.8878 -1.9019
 6181TIP3   OH240177   6.888   4.351   6.541 -0.0360  0.2213 -0.0507
 6181TIP3    H140178   6.905   4.311   6.455 -0.9711 -2.3265  0.9075
 6181TIP3    H240179   6.902   4.280   6.603 -2.6089  1.1591  1.6614
 6182TIP3   OH240180   0.593   1.151   1.593  0.2815  0.4108  0.4129
 6182TIP3    H140181   0.632   1.094   1.527 -0.2891  1.4579 -0.8474
 6182TIP3    H240182   0.585   1.096   1.671 -0.0056 -1.1359 -0.6975
 6183TIP3   OH240183   6.935   6.138   7.808  0.1636 -0.5154 -0.3544
 6183TIP3    H140184   6.904   6.223   7.839 -0.3381 -0.6991 -0.3569
 6183TIP3    H240185   7.017   6.124   7.856  0.0706 -0.1885 -0.0973
 6184TIP3   OH240186   4.867   6.585   1.540 -0.3383 -0.0910 -0.5426
 6184TIP3    H140187   4.922   6.632   1.477 -1.4993  0.6494 -1.0168
 6184TIP3    H240188   4.890   6.622   1.625 -1.0911  1.2111 -0.8929
 6185TIP3   OH240189   6.262   5.510   1.623  0.1915  0.3459 -0.4732
 6185TIP3    H140190   6.346   5.474   1.649 -0.4300 -1.6770 -1.1454
 6185TIP3    H240191   6.214   5.522   1.705  0.9843  1.1476 -0.1215
 6186TIP3   OH240192   4.957   6.224   6.287 -0.1776 -0.9331 -0.0695
 6186TIP3    H140193   4.968   6.150   6.228 -2.3203  0.2877 -2.1054
 6186TIP3    H240194   4.863   6.229   6.302  0.1837 -0.2387  2.2310
 6187TIP3   OH240195   6.409   2.866   1.693 -0.3575  0.1538  0.6622
 6187TIP3    H140196   6.319   2.892   1.711 -1.1195 -1.5553 -0.5783
 6187TIP3    H240197   6.434   2.811   1.767 -1.0737 -1.1155 -0.0312
 6188TIP3   OH240198   6.906   5.142   6.355 -0.0362 -0.2047 -0.2434
 6188TIP3    H140199   6.971   5.138   6.285  1.2084  0.9203  0.8177
 6188TIP3    H240200   6.829   5.181   6.314  0.6174  0.2767 -1.0296
 6189TIP3   OH240201   2.238   2.935   7.141 -0.1472 -0.7524  0.3986
 6189TIP3    H140202   2.148   2.950   7.112  0.2356 -0.8015 -0.8480
 6189TIP3    H240203   2.229   2.875   7.215 -1.4441  2.7273  3.1762
 6190TIP3   OH240204   4.567   6.933   0.533  0.2058 -0.3910  0.0800
 6190TIP3    H140205   4.578   6.845   0.567 -1.1744 -0.1881  1.0861
 6190TIP3    H240206   4.632   6.940   0.463 -0.4892 -2.6044 -0.8146
 6191TIP3   OH240207   3.990   3.796   2.444  0.9039 -0.5419  0.0723
 6191TIP3    H140208   3.980   3.891   2.438 -1.7427 -0.5863  2.4853
 6191TIP3    H240209   3.929   3.761   2.379 -1.7176 -0.5828  2.4558
 6192TIP3   OH240210   6.059   0.960   0.739  0.6077 -0.1721  0.4671
 6192TIP3    H140211   6.149   0.932   0.753  0.0217 -2.1116  0.4169
 6192TIP3    H240212   6.051   1.042   0.789  2.2758 -0.1932  0.7733
 6193TIP3   OH240213   5.918   1.824   1.792 -0.7960  0.2315 -0.1186
 6193TIP3    H140214   5.985   1.870   1.742  0.2146  0.9602  1.8790
 6193TIP3    H240215   5.842   1.821   1.733  0.7399  0.0222 -2.1250
 6194TIP3   OH240216   5.171   6.253   6.954  0.4196  0.6678  0.4798
 6194TIP3    H140217   5.158   6.193   6.880  1.4592  2.1062 -0.8795
 6194TIP3    H240218   5.261   6.238   6.983 -0.4043 -0.8771  2.3779
 6195TIP3   OH240219   5.337   0.900   6.576  0.4913 -0.1401 -0.0001
 6195TIP3    H140220   5.314   0.893   6.483  1.2622  0.2152 -0.2217
 6195TIP3    H240221   5.429   0.876   6.580  0.1819 -1.2071  0.8304
 6196TIP3   OH240222   0.060   0.714   7.803 -0.4408 -0.1627 -0.3143
 6196TIP3    H140223   0.003   0.641   7.826 -3.5974  2.7891  1.5886
 6196TIP3    H240224   0.132   0.709   7.866 -1.4571 -0.6902  0.8034
 6197TIP3   OH240225   0.734   4.428   7.152  0.3774 -0.3109  0.1308
 6197TIP3    H140226   0.798   4.451   7.085 -1.3210 -0.5173 -1.6043
 6197TIP3    H240227   0.730   4.504   7.210 -1.0684  1.5604 -2.3401
 6198TIP3   OH240228   3.726   3.945   0.360 -0.2556  0.7800  0.1849
 6198TIP3    H140229   3.671   4.019   0.386  0.1980  1.4176 -0.6381
 6198TIP3    H240230   3.729   3.950   0.264 -2.3404 -1.8495 -0.0886
 6199TIP3   OH240231   5.838   2.840   1.426  0.3914 -0.0341 -0.2688
 6199TIP3    H140232   5.795   2.756   1.440  1.9038 -0.8103 -0.0905
 6199TIP3    H240233   5.771   2.905   1.445 -1.4573 -1.1834 -2.4982
 6200TIP3   OH240234   5.559   6.473   7.031 -0.4118 -0.5621 -0.3803
 6200TIP3    H140235   5.522   6.389   7.006 -0.5538 -0.7026  0.2984
 6200TIP3    H240236   5.646   6.453   7.064  0.2439 -0.2432 -1.8719
 6201TIP3   OH240237   3.999   3.970   5.914 -0.5150  0.6122 -0.3113
 6201TIP3    H140238   3.939   3.901   5.886  0.1322 -0.1036  0.0532
 6201TIP3    H240239   3.946   4.026   5.971 -0.7215 -0.2530  0.3489
 6202TIP3   OH240240   5.242   4.810   7.635  0.1168  0.0752 -0.3931
 6202TIP3    H140241   5.222   4.803   7.728  1.9491  2.2693  0.1966
 6202TIP3    H240242   5.162   4.845   7.595 -0.7891 -1.2002  0.2592
 6203TIP3   OH240243   5.762   0.612   1.518 -0.3640  0.1009  0.3192
 6203TIP3    H140244   5.807   0.628   1.601 -1.7031 -0.0459  1.0696
 6203TIP3    H240245   5.816   0.658   1.453  0.6634  0.2522  1.2625
 6204TIP3   OH240246   6.694   1.468   0.418  0.2291  0.6753 -0.0590
 6204TIP3    H140247   6.618   1.473   0.476 -0.9158  0.4875 -1.4934
 6204TIP3    H240248   6.761   1.424   0.469 -1.3289 -1.0756  0.5396
 6205TIP3   OH240249   1.579   6.707   0.258 -0.0319  0.1200 -0.2966
 6205TIP3    H140250   1.549   6.628   0.304  0.1856  0.2057 -0.0042
 6205TIP3    H240251   1.572   6.685   0.165  0.6502 -0.4798 -0.2107
 6206TIP3   OH240252   1.458   1.713   0.872 -0.1151 -0.6004  0.3082
 6206TIP3    H140253   1.521   1.711   0.944 -0.6401 -2.1614  0.7314
 6206TIP3    H240254   1.478   1.635   0.820 -2.2834 -1.6169  0.9627
 6207TIP3   OH240255   2.265   0.443   5.728  0.1162  0.1358  0.7037
 6207TIP3    H140256   2.327   0.479   5.790 -0.9185  2.6660  0.3117
 6207TIP3    H240257   2.316   0.430   5.648  0.5627  0.4560  0.9343
 6208TIP3   OH240258   4.333   4.328   1.580 -0.5957  0.4713 -0.3447
 6208TIP3    H140259   4.355   4.249   1.531 -0.2228  1.0192 -1.0575
 6208TIP3    H240260   4.238   4.327   1.587 -0.5832 -0.1118 -0.2252
 6209TIP3   OH240261   5.199   1.342   0.104 -0.7180  0.2038  0.2298
 6209TIP3    H140262   5.259   1.357   0.030 -1.5431  0.7218 -0.3413
 6209TIP3    H240263   5.242   1.385   0.178  0.9048 -1.7010  0.4320
 6210TIP3   OH240264   3.187   0.927   6.780  0.1484 -0.3007  0.3375
 6210TIP3    H140265   3.111   0.948   6.725 -0.4648 -1.3422  0.7724
 6210TIP3    H240266   3.207   0.836   6.760  1.5256  0.0829 -0.0455
 6211TIP3   OH240267   3.679   6.121   7.759  0.0269  0.4491 -0.5375
 6211TIP3    H140268   3.683   6.177   7.837 -0.8130 -0.6178  0.2923
 6211TIP3    H240269   3.651   6.036   7.793 -1.1816  0.2021 -2.1275
 6212TIP3   OH240270   4.066   0.504   1.141 -0.3166  0.0696 -0.1995
 6212TIP3    H140271   4.061   0.591   1.102  0.9303 -0.3943 -1.4660
 6212TIP3    H240272   4.159   0.492   1.161 -0.4164 -1.0929 -0.3664
 6213TIP3   OH240273   0.515   6.089   0.732  0.3193 -0.2052 -0.6456
 6213TIP3    H140274   0.607   6.109   0.750 -0.1536 -0.5824  2.3838
 6213TIP3    H240275   0.517   6.007   0.683  1.5128 -1.4068  1.3798
 6214TIP3   OH240276   6.698   0.566   7.529 -0.2685  0.4120 -0.3045
 6214TIP3    H140277   6.653   0.562   7.613  0.6643 -1.1641  0.1434
 6214TIP3    H240278   6.759   0.638   7.537  0.3977 -0.2503  0.6744
 6215TIP3   OH240279   1.319   6.656   7.128  0.0154 -0.4577 -1.0039
 6215TIP3    H140280   1.375   6.723   7.089  0.5774 -0.5636 -0.4030
 6215TIP3    H240281   1.288   6.696   7.209 -0.8494 -0.3701 -1.3809
 6216TIP3   OH240282   0.645   5.458   7.986  0.3606  0.5177  0.3158
 6216TIP3    H140283   0.578   5.444   8.052  0.0632  0.2597 -0.0420
 6216TIP3    H240284   0.721   5.490   8.035  0.8778 -1.7780  1.0602
 6217TIP3   OH240285   2.275   1.822   7.997 -0.2960  0.7620 -0.0461
 6217TIP3    H140286   2.180   1.825   8.002 -0.3212  0.7576 -0.5132
 6217TIP3    H240287   2.294   1.755   7.931  0.0336  0.6598  0.1483
 6218TIP3   OH240288   4.658   4.017   0.229  0.2286  0.3944 -0.8692
 6218TIP3    H140289   4.734   4.056   0.185  1.4152 -2.3826 -1.4244
 6218TIP3    H240290   4.654   4.060   0.314  1.3967  1.7919 -1.5095
 6219TIP3   OH240291   0.896   0.198   0.720  0.1769  0.1326  0.2912
 6219TIP3    H140292   0.893   0.240   0.806  0.0479 -2.4483  1.5876
 6219TIP3    H240293   0.862   0.265   0.660 -0.1997  1.8068  2.3017
 6220TIP3   OH240294   6.081   7.072   1.008  0.5384  0.3088  0.2228
 6220TIP3    H140295   6.023   7.005   1.045  0.2112 -1.8580 -3.9809
 6220TIP3    H240296   6.169   7.042   1.030  0.3002  0.4062  1.3713
 6221TIP3   OH240297   1.170   5.565   7.114  0.4986  0.0232 -0.2596
 6221TIP3    H140298   1.252   5.539   7.074  0.8599  1.4786 -0.4771
 6221TIP3    H240299   1.195   5.627   7.183 -0.4591  1.1953 -0.9358
 6222TIP3   OH240300   0.871   6.823   2.098  0.3709  0.6590 -0.3029
 6222TIP3    H140301   0.799   6.808   2.159  0.4103  0.7692 -0.2290
 6222TIP3    H240302   0.928   6.747   2.109  1.2792  1.5070  1.0713
 6223TIP3   OH240303   1.952   3.215   7.771 -0.0870  0.4210  0.2190
 6223TIP3    H140304   1.949   3.166   7.688  4.0827  0.0853  0.1214
 6223TIP3    H240305   1.989   3.300   7.747 -1.0210  1.1797  1.4239
 6224TIP3   OH240306   5.613   0.543   7.644 -0.4937  0.0031  0.1654
 6224TIP3    H140307   5.574   0.480   7.583 -2.3280  1.1470  0.1124
 6224TIP3    H240308   5.541   0.569   7.700  0.8753  0.0190  1.9491
 6225TIP3   OH240309   3.929   0.098   1.071  0.3267 -0.0034  0.3956
 6225TIP3    H140310   3.851   0.058   1.032  1.0293 -0.8133 -0.2215
 6225TIP3    H240311   3.985   0.119   0.996  0.2063  1.6639  0.7570
 6226TIP3   OH240312   0.769   2.118   7.660 -0.3629  0.4317 -0.2899
 6226TIP3    H140313   0.705   2.087   7.597 -1.7768  1.6052  0.5292
 6226TIP3    H240314   0.716   2.160   7.729  1.1407 -0.5463  1.5145
 6227TIP3   OH240315   1.253   7.143   1.015  0.3098  0.7623 -0.1754
 6227TIP3    H140316   1.186   7.212   1.023 -0.3626  0.0699  0.2433
 6227TIP3    H240317   1.231   7.081   1.084  1.1062  0.2784 -0.3523
 6228TIP3   OH240318   2.780   6.469   6.862  0.0845  0.0611  0.1996
 6228TIP3    H140319   2.712   6.436   6.920  0.9079 -1.0563  0.5458
 6228TIP3    H240320   2.862   6.441   6.902  0.6442 -1.5249 -1.9736
 6229TIP3   OH240321   3.051   6.648   1.365 -0.5703 -0.0714 -0.4075
 6229TIP3    H140322   2.982   6.701   1.407 -1.4159 -1.7182  0.3028
 6229TIP3    H240323   3.004   6.595   1.301  0.0006 -1.3705  0.2428
 6230TIP3   OH240324   0.679   0.716   0.657  0.6838 -0.1925  0.0760
 6230TIP3    H140325   0.666   0.744   0.567 -0.2197  0.9634  0.5526
 6230TIP3    H240326   0.644   0.627   0.661  1.9211 -0.7436 -1.0163
 6231TIP3   OH240327   0.990   0.098   1.132 -0.2380  0.4193  0.2804
 6231TIP3    H140328   0.936   0.155   1.077  0.8657  1.8662  0.6745
 6231TIP3    H240329   0.934   0.079   1.208 -0.8459  0.4585 -0.1564
 6232TIP3   OH240330   6.861   6.588   6.910 -0.6317  0.7096  0.4463
 6232TIP3    H140331   6.905   6.585   6.825  1.6594 -2.5538  1.6618
 6232TIP3    H240332   6.852   6.682   6.929 -1.2081  1.5171 -3.3364
 6233TIP3   OH240333   2.073   6.987   0.844  0.1808  0.3999 -0.1099
 6233TIP3    H140334   1.987   6.956   0.816  1.1932 -3.2856  0.6186
 6233TIP3    H240335   2.069   6.986   0.940  0.2972  2.4829 -0.0625
 6234TIP3   OH240336   0.214   6.420   1.545  0.3249 -0.4931  0.2130
 6234TIP3    H140337   0.213   6.325   1.532 -1.2382 -0.9510  3.1709
 6234TIP3    H240338   0.243   6.431   1.636 -2.0972  1.6933  0.7864
 6235TIP3   OH240339   3.180   6.437   0.518  0.1238  0.3939  0.5340
 6235TIP3    H140340   3.202   6.483   0.599  1.5226  1.3032 -0.3468
 6235TIP3    H240341   3.085   6.444   0.511  0.1948  2.1133  1.0383
 6236TIP3   OH240342   6.028   0.928   7.186  0.3845  0.0239  0.2470
 6236TIP3    H140343   6.110   0.947   7.141 -0.1383 -0.3910 -0.8964
 6236TIP3    H240344   6.025   0.990   7.258  0.6301  1.5736 -1.0562
 6237TIP3   OH240345   0.474   3.870   0.799  0.5618  0.8038  0.7976
 6237TIP3    H140346   0.535   3.943   0.784  0.9307 -0.1744 -2.8059
 6237TIP3    H240347   0.392   3.899   0.758  0.9000 -1.0434 -1.2324
 6238TIP3   OH240348   0.295   1.701   1.166 -0.0333 -0.1101  0.0316
 6238TIP3    H140349   0.234   1.630   1.145 -0.8204 -0.2925  2.7248
 6238TIP3    H240350   0.288   1.711   1.261  4.0788 -0.0980  0.4166
 6239TIP3   OH240351   0.939   2.813   0.797 -0.6362 -0.2361 -0.1225
 6239TIP3    H140352   0.857   2.850   0.830 -0.4565 -1.7754  2.1346
 6239TIP3    H240353   0.935   2.720   0.819  0.5016 -0.8891 -2.4930
 6240TIP3   OH240354   6.189   3.404   1.799  0.0530 -0.2178 -0.1739
 6240TIP3    H140355   6.209   3.315   1.827 -0.5862 -0.3208 -0.0262
 6240TIP3    H240356   6.130   3.438   1.866 -0.3806  0.0172 -0.6623
 6241TIP3   OH240357   0.453   0.445   1.810 -0.2989 -0.3284 -0.5699
 6241TIP3    H140358   0.546   0.438   1.833 -0.4370  0.2887  0.2003
 6241TIP3    H240359   0.452   0.448   1.714  0.6977  2.6186 -0.5390
 6242TIP3   OH240360   6.130   0.311   6.612 -0.1838 -0.1486  0.3242
 6242TIP3    H140361   6.161   0.348   6.529 -0.4077  1.6031  1.0169
 6242TIP3    H240362   6.210   0.299   6.663 -0.2187  0.4031  0.5104
 6243TIP3   OH240363   1.447   0.565   0.815  0.2784 -0.1008  0.8640
 6243TIP3    H140364   1.412   0.485   0.855  1.1317 -0.7777  0.2591
 6243TIP3    H240365   1.426   0.557   0.722  0.7355  0.1909  0.7357
 6244TIP3   OH240366   2.477   3.555   1.541 -0.1554  0.7105 -0.1458
 6244TIP3    H140367   2.537   3.616   1.498  0.4295  0.1217 -0.1765
 6244TIP3    H240368   2.478   3.477   1.484  0.8701 -0.2004  1.0916
 6245TIP3   OH240369   1.656   3.488   1.148 -0.6261 -0.1221  0.3063
 6245TIP3    H140370   1.726   3.496   1.214 -1.2790  0.5150  0.9230
 6245TIP3    H240371   1.679   3.408   1.100 -0.1786 -0.6472  1.3544
 6246TIP3   OH240372   3.990   5.934   1.277  0.1098 -0.5083 -0.1859
 6246TIP3    H140373   4.067   5.989   1.262  0.5741 -1.3718 -1.0479
 6246TIP3    H240374   3.990   5.918   1.371  0.2808  0.5060 -0.0097
 6247TIP3   OH240375   0.513   4.975   1.722  0.3158  0.4856 -0.8524
 6247TIP3    H140376   0.470   5.058   1.701 -0.5499  0.7321  1.7580
 6247TIP3    H240377   0.590   5.000   1.773  0.1727 -0.3185 -0.2477
 6248TIP3   OH240378   6.549   4.430   1.559 -0.3539 -0.2731 -0.3726
 6248TIP3    H140379   6.491   4.491   1.513 -2.3358 -0.9482  1.1250
 6248TIP3    H240380   6.546   4.458   1.650  0.5156 -1.2152 -0.0462
 6249TIP3   OH240381   5.805   2.430   0.458  0.1787 -0.0120  0.4827
 6249TIP3    H140382   5.815   2.525   0.464  2.2693 -0.2260  0.9357
 6249TIP3    H240383   5.715   2.417   0.429  0.2662  2.1500 -0.8807
 6250TIP3   OH240384   2.159   4.917   7.122  0.0595  0.1282 -0.2434
 6250TIP3    H140385   2.160   4.962   7.038  1.0022  0.2135 -0.1869
 6250TIP3    H240386   2.159   4.824   7.100  1.2304  0.1514 -0.3230
 6251TIP3   OH240387   2.742   3.458   0.692 -0.0909  0.0120 -0.1475
 6251TIP3    H140388   2.805   3.506   0.747  0.3299 -1.2605  0.4898
 6251TIP3    H240389   2.791   3.382   0.660 -0.8662 -0.1837 -0.8784
 6252TIP3   OH240390   7.092   0.935   1.474 -0.4412  0.6633  0.5211
 6252TIP3    H140391   7.186   0.951   1.467 -0.1096 -0.9940  0.9463
 6252TIP3    H240392   7.079   0.905   1.564 -1.1171 -0.6889 -0.0095
 6253TIP3   OH240393   0.233   4.457   6.379 -0.5821  0.2132  0.0027
 6253TIP3    H140394   0.193   4.495   6.300  0.2463 -0.3709 -0.7153
 6253TIP3    H240395   0.310   4.512   6.396 -0.3336 -0.1128 -0.0476
 6254TIP3   OH240396   6.406   5.692   0.631  0.5399  0.0523  0.2109
 6254TIP3    H140397   6.333   5.633   0.614  0.8385 -0.6332  1.2542
 6254TIP3    H240398   6.383   5.736   0.713  2.0526 -1.3885  1.4284
 6255TIP3   OH240399   0.833   4.932   6.089 -0.5771  0.1422 -0.1660
 6255TIP3    H140400   0.898   5.001   6.082  1.2495 -1.6373 -1.0360
 6255TIP3    H240401   0.842   4.899   6.179  0.4056 -0.7456 -0.5816
 6256TIP3   OH240402   7.074   5.858   0.333  0.0751 -0.4373 -0.5813
 6256TIP3    H140403   7.039   5.831   0.248 -1.5369 -1.8489  0.5002
 6256TIP3    H240404   6.997   5.891   0.381  0.4866 -2.0755  1.2633
 6257TIP3   OH240405   5.934   2.785   7.350  0.3027 -0.5938 -0.1310
 6257TIP3    H140406   5.926   2.707   7.295  1.9761 -1.3521  0.6421
 6257TIP3    H240407   5.873   2.770   7.422 -0.2935 -0.6106 -0.6364
 6258TIP3   OH240408   2.721   2.261   6.708  0.1316 -0.1854 -0.2514
 6258TIP3    H140409   2.714   2.311   6.627 -0.7841  1.0677  0.5663
 6258TIP3    H240410   2.815   2.255   6.724  0.3000  0.0243 -1.1264
 6259TIP3   OH240411   3.838   0.448   7.932 -0.0894 -0.0618 -0.0232
 6259TIP3    H140412   3.743   0.446   7.944 -0.2965 -2.1740 -1.8899
 6259TIP3    H240413   3.853   0.521   7.872 -0.6863 -0.6018 -0.8445
 6260TIP3   OH240414   1.656   6.186   1.423 -0.4946 -0.8575  0.6384
 6260TIP3    H140415   1.684   6.162   1.511 -0.4788  1.3862  1.2885
 6260TIP3    H240416   1.572   6.141   1.411 -1.3216  0.1328  2.4832
 6261TIP3   OH240417   1.285   1.695   1.667  0.1018  0.1035  0.3851
 6261TIP3    H140418   1.268   1.788   1.659  0.7730  0.1498 -0.6877
 6261TIP3    H240419   1.233   1.667   1.743 -2.4795  0.7587 -1.0760
 6262TIP3   OH240420   0.843   6.609   1.129  0.1135 -0.0032 -0.2936
 6262TIP3    H140421   0.834   6.515   1.142 -1.1746  0.0965 -0.3700
 6262TIP3    H240422   0.787   6.648   1.197  0.4458  0.7009 -0.4191
 6263TIP3   OH240423   5.217   6.395   0.298  0.4210 -0.5200  0.1419
 6263TIP3    H140424   5.206   6.348   0.215  1.7861 -1.4578  0.4757
 6263TIP3    H240425   5.312   6.393   0.314  0.3603  1.3153  0.7656
 6264TIP3   OH240426   6.680   3.620   0.168 -0.2177 -0.1063 -0.1827
 6264TIP3    H140427   6.718   3.609   0.256  0.2161  3.6449  0.2099
 6264TIP3    H240428   6.585   3.619   0.183 -0.1443  0.5453  0.3631
 6265TIP3   OH240429   6.387   5.204   0.259  0.4106  0.1889 -0.6556
 6265TIP3    H140430   6.293   5.216   0.243  0.2466 -0.5978 -0.2798
 6265TIP3    H240431   6.400   5.233   0.349  0.4809  0.0575 -0.6234
 6266TIP3   OH240432   3.698   0.876   0.688  0.2064  0.0598 -0.0114
 6266TIP3    H140433   3.753   0.845   0.760 -0.6493  1.8014  1.4340
 6266TIP3    H240434   3.759   0.900   0.619  1.2350  1.2884  1.2994
 6267TIP3   OH240435   0.056   1.923   6.814 -0.3338 -0.0388  0.3985
 6267TIP3    H140436   0.094   1.838   6.796 -0.4399 -0.2268  1.0682
 6267TIP3    H240437  -0.014   1.906   6.877 -0.4362  0.5218  0.4419
 6268TIP3   OH240438   6.584   5.649   7.753  0.0943 -0.6172  0.1075
 6268TIP3    H140439   6.579   5.665   7.659  1.2321 -1.0973 -0.0484
 6268TIP3    H240440   6.628   5.726   7.788 -0.8148 -0.1936  0.3210
 6269TIP3   OH240441   2.897   6.368   0.076  0.2834  0.3874 -0.1670
 6269TIP3    H140442   2.818   6.352   0.024  0.3527 -0.4392 -0.0284
 6269TIP3    H240443   2.953   6.420   0.019 -0.0142  0.2515 -0.5834
 6270TIP3   OH240444   6.251   2.582   7.005  0.2243 -0.1214 -0.6323
 6270TIP3    H140445   6.296   2.617   6.928  0.8159  1.3503  0.3488
 6270TIP3    H240446   6.208   2.658   7.045  0.5801 -0.7093  0.9278
 6271TIP3   OH240447   1.804   3.222   6.966  0.5224  0.1098  0.1118
 6271TIP3    H140448   1.748   3.197   6.893 -0.6458 -0.5303  1.1928
 6271TIP3    H240449   1.837   3.309   6.942 -1.5133  0.8162 -0.2552
 6272TIP3   OH240450   0.890   5.905   6.346  0.1201 -0.2464 -0.0195
 6272TIP3    H140451   0.981   5.933   6.339  0.9485 -2.9453 -0.2055
 6272TIP3    H240452   0.845   5.953   6.276  1.9700 -1.1838 -1.9098
 6273TIP3   OH240453   0.835   4.143   1.085 -0.1451 -0.3175 -0.4151
 6273TIP3    H140454   0.750   4.176   1.113  0.1546 -0.2557  0.4610
 6273TIP3    H240455   0.873   4.214   1.034  1.2221  1.4432  2.8991
 6274TIP3   OH240456   0.826   0.515   1.358  0.1445 -0.2463 -0.0087
 6274TIP3    H140457   0.804   0.564   1.437 -0.0407  0.6988 -0.6388
 6274TIP3    H240458   0.921   0.525   1.349  0.2989 -1.1131  0.5874
 6275TIP3   OH240459   5.779   5.657   0.800  0.0345  0.1609  0.6210
 6275TIP3    H140460   5.874   5.647   0.791 -0.2481 -1.5731 -0.8285
 6275TIP3    H240461   5.761   5.635   0.891  0.4762 -5.1004 -0.3643
 6276TIP3   OH240462   0.166   4.350   0.402 -1.1091  0.2987  0.6200
 6276TIP3    H140463   0.073   4.332   0.407 -1.1087  0.2927  0.6057
 6276TIP3    H240464   0.208   4.273   0.442 -1.1296  0.5470  1.1230
 6277TIP3   OH240465   5.479   5.454   8.061  0.4903  0.6917 -0.7279
 6277TIP3    H140466   5.447   5.538   8.031  0.8529  0.8073 -0.8007
 6277TIP3    H240467   5.434   5.438   8.144 -1.5116 -0.2465 -1.9653
 6278TIP3   OH240468   2.885   0.145   6.034  0.1346  0.2585  0.6987
 6278TIP3    H140469   2.900   0.093   5.955 -0.1312 -0.6688  1.2628
 6278TIP3    H240470   2.858   0.231   6.000 -0.7729 -0.3734 -0.2125
 6279TIP3   OH240471   2.856   2.969   1.155 -0.0852 -0.2245 -0.1687
 6279TIP3    H140472   2.886   2.899   1.096 -0.3393  0.0345 -0.6098
 6279TIP3    H240473   2.776   3.002   1.115 -1.0835 -1.0518  1.1222
 6280TIP3   OH240474   2.023   6.945   1.124  0.2612 -0.2603 -0.1893
 6280TIP3    H140475   2.063   6.860   1.143  0.6439  0.2792  1.4964
 6280TIP3    H240476   1.964   6.961   1.197  1.7411  1.8527  0.5725
 6281TIP3   OH240477   1.743   0.751   6.804  0.0742  0.0046  0.3674
 6281TIP3    H140478   1.755   0.785   6.892 -0.0314 -0.3178  0.5075
 6281TIP3    H240479   1.824   0.773   6.758  0.9370 -1.5792  1.1173
 6282TIP3   OH240480   1.580   3.613   1.594  0.5251 -0.2418  0.2472
 6282TIP3    H140481   1.546   3.606   1.684 -2.1922 -1.3264 -0.8243
 6282TIP3    H240482   1.560   3.529   1.554  2.4521 -0.0692 -1.1778
 6283TIP3   OH240483   6.541   5.479   0.969 -0.1698 -0.2287  0.5254
 6283TIP3    H140484   6.451   5.488   1.002  0.1884 -0.0865  1.4745
 6283TIP3    H240485   6.596   5.500   1.044  0.6693 -1.7079  0.3383
 6284TIP3   OH240486   0.067   5.606   0.938 -0.4083 -1.0646 -0.2594
 6284TIP3    H140487   0.163   5.612   0.930 -0.5816  0.0522 -1.8451
 6284TIP3    H240488   0.041   5.549   0.866 -1.0197 -0.5730 -0.4266
 6285TIP3   OH240489   3.437   0.850   0.707  0.0718  0.0277 -0.3903
 6285TIP3    H140490   3.532   0.861   0.696  0.2043 -0.7751 -0.0683
 6285TIP3    H240491   3.427   0.805   0.790 -0.6479  0.9335  0.0227
 6286TIP3   OH240492   3.698   2.114   7.582 -0.0030 -0.7361 -0.3404
 6286TIP3    H140493   3.677   2.033   7.535  0.2485 -1.4187  0.6978
 6286TIP3    H240494   3.674   2.095   7.673 -0.6974  0.6416 -0.2287
 6287TIP3   OH240495   1.922   0.187   0.058  0.5491 -0.1384 -0.1723
 6287TIP3    H140496   1.953   0.277   0.070 -1.1873  0.4252  0.2130
 6287TIP3    H240497   1.983   0.149  -0.005  0.3502  1.8202 -1.5861
 6288TIP3   OH240498   1.983   0.299   7.451  0.5532 -0.4665 -0.2304
 6288TIP3    H140499   1.978   0.217   7.501  0.7506  0.2609  1.0158
 6288TIP3    H240500   1.892   0.330   7.448  0.7815  0.4410  1.3480
 6289TIP3   OH240501   0.836   5.808   6.843  0.8518  0.5685  0.3794
 6289TIP3    H140502   0.930   5.821   6.832  0.6696  0.6847 -1.2075
 6289TIP3    H240503   0.807   5.771   6.760 -0.8233  2.4198  0.0814
 6290TIP3   OH240504   4.454   4.073   7.990 -0.3462 -0.9102  0.1372
 6290TIP3    H140505   4.439   3.978   7.995  0.7706 -0.9772  3.4205
 6290TIP3    H240506   4.383   4.111   8.042 -0.6228  0.0468 -0.9308
 6291TIP3   OH240507   6.381   0.278   6.731 -0.6280  0.1982  1.3027
 6291TIP3    H140508   6.368   0.237   6.645 -0.6957  1.1397  0.8638
 6291TIP3    H240509   6.439   0.217   6.777 -0.8085 -0.4516  0.6912
 6292TIP3   OH240510   2.277   0.115   1.868 -0.2021 -0.2506 -0.3549
 6292TIP3    H140511   2.354   0.068   1.900 -0.1105  0.8400  1.0282
 6292TIP3    H240512   2.208   0.095   1.931 -0.2234  1.2712  0.1314
 6293TIP3   OH240513   6.689   0.039   0.665 -0.3231  0.2658 -0.1340
 6293TIP3    H140514   6.742   0.016   0.588  0.9626 -0.8563  1.0396
 6293TIP3    H240515   6.695   0.134   0.670 -0.8022  0.4018 -1.6784
 6294TIP3   OH240516   3.055   7.053   7.304 -0.0638  0.8175 -0.6432
 6294TIP3    H140517   3.103   7.123   7.347 -1.0575  0.2914  1.3617
 6294TIP3    H240518   3.120   6.983   7.292  0.0528  0.7104  0.6198
 6295TIP3   OH240519   2.733   0.152   0.315  0.2030  0.0983 -0.5278
 6295TIP3    H140520   2.754   0.245   0.313 -0.0314  0.1829  0.5500
 6295TIP3    H240521   2.818   0.108   0.313  0.3000  0.3246 -1.4355
 6296TIP3   OH240522   0.390   1.066   6.883  0.1924  0.1821  0.3024
 6296TIP3    H140523   0.316   1.026   6.836 -0.1625  1.2263 -0.0557
 6296TIP3    H240524   0.446   0.993   6.906 -0.8026 -0.5955  0.2948
 6297TIP3   OH240525   0.825   6.310   1.868 -0.2191  0.0142 -0.1051
 6297TIP3    H140526   0.834   6.214   1.867 -2.0342 -0.1828  0.7439
 6297TIP3    H240527   0.844   6.334   1.959  1.3475  0.5963 -0.5718
 6298TIP3   OH240528   0.725   4.675   7.353  0.0813 -0.5228  0.0155
 6298TIP3    H140529   0.790   4.733   7.393  0.9284 -0.8569 -0.8520
 6298TIP3    H240530   0.694   4.621   7.426 -0.0232  0.3703  0.6442
 6299TIP3   OH240531   3.780   6.372   6.201 -0.3457 -0.0086 -0.1831
 6299TIP3    H140532   3.871   6.343   6.187 -0.3066 -0.1278  0.3152
 6299TIP3    H240533   3.741   6.369   6.114 -0.4401 -1.9322 -0.0938
 6300TIP3   OH240534   0.061   3.927   0.917  0.3730  0.3835 -0.0167
 6300TIP3    H140535  -0.022   3.927   0.870  0.9168  0.9417 -0.9925
 6300TIP3    H240536   0.044   3.977   0.996 -0.4731 -0.3239  0.2583
 6301TIP3   OH240537   1.372   1.433   7.214 -0.1770  0.2981  0.9124
 6301TIP3    H140538   1.423   1.461   7.138 -0.7171 -2.2329 -0.4390
 6301TIP3    H240539   1.437   1.404   7.278  0.2263  1.1859  0.9056
 6302TIP3   OH240540   6.905   6.920   7.417  0.2545 -0.1498  0.2000
 6302TIP3    H140541   6.855   6.843   7.389 -1.4488  1.2860 -0.7653
 6302TIP3    H240542   6.840   6.990   7.422  1.4721  0.8515  2.7562
 6303TIP3   OH240543   2.719   5.770   1.655 -0.4737 -0.2950 -0.4162
 6303TIP3    H140544   2.645   5.721   1.691 -0.6423  0.0682 -0.2713
 6303TIP3    H240545   2.688   5.801   1.570 -0.0221 -1.2867 -0.9534
 6304TIP3   OH240546   0.800   2.675   8.014  0.6928  0.3816 -0.0707
 6304TIP3    H140547   0.782   2.769   8.014 -2.8013 -0.1968 -1.0707
 6304TIP3    H240548   0.835   2.657   8.101  1.1646  2.5665  0.2150
 6305TIP3   OH240549   5.815   0.913   2.277 -0.4299 -0.1847  0.8362
 6305TIP3    H140550   5.768   0.947   2.354  1.0899 -0.9280  2.1270
 6305TIP3    H240551   5.748   0.869   2.225 -1.3948 -0.1533  2.0269
 6306TIP3   OH240552   4.264   5.177   0.095  0.8822  0.7527 -0.6605
 6306TIP3    H140553   4.359   5.172   0.105  0.5880 -0.7225  1.5348
 6306TIP3    H240554   4.237   5.089   0.069 -0.0246  0.8461 -0.0797
 6307TIP3   OH240555   2.131   3.069   0.362 -0.1942  1.0716 -0.0135
 6307TIP3    H140556   2.142   3.163   0.377  2.4310  0.6237  1.1545
 6307TIP3    H240557   2.137   3.059   0.267 -1.9431  2.2207 -0.2661
 6308TIP3   OH240558   3.294   0.358   6.118  0.2660 -0.2059  0.2504
 6308TIP3    H140559   3.267   0.313   6.039  0.7501  0.0727 -0.0750
 6308TIP3    H240560   3.257   0.306   6.189 -2.2698  0.8924 -0.1936
 6309TIP3   OH240561   0.533   1.848   7.455 -0.7996  0.6880  0.1944
 6309TIP3    H140562   0.521   1.866   7.361  0.0027  0.1213 -0.0197
 6309TIP3    H240563   0.512   1.930   7.498  1.6725  1.8432 -0.6964
 6310TIP3   OH240564   1.172   6.547   0.111 -0.1016 -0.4880 -0.0522
 6310TIP3    H140565   1.154   6.582   0.198 -3.1445 -2.7185  0.2742
 6310TIP3    H240566   1.090   6.559   0.062  0.5925 -2.0382 -1.6596
 6311TIP3   OH240567   3.289   6.437   7.150  0.2407 -0.0472 -0.1965
 6311TIP3    H140568   3.250   6.458   7.235  0.8432  2.1261 -0.4306
 6311TIP3    H240569   3.266   6.511   7.094  1.0940 -0.7679 -1.5064
 6312TIP3   OH240570   0.784   0.800   6.654  0.0941  0.2660  0.0606
 6312TIP3    H140571   0.693   0.772   6.663  0.6929 -1.7130  0.2387
 6312TIP3    H240572   0.823   0.780   6.739  0.4637  2.0396  0.3171
 6313TIP3   OH240573   6.823   2.096   7.223  0.3254  0.4402  0.4146
 6313TIP3    H140574   6.810   2.039   7.299 -0.8829  0.2226  0.0556
 6313TIP3    H240575   6.754   2.070   7.161  1.0129  0.9224 -0.5730
 6314TIP3   OH240576   4.589   6.895   8.096 -0.5579  0.1739 -0.4540
 6314TIP3    H140577   4.507   6.896   8.048 -0.3218  3.7580 -0.9267
 6314TIP3    H240578   4.656   6.907   8.029  0.2686 -1.0831  0.1195
 6315TIP3   OH240579   0.907   0.236   6.513 -0.2672  0.0258  0.0795
 6315TIP3    H140580   0.887   0.144   6.495 -2.1302 -0.0858  2.4446
 6315TIP3    H240581   0.823   0.281   6.501  0.0429  1.0038  1.5056
 6316TIP3   OH240582   2.914   1.074   6.964 -0.3200 -0.0080 -0.0856
 6316TIP3    H140583   2.976   1.009   6.996  1.7412  2.5393  1.2698
 6316TIP3    H240584   2.952   1.106   6.883 -0.8256  0.2229 -0.2360
 6317TIP3   OH240585   1.556   4.450   0.996  0.3165 -0.3588 -0.1599
 6317TIP3    H140586   1.515   4.367   1.020  0.8304 -0.9459 -1.2648
 6317TIP3    H240587   1.546   4.455   0.901  2.0621 -0.1158 -0.3451
 6318TIP3   OH240588   2.933   1.687   1.167  0.0800  0.1141 -0.3636
 6318TIP3    H140589   2.929   1.779   1.195 -0.4136 -0.2640  0.8386
 6318TIP3    H240590   2.865   1.644   1.218  1.4326 -1.2445  0.3099
 6319TIP3   OH240591   1.813   0.123   7.684  0.6360  0.2560  0.5386
 6319TIP3    H140592   1.848   0.113   7.773  1.2174  0.4118  0.3285
 6319TIP3    H240593   1.734   0.069   7.683 -0.8037  2.2595  1.9334
 6320TIP3   OH240594   1.260   5.864   6.519  1.0330  0.3469 -1.0074
 6320TIP3    H140595   1.333   5.891   6.574  1.3883  0.2475 -1.4200
 6320TIP3    H240596   1.241   5.942   6.465  0.5930  0.4914 -0.6414
 6321TIP3   OH240597   6.716   2.319   0.476  0.7769 -0.6611 -0.3562
 6321TIP3    H140598   6.687   2.407   0.450 -1.4217 -0.9334  1.1080
 6321TIP3    H240599   6.729   2.273   0.393 -1.4354 -0.0173 -1.1025
 6322TIP3   OH240600   6.838   3.892   0.574  0.1824 -0.5470 -0.8315
 6322TIP3    H140601   6.818   3.959   0.509  1.8053  0.4912 -0.2846
 6322TIP3    H240602   6.837   3.810   0.525 -2.5645 -0.2538 -1.3643
 6323TIP3   OH240603   6.103   6.526   0.238  0.4900  0.0140  0.2605
 6323TIP3    H140604   6.180   6.482   0.202  1.1183  1.7365 -0.5305
 6323TIP3    H240605   6.029   6.489   0.189  0.6768 -2.3174  1.6560
 6324TIP3   OH240606   3.236   4.558   7.948 -0.2958  0.5762  0.3519
 6324TIP3    H140607   3.236   4.653   7.964 -2.2923  0.4265  1.3909
 6324TIP3    H240608   3.176   4.523   8.014  2.1643 -1.6803  1.4866
 6325TIP3   OH240609   2.604   3.943   7.638 -0.0543  0.4991  0.0302
 6325TIP3    H140610   2.582   4.000   7.565 -3.1849  1.5623  1.7324
 6325TIP3    H240611   2.671   3.992   7.687  1.1401  0.3232 -1.3780
 6326TIP3   OH240612   6.362   0.711   7.480  0.0949 -0.7752  0.1637
 6326TIP3    H140613   6.415   0.636   7.452  1.4884  0.8562 -1.6973
 6326TIP3    H240614   6.272   0.680   7.472  0.6816 -2.6848  0.7048
 6327TIP3   OH240615   1.660   0.627   8.046 -0.3511  0.4736 -0.1351
 6327TIP3    H140616   1.692   0.544   8.010 -1.1378  0.4321 -0.7482
 6327TIP3    H240617   1.565   0.620   8.042 -0.5395 -0.2977  3.6935
 6328TIP3   OH240618   1.320   0.925   1.339  0.1348  0.7505  0.0330
 6328TIP3    H140619   1.390   0.866   1.366 -1.6930 -1.1792  0.6343
 6328TIP3    H240620   1.262   0.930   1.415 -0.2194  2.6209 -0.3338
 6329TIP3   OH240621   0.252   6.856   6.171  0.0998 -0.2692  0.5499
 6329TIP3    H140622   0.292   6.836   6.086 -1.5131 -0.0915 -0.2653
 6329TIP3    H240623   0.194   6.929   6.153  0.2363  0.1959  1.9586
 6330TIP3   OH240624   1.044   7.052   0.288  0.0955 -0.0909 -0.4235
 6330TIP3    H140625   0.989   7.109   0.343 -0.9213 -0.5456 -0.9414
 6330TIP3    H240626   1.022   6.964   0.317 -1.3045 -0.3962 -2.3087
 6331TIP3   OH240627   2.802   4.816   0.003 -0.6167  0.9370  0.1782
 6331TIP3    H140628   2.837   4.818  -0.086 -1.5552  3.4803 -0.1849
 6331TIP3    H240629   2.725   4.873  -0.001 -0.3659  1.4931  2.7279
 6332TIP3   OH240630   0.242   1.071   0.236 -0.1463  0.1390  0.1982
 6332TIP3    H140631   0.306   1.107   0.175 -1.0782 -0.5202 -1.2105
 6332TIP3    H240632   0.157   1.101   0.203 -0.7034 -0.6855  0.8492
 6333TIP3   OH240633   4.463   0.622   1.007  0.1177 -0.0282  0.1735
 6333TIP3    H140634   4.393   0.570   1.046  1.1659 -0.0272  2.1123
 6333TIP3    H240635   4.426   0.710   0.997 -0.9894 -0.6422 -1.2313
 6334TIP3   OH240636   0.210   4.943   0.733  0.0427  0.2182  0.0582
 6334TIP3    H140637   0.160   4.864   0.714  0.3524 -0.3567  1.5789
 6334TIP3    H240638   0.295   4.928   0.691  0.5288 -0.8071  1.3539
 6335TIP3   OH240639   1.474   0.357   1.537  0.2647 -0.5994 -0.3330
 6335TIP3    H140640   1.389   0.399   1.524  0.2281 -0.7223 -0.4993
 6335TIP3    H240641   1.509   0.397   1.617  0.0347 -0.5771 -0.2437
 6336TIP3   OH240642   2.198   4.620   0.782 -0.3592 -0.4361 -0.6947
 6336TIP3    H140643   2.119   4.667   0.754  0.4088  0.6094 -1.1390
 6336TIP3    H240644   2.266   4.652   0.724  0.8253  0.1899  1.0225
 6337TIP3   OH240645   7.150   3.419   0.051 -0.1308 -0.3463  0.7620
 6337TIP3    H140646   7.212   3.488   0.072  0.4580 -1.1620  1.7148
 6337TIP3    H240647   7.145   3.420  -0.045  3.6102 -2.2130  0.4566
 6338TIP3   OH240648   6.970   4.916   1.985  0.3459 -0.1873 -0.2817
 6338TIP3    H140649   7.048   4.882   2.029  0.0752 -0.5033 -0.0447
 6338TIP3    H240650   6.897   4.883   2.037  0.0390 -0.2011 -0.7207
 6339TIP3   OH240651   0.813   0.524   7.053  0.0989 -0.2052  0.8475
 6339TIP3    H140652   0.889   0.562   7.098 -0.5724  0.8016  1.1591
 6339TIP3    H240653   0.799   0.440   7.096  0.2505  0.1788  1.6703
 6340TIP3   OH240654   1.762   3.436   7.302  0.0786  0.4892  0.2738
 6340TIP3    H140655   1.729   3.478   7.222 -0.3054 -1.6733 -0.7608
 6340TIP3    H240656   1.708   3.472   7.372 -1.1132  0.7551 -0.7544
 6341TIP3   OH240657   3.725   4.812   1.700 -0.0187  0.3954  0.5747
 6341TIP3    H140658   3.715   4.759   1.779  1.0627  1.1721  1.2502
 6341TIP3    H240659   3.740   4.901   1.733  1.6695  0.5185 -0.4786
 6342TIP3   OH240660   1.482   1.796   0.167  0.3025  0.5537  0.0322
 6342TIP3    H140661   1.504   1.717   0.217  1.4550 -0.3869 -1.9058
 6342TIP3    H240662   1.386   1.798   0.168  0.2965 -0.0030  1.4209
 6343TIP3   OH240663   4.686   1.459   1.315  0.3693 -0.2159  0.3546
 6343TIP3    H140664   4.650   1.442   1.401 -0.0872 -0.2284  0.1610
 6343TIP3    H240665   4.612   1.450   1.255  0.6143  0.1152 -0.0021
 6344TIP3   OH240666   2.454   0.143   0.280  0.0856 -0.2525 -0.0394
 6344TIP3    H140667   2.546   0.164   0.262 -0.0035 -0.5676 -0.8581
 6344TIP3    H240668   2.410   0.228   0.277  0.4939  0.0341  1.3169
 6345TIP3   OH240669   1.572   6.410   6.174  0.1284 -0.0571  0.3428
 6345TIP3    H140670   1.578   6.503   6.195 -2.2678  0.4750 -1.0428
 6345TIP3    H240671   1.608   6.403   6.086 -0.4556 -0.2786  0.1170
 6346TIP3   OH240672   7.151   3.246   7.294 -0.1682  0.7400 -0.2421
 6346TIP3    H140673   7.115   3.252   7.206  0.0792 -0.3778 -0.4321
 6346TIP3    H240674   7.238   3.286   7.287 -0.2050  0.7779 -0.4808
 6347TIP3   OH240675   0.117   3.258   7.547 -0.0936  0.5680 -0.1525
 6347TIP3    H140676   0.075   3.263   7.461  1.3885  0.8773 -0.8661
 6347TIP3    H240677   0.092   3.340   7.591 -1.8640 -0.1300  0.2129
 6348TIP3   OH240678   0.170   0.392   6.152  0.3446  0.1060 -0.6805
 6348TIP3    H140679   0.221   0.359   6.227 -1.4792 -0.9038  0.1550
 6348TIP3    H240680   0.187   0.329   6.082 -0.5333 -0.8057 -0.0892
 6349TIP3   OH240681   1.338   6.657   2.098  0.0404  0.5460 -0.7801
 6349TIP3    H140682   1.418   6.657   2.150 -0.2576  0.3101 -0.3153
 6349TIP3    H240683   1.363   6.695   2.014  0.9554 -0.8232 -1.1378
 6350TIP3   OH240684   1.320   2.596   7.799  0.2386  0.0684  0.9962
 6350TIP3    H140685   1.238   2.574   7.755 -1.0622 -0.6828  3.6819
 6350TIP3    H240686   1.312   2.690   7.819  0.9122  0.4543 -0.4769
 6351TIP3   OH240687   1.134   3.290   1.301  0.1114 -0.4423  0.1034
 6351TIP3    H140688   1.224   3.322   1.306 -0.5113  1.1102  1.8015
 6351TIP3    H240689   1.118   3.276   1.208  1.4045  1.3719 -0.4073
 6352TIP3   OH240690   1.605   5.407   1.268 -0.7100  0.3180 -0.0362
 6352TIP3    H140691   1.533   5.436   1.324  0.6661  0.7712  1.5316
 6352TIP3    H240692   1.631   5.323   1.304  0.8089  1.0541  0.6151
 6353TIP3   OH240693   0.466   7.067   0.447  0.0133 -0.0026 -0.2370
 6353TIP3    H140694   0.384   7.108   0.418  0.4719  0.7341 -0.4793
 6353TIP3    H240695   0.476   6.991   0.389 -0.6516 -0.2634 -0.0150
 6354TIP3   OH240696   1.218   3.348   0.063 -0.4293 -0.5488 -0.2900
 6354TIP3    H140697   1.290   3.409   0.078  0.1504 -1.3411  0.1957
 6354TIP3    H240698   1.258   3.273   0.019 -1.4080  0.0395 -2.2499
 6355TIP3   OH240699   5.022   4.461   1.226 -0.2111  0.2729  0.7668
 6355TIP3    H140700   5.081   4.528   1.261  1.8434 -1.5404  0.8525
 6355TIP3    H240701   4.967   4.436   1.300 -1.5851  2.4255  0.5315
 6356TIP3   OH240702   4.060   4.248   1.618  0.1491  0.2377  0.5903
 6356TIP3    H140703   4.102   4.162   1.615  0.6900  0.5293 -0.3071
 6356TIP3    H240704   3.997   4.241   1.690 -0.9486 -1.4211 -0.4916
 6357TIP3   OH240705   5.251   3.758   8.094 -0.5029  0.0992 -0.2583
 6357TIP3    H140706   5.259   3.776   8.000 -2.5646 -0.7751 -0.6492
 6357TIP3    H240707   5.294   3.831   8.137  2.5642 -0.6556 -1.8973
 6358TIP3   OH240708   4.717   1.248   0.856 -0.3904  0.3796  0.0898
 6358TIP3    H140709   4.668   1.180   0.809  0.3908 -0.0296 -0.1389
 6358TIP3    H240710   4.652   1.315   0.876 -0.5572  0.9852 -2.3954
 6359TIP3   OH240711   0.077   4.974   0.382 -0.1283 -0.9337  0.3628
 6359TIP3    H140712   0.073   5.047   0.444 -0.5821 -0.5032 -0.1686
 6359TIP3    H240713   0.035   4.901   0.428  1.6190 -1.2822  1.4506
 6360TIP3   OH240714   6.939   0.142   0.997  0.5089 -0.6965  0.8152
 6360TIP3    H140715   6.964   0.162   1.087  1.4891  0.8018  0.2433
 6360TIP3    H240716   6.845   0.127   1.000  0.3671  0.3589  1.9432
 6361TIP3   OH240717   6.455   4.624   0.618 -0.1766  0.0482 -0.0570
 6361TIP3    H140718   6.518   4.591   0.682 -0.3787 -0.4469 -0.1117
 6361TIP3    H240719   6.409   4.695   0.664  0.8017  0.7855 -0.2073
 6362TIP3   OH240720   6.015   4.238   1.262  0.1743 -0.0413  0.2245
 6362TIP3    H140721   5.950   4.213   1.196  1.1970  0.2995 -0.9255
 6362TIP3    H240722   6.052   4.320   1.229 -0.3100  0.9105  1.9445
 6363TIP3   OH240723   5.443   0.238   0.030 -0.9932  0.3437 -0.3637
 6363TIP3    H140724   5.394   0.299   0.085  0.1462  1.6706 -0.7587
 6363TIP3    H240725   5.402   0.244  -0.056 -0.7056  0.7911 -0.4745
 6364TIP3   OH240726   6.089   6.152   0.685  0.9810 -0.1591 -0.1039
 6364TIP3    H140727   6.002   6.126   0.715  1.2135 -2.4712 -1.3256
 6364TIP3    H240728   6.142   6.158   0.764 -0.1643  0.8270  0.6036
 6365TIP3   OH240729   1.424   6.242   0.991  0.4172 -0.8006  0.2881
 6365TIP3    H140730   1.511   6.276   0.970  0.2313  0.1194  0.9900
 6365TIP3    H240731   1.371   6.320   1.006 -0.4110 -1.3687  0.3364
 6366TIP3   OH240732   4.548   5.597   0.698  0.3299  0.5757  0.3629
 6366TIP3    H140733   4.628   5.577   0.649  0.4842  1.5037  0.2360
 6366TIP3    H240734   4.528   5.516   0.745  1.0347  0.1636 -0.0428
 6367TIP3   OH240735   0.845   7.009   1.110  0.5744 -0.0987 -0.0836
 6367TIP3    H140736   0.934   7.042   1.118  0.6031 -0.4509  1.3380
 6367TIP3    H240737   0.843   6.931   1.166 -0.8159  0.3496  0.5406
 6368TIP3   OH240738   2.037   6.440   0.511  0.9420 -0.1177 -0.1974
 6368TIP3    H140739   2.012   6.379   0.442 -1.5213 -0.0767  0.5914
 6368TIP3    H240740   2.125   6.470   0.487  1.0929 -1.9274 -2.0030
 6369TIP3   OH240741   1.566   6.175   0.514 -0.5841 -0.1141 -0.4016
 6369TIP3    H140742   1.641   6.122   0.541 -0.3363 -0.7123 -2.1794
 6369TIP3    H240743   1.501   6.161   0.582  1.3075  1.3126  1.7608
 6370TIP3   OH240744   0.493   6.087   8.109  0.2899 -0.5553  0.1979
 6370TIP3    H140745   0.509   6.172   8.149 -0.6151 -0.8893  1.2921
 6370TIP3    H240746   0.568   6.033   8.135  0.2077 -0.4753  0.5999
 6371TIP3   OH240747   2.145   1.524   8.075 -0.5123 -0.2715 -0.7593
 6371TIP3    H140748   2.067   1.564   8.036 -0.8398 -1.9744 -1.9583
 6371TIP3    H240749   2.114   1.489   8.159 -0.5765  0.6986 -0.3763
 6372TIP3   OH240750   1.923   3.568   0.357 -0.3780 -0.3182 -0.1145
 6372TIP3    H140751   1.909   3.630   0.286  1.2162  0.5076  0.2734
 6372TIP3    H240752   1.889   3.612   0.435  2.0826  0.7431  0.4247
 6373TIP3   OH240753   1.168   0.767   6.072  0.1120 -0.1428 -0.4127
 6373TIP3    H140754   1.094   0.777   6.013 -0.3775 -1.4070 -0.0354
 6373TIP3    H240755   1.133   0.789   6.159  0.1109 -1.0037 -0.1946
 6374TIP3   OH240756   0.176   3.215   7.953 -0.3790 -0.0708 -0.8152
 6374TIP3    H140757   0.220   3.267   8.020 -1.4374  0.7559 -0.7549
 6374TIP3    H240758   0.199   3.257   7.871  0.3861 -0.6965 -0.9232
 6375TIP3   OH240759   1.093   6.799   1.159  0.3053 -0.1317 -0.7301
 6375TIP3    H140760   1.046   6.742   1.097  0.0170 -1.8051  0.9668
 6375TIP3    H240761   1.181   6.806   1.122  0.1134 -1.0155 -1.3920
 6376TIP3   OH240762   5.635   0.173   7.833  0.2825 -0.4500 -0.5733
 6376TIP3    H140763   5.658   0.111   7.902  1.7092  1.3421  0.6137
 6376TIP3    H240764   5.708   0.235   7.832 -0.7063  0.7178 -2.3089
 6377TIP3   OH240765   2.203   0.508   6.133  0.3885  0.2775 -0.4454
 6377TIP3    H140766   2.187   0.508   6.038 -0.6382 -3.1805 -0.3623
 6377TIP3    H240767   2.122   0.474   6.170  1.7468 -0.9490  1.4541
 6378TIP3   OH240768   1.786   3.530   7.995 -0.0981 -0.1129 -0.4951
 6378TIP3    H140769   1.829   3.492   7.918 -0.1273  0.4940 -0.8169
 6378TIP3    H240770   1.813   3.474   8.067  0.9737  0.0517 -0.7427
 6379TIP3   OH240771   1.080   6.861   1.910  0.3276  0.1302  0.1290
 6379TIP3    H140772   1.164   6.895   1.941  0.0258  0.3442  0.7194
 6379TIP3    H240773   1.051   6.801   1.978 -0.3236  0.5748  0.2476
 6380TIP3   OH240774   0.517   6.790   7.563 -0.6816  0.1858 -0.2462
 6380TIP3    H140775   0.519   6.794   7.658  0.3400 -0.8221 -0.2148
 6380TIP3    H240776   0.529   6.880   7.534  0.5427  0.2887  0.5607
 6381TIP3   OH240777   6.696   6.689   0.170 -0.2733  0.1511 -0.1721
 6381TIP3    H140778   6.712   6.646   0.254  0.3109  1.4208  0.3783
 6381TIP3    H240779   6.757   6.648   0.109 -0.6752 -0.7499  0.0233
 6382TIP3   OH240780   3.868   1.561   0.747 -0.8820 -0.4634 -0.3376
 6382TIP3    H140781   3.789   1.537   0.796 -0.2282  0.2822  1.0944
 6382TIP3    H240782   3.855   1.521   0.661 -1.5626 -2.6939  0.7674
 6383TIP3   OH240783   2.237   0.821   1.865  0.5842 -0.3764 -0.3203
 6383TIP3    H140784   2.231   0.811   1.770  1.6417 -0.5136 -0.3779
 6383TIP3    H240785   2.157   0.781   1.898  0.2368 -0.3807 -1.1487
 6384TIP3   OH240786   4.685   2.312   0.332 -0.1544 -0.1463 -0.4015
 6384TIP3    H140787   4.624   2.251   0.373 -0.0240 -0.3991 -0.5747
 6384TIP3    H240788   4.704   2.377   0.399  0.4811 -0.8595  0.1157
 6385TIP3   OH240789   3.944   1.812   0.691  0.0274  0.4692  0.9214
 6385TIP3    H140790   3.894   1.854   0.621  1.2626 -1.7046 -1.3740
 6385TIP3    H240791   3.908   1.723   0.696  0.0638  0.5556  2.9481
 6386TIP3   OH240792   1.986   0.775   6.212  0.0187 -0.0883  0.2112
 6386TIP3    H140793   2.013   0.822   6.133  0.0519  2.2732  1.6220
 6386TIP3    H240794   1.941   0.697   6.178 -0.1405  0.9881 -2.1289
 6387TIP3   OH240795   6.847   2.890   7.344  0.9645 -0.7338  0.3632
 6387TIP3    H140796   6.882   2.919   7.428 -0.7710  0.9105  0.5333
 6387TIP3    H240797   6.848   2.968   7.288 -2.8501 -0.5026  0.5354
 6388TIP3   OH240798   5.326   5.655   0.199 -0.1042  0.3968  0.2015
 6388TIP3    H140799   5.247   5.650   0.146 -0.4600  2.6254  0.4489
 6388TIP3    H240800   5.310   5.596   0.273 -2.3568  2.1826  1.2212
 6389TIP3   OH240801   2.539   0.207   2.056 -0.3374  0.3674 -0.5861
 6389TIP3    H140802   2.485   0.236   2.129  1.9204 -1.5597  1.9157
 6389TIP3    H240803   2.521   0.114   2.047  0.6897  0.2272 -1.3754
 6390TIP3   OH240804   6.471   0.676   0.237 -0.0076 -0.3634  0.3447
 6390TIP3    H140805   6.544   0.688   0.298  1.2904 -0.7441 -1.1206
 6390TIP3    H240806   6.425   0.599   0.270  1.2925 -1.1761  0.2659
 6391TIP3   OH240807   2.096   5.391   0.181  0.2101 -0.0606  0.6169
 6391TIP3    H140808   2.167   5.426   0.235  1.5396 -0.5922 -0.7412
 6391TIP3    H240809   2.116   5.422   0.092 -0.9355 -0.7075  0.1186
 6392TIP3   OH240810   6.061   6.384   1.552  0.0678  0.0850 -0.1398
 6392TIP3    H140811   6.010   6.377   1.632 -0.8958 -0.8355 -0.8235
 6392TIP3    H240812   6.152   6.395   1.581  0.0104 -2.4783  1.0580
 6393TIP3   OH240813   2.233   2.700   1.482 -0.6174 -0.0800 -0.0082
 6393TIP3    H140814   2.301   2.765   1.498 -1.1057  0.6215 -0.7486
 6393TIP3    H240815   2.150   2.747   1.495 -0.9871 -0.3335 -1.2905
 6394TIP3   OH240816   2.755   4.399   2.097 -0.1053  0.2110 -0.0581
 6394TIP3    H140817   2.770   4.451   2.018  0.9878 -1.2932 -0.8680
 6394TIP3    H240818   2.662   4.410   2.115  0.1555  2.6689 -0.0304
 6395TIP3   OH240819   1.304   5.174   0.745  0.1711  0.3752 -0.6123
 6395TIP3    H140820   1.239   5.106   0.725 -1.2731  1.1682  1.1966
 6395TIP3    H240821   1.382   5.149   0.696 -0.7853 -1.8356 -1.0374
 6396TIP3   OH240822   3.619   6.380   0.399  0.0641 -0.2963  0.6250
 6396TIP3    H140823   3.663   6.295   0.403  1.9714  0.6849  1.4281
 6396TIP3    H240824   3.621   6.404   0.307 -0.5668 -1.1687  0.3845
 6397TIP3   OH240825   5.516   1.986   0.059 -0.4104  0.1730  0.0132
 6397TIP3    H140826   5.557   1.935  -0.010 -0.6106 -1.6640  1.2237
 6397TIP3    H240827   5.423   1.988   0.035 -0.4144 -0.0958  0.0085
 6398TIP3   OH240828   2.388   1.793   1.229 -0.0842 -0.1113  0.2234
 6398TIP3    H140829   2.414   1.707   1.262 -1.5714 -0.9633 -0.7725
 6398TIP3    H240830   2.384   1.782   1.134  1.2785  1.5071 -0.0392
 6399TIP3   OH240831   3.842   0.252   6.801 -0.1207  0.0637  0.3043
 6399TIP3    H140832   3.864   0.167   6.840  2.7195 -0.1877 -1.7414
 6399TIP3    H240833   3.759   0.236   6.756  0.5219 -1.7307 -0.3091
 6400TIP3   OH240834   2.193   3.753   1.150 -0.6514 -0.5482 -0.2809
 6400TIP3    H140835   2.284   3.781   1.165 -0.6760  0.9057 -2.6960
 6400TIP3    H240836   2.200   3.660   1.131  0.1119 -0.8677  1.4329
 6401TIP3   OH240837   1.648   0.282   0.093  0.1527 -0.2869  0.6868
 6401TIP3    H140838   1.725   0.270   0.148 -1.4017 -2.7517  2.4421
 6401TIP3    H240839   1.601   0.355   0.132  0.7766  0.1697  0.5800
 6402TIP3   OH240840   6.693   0.284   7.181 -0.9415 -0.6104 -0.1820
 6402TIP3    H140841   6.664   0.204   7.226  1.6004 -0.8149  1.2002
 6402TIP3    H240842   6.613   0.322   7.146 -2.4213 -2.8875  0.5811
 6403TIP3   OH240843   3.728   3.027   7.240 -0.1705  0.2683 -0.2710
 6403TIP3    H140844   3.671   2.996   7.310 -0.3477  0.6196 -0.2575
 6403TIP3    H240845   3.730   2.955   7.176  0.6990 -0.4098  0.4989
 6404TIP3   OH240846   3.543   2.007   0.034 -0.0872 -0.1619 -0.1434
 6404TIP3    H140847   3.574   2.079  -0.022 -0.4172  2.3676  2.7966
 6404TIP3    H240848   3.448   2.016   0.034 -0.1133 -0.4046  0.4403
 6405TIP3   OH240849   4.361   0.498   6.771  0.1190  0.3382 -0.1697
 6405TIP3    H140850   4.390   0.561   6.704 -0.7609  1.1334  0.1930
 6405TIP3    H240851   4.326   0.425   6.720  1.2904  0.0540 -0.5967
 6406TIP3   OH240852   4.567   4.455   7.023 -0.2370 -0.1053  0.3257
 6406TIP3    H140853   4.515   4.375   7.031 -1.5370  0.3005 -3.3371
 6406TIP3    H240854   4.653   4.424   6.995 -0.3004 -0.3191  0.3640
 6407TIP3   OH240855   6.968   3.875   0.820 -0.8822 -0.0010 -0.1700
 6407TIP3    H140856   6.907   3.861   0.893 -0.9404 -2.0788 -0.5958
 6407TIP3    H240857   6.911   3.887   0.744 -0.7753  0.1598 -0.2264
 6408TIP3   OH240858   4.682   4.673   0.889 -0.3023  0.0201 -0.0711
 6408TIP3    H140859   4.615   4.720   0.939 -0.8051  0.5825 -1.2666
 6408TIP3    H240860   4.654   4.581   0.892 -0.2211  0.0212  0.8431
 6409TIP3   OH240861   1.336   6.155   8.070 -0.0258  0.0099 -0.1534
 6409TIP3    H140862   1.389   6.226   8.105 -0.5090 -0.3365  1.3262
 6409TIP3    H240863   1.254   6.197   8.044  0.7537  0.4554 -1.9476
 6410TIP3   OH240864   1.503   0.367   7.249 -0.0565 -0.1055  0.2688
 6410TIP3    H140865   1.536   0.283   7.214  2.4581 -0.2656  2.7999
 6410TIP3    H240866   1.509   0.357   7.344 -0.4766  2.6709  0.6276
 6411TIP3   OH240867   0.385   3.936   6.837  0.4359  0.3001  0.9880
 6411TIP3    H140868   0.404   4.024   6.806 -1.5901  0.4319  0.0332
 6411TIP3    H240869   0.362   3.887   6.758 -1.1203 -0.3447  1.8036
 6412TIP3   OH240870   4.232   6.853   7.819 -0.5186  0.2214  0.2056
 6412TIP3    H140871   4.153   6.903   7.796 -1.6874 -1.3226  0.7949
 6412TIP3    H240872   4.278   6.909   7.881 -0.3446  1.8281 -1.3421
 6413TIP3   OH240873   1.177   4.413   6.320  0.4449 -0.2624  0.1272
 6413TIP3    H140874   1.168   4.320   6.342 -0.2823 -0.5338 -1.2749
 6413TIP3    H240875   1.269   4.423   6.295  0.3397 -0.7797 -0.4775
 6414TIP3   OH240876   2.277   4.580   0.452  0.0645 -0.0131 -0.0712
 6414TIP3    H140877   2.186   4.568   0.425  0.2020 -1.1134 -0.0572
 6414TIP3    H240878   2.293   4.511   0.516  1.0905 -0.2144 -0.5278
 6415TIP3   OH240879   1.464   4.158   7.455 -0.3771 -0.3348  0.3165
 6415TIP3    H140880   1.373   4.172   7.478 -0.3821 -0.6257  0.4708
 6415TIP3    H240881   1.513   4.219   7.511 -0.4978  0.0420  0.0127
 6416TIP3   OH240882   2.214   5.404   6.576 -0.0419  0.0997  0.9472
 6416TIP3    H140883   2.124   5.423   6.600 -0.1701  1.1051 -0.2690
 6416TIP3    H240884   2.265   5.426   6.654 -0.7086  0.8328  1.1812
 6417TIP3   OH240885   1.379   4.271   1.107  0.2196  0.0231 -0.1445
 6417TIP3    H140886   1.304   4.317   1.144  0.1776  0.6187 -0.9590
 6417TIP3    H240887   1.348   4.239   1.022  0.3481 -1.2431  0.2699
 6418TIP3   OH240888   0.576   4.058   0.036 -0.1798 -0.2985 -0.2581
 6418TIP3    H140889   0.638   4.127   0.056  1.1843 -1.9980  1.6128
 6418TIP3    H240890   0.587   3.994   0.107 -2.9410 -1.4003 -0.7329
 6419TIP3   OH240891   2.725   6.488   1.608  0.4744 -0.9079  0.5870
 6419TIP3    H140892   2.786   6.428   1.565 -0.6972 -1.3048 -0.5288
 6419TIP3    H240893   2.677   6.432   1.669  0.0560 -0.9155  0.2483
 6420TIP3   OH240894   3.689   1.469   7.159  0.3377 -0.0769 -0.2818
 6420TIP3    H140895   3.617   1.530   7.143  1.5208  0.9189 -1.9868
 6420TIP3    H240896   3.723   1.448   7.072  1.4616 -1.3290  0.4293
 6421TIP3   OH240897   2.470   1.844   7.146  0.0554 -0.0055  0.2471
 6421TIP3    H140898   2.423   1.826   7.065 -1.3461  0.2652  0.9847
 6421TIP3    H240899   2.537   1.908   7.122  0.0709 -0.4218 -0.8209
 6422TIP3   OH240900   1.334   4.187   6.996  0.3120 -0.5321  0.6363
 6422TIP3    H140901   1.341   4.273   7.037  1.6321 -0.8721  1.1319
 6422TIP3    H240902   1.243   4.160   7.012 -0.1685  0.8366  0.3018
 6423TIP3   OH240903   0.691   4.800   7.091  0.0532  0.4076 -0.3919
 6423TIP3    H140904   0.689   4.746   7.170  0.9530 -0.1335 -0.7347
 6423TIP3    H240905   0.632   4.874   7.111  0.4465  0.3910  0.8583
 6424TIP3   OH240906   1.950   4.454   8.072 -0.5111 -0.7561 -0.9117
 6424TIP3    H140907   1.969   4.541   8.106  2.1734 -1.2776 -0.9633
 6424TIP3    H240908   2.033   4.424   8.036 -1.2634 -3.5307 -0.4532
 6425TIP3   OH240909   3.182   4.068   1.360 -0.2095 -0.4108  0.8832
 6425TIP3    H140910   3.153   4.057   1.269  0.4855  0.2425  0.5796
 6425TIP3    H240911   3.276   4.085   1.354 -0.3188  0.5131  1.6697
 6426TIP3   OH240912   0.822   1.620   7.557 -0.4183  0.5749  0.1337
 6426TIP3    H140913   0.913   1.590   7.564 -0.7434 -0.5654 -0.4582
 6426TIP3    H240914   0.799   1.650   7.645  0.4965  0.7857  0.3040
 6427TIP3   OH240915   3.448   5.546   0.214  0.0849  0.7152  0.1080
 6427TIP3    H140916   3.381   5.614   0.220 -1.7032 -0.6516 -2.8925
 6427TIP3    H240917   3.428   5.501   0.132  2.3899 -2.2049  1.0841
 6428TIP3   OH240918   2.525   6.248   1.095  0.1749 -0.5906 -0.1707
 6428TIP3    H140919   2.462   6.238   1.166  0.9108 -0.3334  0.5301
 6428TIP3    H240920   2.483   6.309   1.033 -0.2178 -0.3407  0.3411
 6429TIP3   OH240921   2.197   1.875   0.744 -0.5368 -0.5340  0.2959
 6429TIP3    H140922   2.104   1.899   0.741 -0.0436  1.3319 -0.6521
 6429TIP3    H240923   2.228   1.886   0.654  0.9844  0.4699  0.9183
 6430TIP3   OH240924   4.601   1.626   0.980  0.0339 -0.3055  0.5144
 6430TIP3    H140925   4.581   1.687   0.909 -0.1945  0.9792  1.6771
 6430TIP3    H240926   4.678   1.663   1.022 -1.1773  0.1629  2.3602
 6431TIP3   OH240927   1.087   5.321   7.211  0.3137 -0.5133  0.1719
 6431TIP3    H140928   1.107   5.413   7.196  2.4895 -0.8449  0.9092
 6431TIP3    H240929   1.061   5.288   7.125 -1.2728  0.9438  0.0600
 6432TIP3   OH240930   3.146   5.339   1.816  0.0927  0.7126  0.2470
 6432TIP3    H140931   3.220   5.311   1.870  0.6077 -0.1550 -0.8908
 6432TIP3    H240932   3.069   5.309   1.863  0.6064 -2.4517 -0.7757
 6433TIP3   OH240933   0.044   0.897   0.481 -0.2058  0.0672  0.3441
 6433TIP3    H140934   0.047   0.975   0.537  3.1688  0.2665 -0.0122
 6433TIP3    H240935  -0.010   0.835   0.530 -0.7581  1.6955  1.8756
 6434TIP3   OH240936   4.019   2.263   0.686 -0.1532 -0.0816 -0.0791
 6434TIP3    H140937   3.940   2.260   0.632  1.1862 -0.2319 -2.1045
 6434TIP3    H240938   3.990   2.237   0.774 -2.4267  0.4053 -0.6703
 6435TIP3   OH240939   3.151   7.015   0.406 -0.5247 -0.2629  0.5692
 6435TIP3    H140940   3.234   6.967   0.413 -0.6707 -0.5620  0.2908
 6435TIP3    H240941   3.177   7.106   0.396 -0.2159 -0.3878  0.1688
 6436TIP3   OH240942   1.833   6.701   0.152 -0.0091 -0.5178 -0.2573
 6436TIP3    H140943   1.824   6.776   0.092  0.9578 -0.9943 -1.0262
 6436TIP3    H240944   1.745   6.667   0.161 -0.5288  0.9781  0.4408
 6437TIP3   OH240945   3.347   6.896   0.695  0.0257  0.3859 -0.1618
 6437TIP3    H140946   3.273   6.950   0.721  1.5036  2.3733 -0.0052
 6437TIP3    H240947   3.418   6.920   0.754  0.7976 -1.5623 -0.2288
 6438TIP3   OH240948   1.682   4.459   8.002  0.1247 -0.2966 -0.0159
 6438TIP3    H140949   1.639   4.508   8.071  0.7263 -0.5803  0.5645
 6438TIP3    H240950   1.774   4.454   8.030  0.4784  0.0407 -1.0808
 6439TIP3   OH240951   0.157   1.783   8.095 -0.2068  0.2698  0.1646
 6439TIP3    H140952   0.197   1.736   8.167 -0.5519  1.0057  0.8489
 6439TIP3    H240953   0.176   1.875   8.113  0.0118  0.4367 -0.8705
 6440TIP3   OH240954   1.015   4.209   0.841 -0.3421 -0.2855 -0.9677
 6440TIP3    H140955   1.081   4.277   0.824  1.1149 -1.0788  1.2624
 6440TIP3    H240956   1.036   4.139   0.779  0.4932 -0.2254 -0.7661
 6441TIP3   OH240957   6.699   4.490   7.544 -0.1111  0.1211  0.3171
 6441TIP3    H140958   6.657   4.533   7.618 -0.5509 -0.5058  0.4262
 6441TIP3    H240959   6.655   4.527   7.467 -0.8171 -0.4945  0.4280
 6442TIP3   OH240960   0.870   0.290   0.983  0.1045 -0.3020  0.0919
 6442TIP3    H140961   0.780   0.320   0.977  0.1553 -0.5858 -3.3856
 6442TIP3    H240962   0.921   0.369   1.002 -0.6806  0.1873  0.1725
 6443TIP3   OH240963   1.332   5.102   5.826  0.4912 -0.4336 -0.0652
 6443TIP3    H140964   1.373   5.169   5.772 -0.5277 -1.7280 -2.5604
 6443TIP3    H240965   1.387   5.096   5.904  1.2495  2.4337 -0.3486
 6444TIP3   OH240966   2.649   7.097   0.072 -0.2135  0.2026  0.0218
 6444TIP3    H140967   2.710   7.137   0.135 -0.3164 -0.5493  0.6158
 6444TIP3    H240968   2.658   7.149  -0.007 -1.5824  2.4465  1.2949
 6445TIP3   OH240969   2.448   0.679   6.122  0.5464 -0.3894  0.1889
 6445TIP3    H140970   2.484   0.622   6.054 -1.0596 -3.4655  1.8118
 6445TIP3    H240971   2.354   0.659   6.122  0.0014  2.0681  1.0104
 6446TIP3   OH240972   3.124   0.443   7.349  0.1646 -0.0640  0.7609
 6446TIP3    H140973   3.171   0.471   7.428  2.5020 -0.4251 -0.4632
 6446TIP3    H240974   3.139   0.349   7.344 -1.0312 -0.2514  0.5483
 6447TIP3   OH240975   3.030   4.117   2.258  0.1697  0.3094 -0.1605
 6447TIP3    H140976   3.102   4.127   2.196 -1.0618  0.1510 -1.6249
 6447TIP3    H240977   3.041   4.029   2.293  1.7610  0.9486  1.0081
 6448TIP3   OH240978   5.184   5.863   1.506 -0.1097 -0.7560 -0.3482
 6448TIP3    H140979   5.104   5.841   1.553 -1.2536  1.3162 -1.2900
 6448TIP3    H240980   5.244   5.895   1.574 -0.7380 -0.5053  0.0857
 6449TIP3   OH240981   0.277   1.809   0.766  0.2953 -0.4808  0.2818
 6449TIP3    H140982   0.189   1.772   0.774  0.5626 -1.5464 -1.4651
 6449TIP3    H240983   0.263   1.904   0.765 -1.0988 -0.6539 -2.3170
 6450TIP3   OH240984   1.865   2.160   8.122  0.0423  0.4585  0.3816
 6450TIP3    H140985   1.926   2.134   8.053  0.9441  0.3592  1.2075
 6450TIP3    H240986   1.919   2.209   8.185 -0.8218  0.7856  0.8741
 6451TIP3   OH240987   1.016   0.529   0.321 -0.6864  0.2552  0.5335
 6451TIP3    H140988   1.049   0.460   0.379 -2.4663 -0.6961  0.4783
 6451TIP3    H240989   1.037   0.611   0.365  2.0510 -0.2930  0.2910
 6452TIP3   OH240990   2.164   3.613   0.859  0.2137  0.2559 -0.2128
 6452TIP3    H140991   2.205   3.539   0.905 -0.6429 -0.1031 -0.0035
 6452TIP3    H240992   2.073   3.611   0.889  0.0388  1.0123 -0.6984
 6453TIP3   OH240993   6.978   4.773   0.545 -0.7237  0.1511  0.7022
 6453TIP3    H140994   6.953   4.841   0.482 -1.2084 -1.0052 -0.3780
 6453TIP3    H240995   6.897   4.755   0.593 -1.2258 -1.3521 -0.6545
 6454TIP3   OH240996   0.198   2.107   1.654 -0.0135  0.1658  0.0148
 6454TIP3    H140997   0.158   2.191   1.676  0.9449  1.0610 -1.6343
 6454TIP3    H240998   0.288   2.115   1.685  0.3086  0.0535 -0.8880
 6455TIP3   OH240999   2.997   5.821   1.623 -0.3637 -0.6435 -0.0762
 6455TIP3    H141000   3.034   5.743   1.582 -1.2414 -1.1648  0.1147
 6455TIP3    H241001   2.905   5.800   1.636 -0.4052  0.0743  0.8217
 6456TIP3   OH241002   3.408   0.737   1.547 -0.2741 -0.2003 -0.4079
 6456TIP3    H141003   3.332   0.702   1.593  1.1320 -0.7987  1.5389
 6456TIP3    H241004   3.401   0.832   1.557  0.3907 -0.3449  1.7295
 6457TIP3   OH241005   3.486   3.268   2.434  0.4572  0.3737 -0.3806
 6457TIP3    H141006   3.539   3.332   2.482  1.6231 -1.3925  0.7245
 6457TIP3    H241007   3.547   3.226   2.374  0.4583 -1.9368  1.1645
 6458TIP3   OH241008   2.387   0.109   7.075 -0.4569 -0.1339 -0.5468
 6458TIP3    H141009   2.394   0.143   6.986 -2.4951 -0.7217 -0.9749
 6458TIP3    H241010   2.406   0.015   7.066  2.9472  0.4208  0.2648
 6459TIP3   OH241011   5.949   1.070   2.055  0.1684  0.1256  0.0923
 6459TIP3    H141012   6.006   0.994   2.053  0.8675  0.6224  0.7099
 6459TIP3    H241013   5.886   1.051   2.125  0.2878  0.0687  0.1853
 6460TIP3   OH241014   2.363   3.615   7.095  0.3302 -0.4484  0.4119
 6460TIP3    H141015   2.403   3.565   7.023 -1.8009 -2.4182  0.5014
 6460TIP3    H241016   2.318   3.687   7.051  0.1210 -0.8991 -0.1260
 6461TIP3   OH241017   0.551   3.074   1.060 -0.1912 -0.3822 -0.6170
 6461TIP3    H141018   0.485   3.126   1.015  0.4684  1.3205  0.2953
 6461TIP3    H241019   0.505   3.036   1.135 -0.0022  1.4474  0.4688
 6462TIP3   OH241020   1.583   1.039   7.175 -0.0292 -0.1329 -0.0010
 6462TIP3    H141021   1.537   0.969   7.221 -1.2079 -1.0394 -2.5028
 6462TIP3    H241022   1.565   1.118   7.228 -3.1473 -0.7514 -0.0617
 6463TIP3   OH241023   2.434   4.372   1.183 -0.2507 -0.0392  0.5783
 6463TIP3    H141024   2.497   4.307   1.214 -0.8113 -1.1644 -0.5747
 6463TIP3    H241025   2.358   4.321   1.157 -1.2818  1.2269  1.0602
 6464TIP3   OH241026   2.403   6.924   2.219 -0.4701  0.0380  0.0445
 6464TIP3    H141027   2.485   6.894   2.260 -0.3974  0.3502  0.1249
 6464TIP3    H241028   2.385   6.858   2.152 -0.1624 -0.0435  0.0413
 6465TIP3   OH241029   3.142   0.624   1.677  0.2003  0.5801 -0.0789
 6465TIP3    H141030   3.183   0.634   1.762  0.9852  1.7255 -0.5949
 6465TIP3    H241031   3.129   0.529   1.668  2.7759  0.1867  0.0521
 6466TIP3   OH241032   6.042   4.030   7.796  0.1434  0.2968 -0.1564
 6466TIP3    H141033   6.115   3.994   7.746 -1.5144  0.7591 -2.9874
 6466TIP3    H241034   6.057   4.124   7.795  0.3076  0.2848  0.6004
 6467TIP3   OH241035   5.008   0.732   0.106  0.2577  0.4467 -0.1776
 6467TIP3    H141036   4.940   0.796   0.125 -0.6466 -0.5498 -0.0499
 6467TIP3    H241037   5.061   0.774   0.038 -0.7032  1.0609 -0.5560
 6468TIP3   OH241038   3.992   3.513   7.173 -0.3197  0.2797  0.0840
 6468TIP3    H141039   3.962   3.446   7.111 -0.9810  2.0190 -1.5496
 6468TIP3    H241040   3.939   3.499   7.251 -0.4269 -1.1153 -0.2209
 6469TIP3   OH241041   6.692   3.398   0.432 -0.0789  0.9945 -0.5042
 6469TIP3    H141042   6.613   3.432   0.475 -0.0566  0.6096 -0.1602
 6469TIP3    H241043   6.659   3.333   0.369  0.1836 -1.7455  2.0888
 6470TIP3   OH241044   1.633   2.618   8.030 -0.1079  0.0401 -0.2207
 6470TIP3    H141045   1.711   2.564   8.046 -0.5490  0.0806  2.3325
 6470TIP3    H241046   1.664   2.708   8.042 -0.2933  0.1212 -0.3543
 6471TIP3   OH241047   6.055   6.599   8.014  0.1608 -0.5924  0.5258
 6471TIP3    H141048   6.050   6.607   7.919  1.0566 -0.2780  0.5029
 6471TIP3    H241049   5.963   6.601   8.043 -0.0992 -0.3412 -0.2990
 6472TIP3   OH241050   6.945   6.936   6.895  0.1842  0.8361 -0.2096
 6472TIP3    H141051   6.962   6.925   6.801 -1.5594  1.2966 -0.6000
 6472TIP3    H241052   7.032   6.941   6.935  0.9513 -0.0454 -1.7105
 6473TIP3   OH241053   0.620   0.050   0.964 -0.0322 -0.1380  0.1153
 6473TIP3    H141054   0.601   0.035   0.871 -2.3500  3.2605 -0.0508
 6473TIP3    H241055   0.712   0.026   0.973  0.2468 -0.5597 -3.0529
 6474TIP3   OH241056   3.906   1.938   7.934  0.9825  0.1442 -0.5089
 6474TIP3    H141057   3.911   1.908   8.025  0.8018  1.3318 -0.1068
 6474TIP3    H241058   3.990   1.912   7.895  2.4342  2.5527  0.9001
 6475TIP3   OH241059   1.381   0.768   0.371  0.3315 -0.1036 -0.1447
 6475TIP3    H141060   1.437   0.767   0.293 -3.4274  0.2283 -3.0336
 6475TIP3    H241061   1.368   0.861   0.389  1.0376 -0.1810  0.7793
 6476TIP3   OH241062   6.431   3.790   7.391 -0.1602 -0.7474  0.0200
 6476TIP3    H141063   6.520   3.765   7.417  0.0560  0.9834  1.0762
 6476TIP3    H241064   6.387   3.810   7.474 -1.4927 -1.4386 -0.5109
 6477TIP3   OH241065   6.291   4.669   1.268 -0.3211 -0.0413  0.3766
 6477TIP3    H141066   6.258   4.696   1.354  1.3517 -0.8500  1.2887
 6477TIP3    H241067   6.316   4.752   1.226 -1.1807  0.3629  0.6433
 6478TIP3   OH241068   3.688   2.588   0.580 -0.7678  0.0869  0.2567
 6478TIP3    H141069   3.730   2.671   0.558  0.5351 -0.6661 -0.1887
 6478TIP3    H241070   3.617   2.611   0.639 -2.1271  1.8080 -1.9926
 6479TIP3   OH241071   1.785   2.084   1.620  0.2523 -0.0195  0.4003
 6479TIP3    H141072   1.752   1.995   1.605 -1.5981  0.7446 -0.1331
 6479TIP3    H241073   1.818   2.081   1.710  3.0653 -2.0853 -0.6193
 6480TIP3   OH241074   7.154   1.868   0.719 -0.2203  0.2558 -0.9611
 6480TIP3    H141075   7.124   1.912   0.798  0.3837 -0.0721 -0.5404
 6480TIP3    H241076   7.149   1.935   0.650 -0.0351  0.7530 -0.4895
 6481TIP3   OH241077   5.162   1.442   7.734 -0.0862  0.3798  0.6421
 6481TIP3    H141078   5.168   1.442   7.638  1.2308 -0.9457  0.7090
 6481TIP3    H241079   5.250   1.468   7.763 -0.1152 -0.4507  1.4965
 6482TIP3   OH241080   3.044   6.544   1.683  0.6479 -0.2467  0.3059
 6482TIP3    H141081   3.036   6.609   1.752  0.2009 -0.0890  0.1078
 6482TIP3    H241082   2.954   6.516   1.665  0.5918  0.9552 -1.3857
 6483TIP3   OH241083   3.669   0.360   1.675  0.1566  0.2611  0.4111
 6483TIP3    H141084   3.749   0.391   1.634  0.6070 -2.8069 -1.2200
 6483TIP3    H241085   3.617   0.439   1.691  2.5793  2.0861 -0.4547
 6484TIP3   OH241086   2.303   3.688   7.375 -0.0598 -0.1975 -0.3289
 6484TIP3    H141087   2.376   3.656   7.323 -0.6809  0.3194 -1.5392
 6484TIP3    H241088   2.226   3.674   7.319 -0.7033  0.5850  0.3578
 6485TIP3   OH241089   2.702   2.981   6.940  0.2635 -0.5144  0.1746
 6485TIP3    H141090   2.675   3.071   6.958  0.4129 -0.2161 -1.1067
 6485TIP3    H241091   2.733   2.982   6.850 -0.8688 -2.1208 -0.2442
 6486TIP3   OH241092   3.094   1.215   0.660  0.1942  0.0267  0.3741
 6486TIP3    H141093   3.167   1.272   0.636  0.2865  0.6388  2.0553
 6486TIP3    H241094   3.039   1.269   0.717 -1.1897 -0.6662 -0.2933
 6487TIP3   OH241095   1.515   3.596   7.813  0.3281  0.0925 -0.1531
 6487TIP3    H141096   1.423   3.617   7.798  0.1071  0.3798  1.5073
 6487TIP3    H241097   1.514   3.506   7.845  0.7974 -0.5644 -1.9648
 6488TIP3   OH241098   2.555   6.815   7.651  0.0071 -0.0356  0.0166
 6488TIP3    H141099   2.608   6.749   7.695  2.1068  1.2365 -0.5809
 6488TIP3    H241100   2.513   6.863   7.723 -1.9091 -2.2354  0.4545
 6489TIP3   OH241101   5.178   4.863   0.656 -0.4590  0.2476 -0.4010
 6489TIP3    H141102   5.090   4.900   0.648 -1.0402 -0.8684  0.5396
 6489TIP3    H241103   5.170   4.801   0.729  1.2640  0.5935  0.0835
 6490TIP3   OH241104   1.027   0.918   7.105  0.1066 -0.3254 -0.3233
 6490TIP3    H141105   0.972   0.964   7.169 -1.8212  1.0764 -2.8842
 6490TIP3    H241106   1.107   0.970   7.101  0.2380 -0.4147  0.9097
 6491TIP3   OH241107   3.286   1.933   1.883 -0.3089 -0.1628 -0.0050
 6491TIP3    H141108   3.228   1.890   1.821 -0.7722 -0.2529  0.4849
 6491TIP3    H241109   3.348   1.864   1.909 -1.3744 -0.7060  1.1808
 6492TIP3   OH241110   4.985   6.155   7.489  0.0948  0.0668  0.9757
 6492TIP3    H141111   4.902   6.123   7.454  0.6630 -1.3918  0.9003
 6492TIP3    H241112   4.964   6.184   7.577 -0.8655  1.4794  0.2981
 6493TIP3   OH241113   0.195   6.762   7.304 -0.0245 -0.4651 -0.3893
 6493TIP3    H141114   0.169   6.673   7.280 -0.2429 -0.7263  0.8071
 6493TIP3    H241115   0.197   6.762   7.400  1.5125  0.3633 -0.3920
 6494TIP3   OH241116   1.359   1.549   1.274 -1.3994 -0.8565 -0.0451
 6494TIP3    H141117   1.313   1.498   1.207 -2.6402  2.1411 -1.5801
 6494TIP3    H241118   1.294   1.562   1.343 -0.9863 -1.5953  0.4899
 6495TIP3   OH241119   1.123   5.150   7.407  0.1712 -0.0943  0.1553
 6495TIP3    H141120   1.164   5.076   7.362 -0.3458 -1.6352  2.1514
 6495TIP3    H241121   1.115   5.218   7.340  0.7639 -1.8007 -1.6736
 6496TIP3   OH241122   6.863   3.140   7.534 -0.6547 -0.1307  0.1676
 6496TIP3    H141123   6.957   3.144   7.517  0.1801 -1.4644  3.9673
 6496TIP3    H241124   6.835   3.231   7.541  0.6825  0.2502  0.6516
 6497TIP3   OH241125   5.313   3.338   6.278  0.2292 -0.2928 -0.1157
 6497TIP3    H141126   5.243   3.396   6.308  0.1008  0.4983 -1.9005
 6497TIP3    H241127   5.289   3.315   6.188  0.8227 -2.2749  0.1967
 6498TIP3   OH241128   5.673   6.864   6.821  0.1917  0.1326  0.5998
 6498TIP3    H141129   5.611   6.799   6.788  0.0812 -0.5856  2.1878
 6498TIP3    H241130   5.719   6.895   6.743 -0.8093 -0.7386 -0.3548
 6499TIP3   OH241131   3.155   0.093   2.241  0.4238  0.1475 -0.5526
 6499TIP3    H141132   3.166   0.000   2.262  0.6051 -0.1644 -2.0270
 6499TIP3    H241133   3.065   0.100   2.209  0.2621  0.5682 -0.0258
 6500TIP3   OH241134   4.688   5.508   1.309 -0.7913  0.6552  0.2853
 6500TIP3    H141135   4.689   5.512   1.405  0.8301 -1.0867  0.3543
 6500TIP3    H241136   4.723   5.593   1.282 -0.3721  0.8028  1.2591
 6501TIP3   OH241137   1.716   0.370   7.521  0.3019  0.1830 -0.3641
 6501TIP3    H141138   1.745   0.325   7.601 -0.2391 -0.3455 -0.4640
 6501TIP3    H241139   1.622   0.352   7.517  0.0169  1.6406 -0.2055
 6502TIP3   OH241140   3.989   1.987   7.614  0.7491 -0.4492  0.3185
 6502TIP3    H141141   3.925   2.040   7.567  1.1858 -0.3915 -0.2151
 6502TIP3    H241142   4.058   1.969   7.550  0.2870 -2.2349  0.3070
 6503TIP3   OH241143   3.881   5.753   0.759  0.4094 -0.1563 -0.0801
 6503TIP3    H141144   3.876   5.657   0.764 -0.0616 -0.1513 -0.4166
 6503TIP3    H241145   3.929   5.770   0.678 -0.8386 -0.0887 -0.8171
 6504TIP3   OH241146   5.097   5.042   1.447 -0.0962 -0.1432  0.4276
 6504TIP3    H141147   5.033   5.038   1.376 -0.7680  0.1128  1.0045
 6504TIP3    H241148   5.060   4.986   1.516  0.0767  0.3692  0.9430
 6505TIP3   OH241149   1.990   6.522   1.069  0.5208  0.4488  0.2707
 6505TIP3    H141150   1.993   6.577   0.990  2.4091 -2.4254 -1.7521
 6505TIP3    H241151   1.904   6.541   1.108  0.4912  3.6367 -1.1851
 6506TIP3   OH241152   6.557   6.267   7.501  0.3359 -0.1077 -0.0152
 6506TIP3    H141153   6.528   6.188   7.547  1.2353  0.2267  1.1289
 6506TIP3    H241154   6.651   6.254   7.488  0.3074  0.3342 -0.7190
 6507TIP3   OH241155   0.644   6.323   0.370  0.1498 -0.0803  0.4035
 6507TIP3    H141156   0.571   6.261   0.370 -0.7305  0.9273 -1.2999
 6507TIP3    H241157   0.720   6.270   0.345 -0.0834 -1.0164  1.6309
 6508TIP3   OH241158   0.346   6.839   5.917 -0.2601 -0.0381 -0.2476
 6508TIP3    H141159   0.289   6.802   5.850 -0.5001  3.4485 -2.0837
 6508TIP3    H241160   0.398   6.905   5.871  0.0102  2.0442  2.8782
 6509TIP3   OH241161   2.477   0.731   0.509  0.0914 -0.2430 -0.4568
 6509TIP3    H141162   2.407   0.734   0.574 -0.5112  0.3828 -1.1279
 6509TIP3    H241163   2.497   0.638   0.499  1.7902 -0.2035  2.3221
 6510TIP3   OH241164   2.505   0.250   5.808 -0.5853  0.3481  0.4321
 6510TIP3    H141165   2.516   0.155   5.819  1.3734  0.3361 -1.3465
 6510TIP3    H241166   2.539   0.268   5.721 -1.2748  2.6548  0.6193
 6511TIP3   OH241167   2.031   7.036   2.012  0.7650  0.2414 -0.6752
 6511TIP3    H141168   2.054   6.984   1.935  0.3986 -1.4499  0.3498
 6511TIP3    H241169   2.059   6.983   2.087  0.7574  1.6928  0.3811
 6512TIP3   OH241170   7.143   6.372   1.357  0.7632  0.1898 -0.8024
 6512TIP3    H141171   7.222   6.419   1.332 -0.5092  2.1314 -1.3465
 6512TIP3    H241172   7.174   6.295   1.404  2.9436  1.2623 -0.4200
 6513TIP3   OH241173   0.942   3.131   0.507 -0.1789 -0.0237  0.3465
 6513TIP3    H141174   0.960   3.121   0.600 -1.3690 -0.0025  0.5900
 6513TIP3    H241175   0.961   3.045   0.469  0.7598  0.1023  0.5252
 6514TIP3   OH241176   0.297   0.985   1.718 -0.0928  0.7831  0.1611
 6514TIP3    H141177   0.286   0.898   1.756  1.4120 -0.3210 -1.8282
 6514TIP3    H241178   0.381   1.015   1.751  0.3554  0.5952 -0.7933
 6515TIP3   OH241179   2.555   3.200   2.288  0.0285 -0.2998  0.2412
 6515TIP3    H141180   2.496   3.273   2.311  0.1368  0.2033 -1.0839
 6515TIP3    H241181   2.630   3.211   2.347 -0.5022 -0.0624  0.8916
 6516TIP3   OH241182   4.380   3.815   2.074  0.4233  0.0971  0.6392
 6516TIP3    H141183   4.471   3.826   2.047  1.0349 -1.3384  2.0363
 6516TIP3    H241184   4.385   3.766   2.156 -1.6357 -0.4001  0.4985
 6517TIP3   OH241185   2.375   6.801   1.975  0.2632  0.0631  0.0510
 6517TIP3    H141186   2.454   6.749   1.961  0.5369  0.3040  0.6987
 6517TIP3    H241187   2.371   6.859   1.899  0.6744  0.0024 -0.0193
 6518TIP3   OH241188   1.975   6.298   8.083  0.0381  0.6745  0.5569
 6518TIP3    H141189   1.970   6.374   8.142 -0.3841  0.9818  0.1243
 6518TIP3    H241190   2.066   6.298   8.052  0.0049  1.0831  0.4550
 6519TIP3   OH241191   1.444   4.814   7.515 -0.3646  0.1768  0.1939
 6519TIP3    H141192   1.457   4.719   7.520  0.8565  0.0760 -3.1361
 6519TIP3    H241193   1.377   4.825   7.447  0.7615  1.7385 -0.6867
 6520TIP3   OH241194   6.355   2.187   0.786 -0.1327 -0.1044  0.3608
 6520TIP3    H141195   6.424   2.166   0.722 -1.6700 -0.6363 -1.1639
 6520TIP3    H241196   6.398   2.181   0.871  2.1162  1.1379 -0.6422
 6521TIP3   OH241197   4.792   4.138   7.670 -0.1174 -0.1880 -0.3908
 6521TIP3    H141198   4.807   4.230   7.650  1.7986 -0.0514  1.5637
 6521TIP3    H241199   4.873   4.094   7.642 -0.3164 -1.0250  0.3242
 6522TIP3   OH241200   2.413   6.446   1.336  0.1118  0.1892 -0.0018
 6522TIP3    H141201   2.343   6.422   1.274 -0.7956 -0.8736  1.4047
 6522TIP3    H241202   2.370   6.505   1.398  0.4863 -0.3669  0.7926
 6523TIP3   OH241203   2.191   6.276   0.225 -0.2912  0.1032  0.3189
 6523TIP3    H141204   2.265   6.325   0.191  0.1549 -0.6680  0.1774
 6523TIP3    H241205   2.123   6.342   0.239  0.6684  0.9326  1.1886
 6524TIP3   OH241206   0.604   0.478   6.695  0.0549  0.6702 -0.1620
 6524TIP3    H141207   0.629   0.399   6.744  0.5824  0.9329  0.0060
 6524TIP3    H241208   0.618   0.550   6.758 -1.5867  0.7832  0.0809
 6525TIP3   OH241209   6.311   6.671   8.120 -0.0542 -0.0276 -0.0020
 6525TIP3    H141210   6.221   6.668   8.089  0.2406  0.5923 -0.9320
 6525TIP3    H241211   6.347   6.585   8.099 -0.5950 -0.4736  0.8867
 6526TIP3   OH241212   3.316   5.381   7.469 -0.1853 -0.1138  0.0483
 6526TIP3    H141213   3.266   5.430   7.535 -0.8914 -0.0851 -0.5062
 6526TIP3    H241214   3.384   5.442   7.441 -0.4614  0.2069  0.0730
 6527TIP3   OH241215   2.833   5.134   0.933  0.3613  0.4244  0.0123
 6527TIP3    H141216   2.801   5.191   1.002 -3.6165 -1.2047 -0.3066
 6527TIP3    H241217   2.864   5.056   0.979  0.8918  0.7214  0.1556
 6528TIP3   OH241218   2.558   1.328   6.637  0.1332  0.5757 -0.2581
 6528TIP3    H141219   2.572   1.236   6.614 -1.7064  0.3066 -0.3580
 6528TIP3    H241220   2.465   1.343   6.621 -0.2216  1.6687  2.4636
 6529TIP3   OH241221   3.381   6.183   0.265 -0.0294 -0.2230 -0.5472
 6529TIP3    H141222   3.435   6.262   0.270 -0.2332 -0.0445 -1.1276
 6529TIP3    H241223   3.443   6.112   0.255  0.1375 -0.1021 -0.3867
 6530TIP3   OH241224   3.701   0.792   0.198 -0.4870  0.2446  0.1225
 6530TIP3    H141225   3.622   0.846   0.200 -0.1670  0.6997  1.2441
 6530TIP3    H241226   3.687   0.728   0.267  1.1023  1.7769  1.9132
 6531TIP3   OH241227   0.461   2.175   1.457 -0.5590 -0.5673 -0.7522
 6531TIP3    H141228   0.455   2.113   1.529 -1.2188 -0.0714 -0.3798
 6531TIP3    H241229   0.552   2.206   1.459 -0.2736 -1.3868 -0.8362
 6532TIP3   OH241230   2.457   4.358   2.128  0.2518 -0.1551  0.6176
 6532TIP3    H141231   2.455   4.293   2.057 -1.0390  2.6145 -1.9881
 6532TIP3    H241232   2.381   4.337   2.181  1.0487 -2.0777  1.0451
 6533TIP3   OH241233   2.940   4.497   1.355  0.4130 -0.3662 -0.1965
 6533TIP3    H141234   2.992   4.419   1.376 -0.3258 -0.5879  0.8881
 6533TIP3    H241235   2.992   4.544   1.291  0.4955 -2.1780 -1.5105
 6534TIP3   OH241236   2.868   0.828   0.650 -0.0485 -0.6257  0.4542
 6534TIP3    H141237   2.890   0.735   0.645  0.7751 -0.4648  0.9162
 6534TIP3    H241238   2.856   0.845   0.743 -2.0993 -0.6886  0.2115
 6535TIP3   OH241239   4.207   4.576   7.353  0.4598  0.4485 -0.2862
 6535TIP3    H141240   4.299   4.553   7.338  0.0444 -1.1740 -0.3961
 6535TIP3    H241241   4.206   4.615   7.441  1.0208 -0.8818  0.3137
 6536TIP3   OH241242   4.982   6.494   8.077  0.2956  0.3057 -0.4583
 6536TIP3    H141243   5.006   6.584   8.054  0.9947  0.1228 -0.4803
 6536TIP3    H241244   5.060   6.443   8.054  0.0377 -0.2518 -0.0971
 6537TIP3   OH241245   2.647   6.600   0.037  0.0684 -0.1483  0.0921
 6537TIP3    H141246   2.701   6.580   0.113  2.0457 -0.4912 -1.3625
 6537TIP3    H241247   2.598   6.678   0.062  0.8816 -0.1112  1.6240
 6538TIP3   OH241248   1.050   2.047   0.356 -0.6744 -0.7588 -0.3037
 6538TIP3    H141249   0.960   2.061   0.327 -0.2981 -0.7007 -1.4811
 6538TIP3    H241250   1.056   1.953   0.371 -1.4432 -0.5309  1.5673
 6539TIP3   OH241251   4.229   5.151   2.131 -0.0721 -0.5107  0.0886
 6539TIP3    H141252   4.243   5.246   2.126  1.0089 -0.6194  0.9231
 6539TIP3    H241253   4.312   5.113   2.100  0.0120 -1.1847  1.1296
 6540TIP3   OH241254   4.287   6.619   7.313  0.2852 -0.1375  0.0773
 6540TIP3    H141255   4.262   6.606   7.404  1.4737 -0.0082  0.4351
 6540TIP3    H241256   4.223   6.568   7.262  0.4220 -1.2993  1.0478
 6541TIP3   OH241257   4.869   0.106   6.680  0.1767  0.2620  0.7296
 6541TIP3    H141258   4.953   0.108   6.727  0.0982  0.9902  0.8464
 6541TIP3    H241259   4.871   0.183   6.624  0.2800 -0.6295 -0.5053
 6542TIP3   OH241260   2.330   4.730   1.394  0.1772  0.0665  0.2295
 6542TIP3    H141261   2.356   4.712   1.303 -0.0856 -1.8301  0.5049
 6542TIP3    H241262   2.378   4.664   1.445 -1.0314  0.0006  1.2786
 6543TIP3   OH241263   1.812   0.734   7.520  0.1541 -0.3541  0.5603
 6543TIP3    H141264   1.815   0.825   7.550  1.0630 -0.9146  2.2078
 6543TIP3    H241265   1.819   0.682   7.600  0.9815 -1.8745 -0.4781
 6544TIP3   OH241266   2.160   6.259   1.505  0.0279 -0.5353 -0.2451
 6544TIP3    H141267   2.107   6.179   1.507  0.3702 -0.7674 -0.5115
 6544TIP3    H241268   2.107   6.324   1.553 -0.2786 -0.9001 -0.0873
 6545TIP3   OH241269   4.861   5.865   7.889 -0.5540 -0.1596  0.1684
 6545TIP3    H141270   4.911   5.804   7.834  0.0411  2.1569 -1.9627
 6545TIP3    H241271   4.785   5.887   7.836 -0.1295  1.8954  0.3766
 6546TIP3   OH241272   1.103   5.391   6.358  0.3807  0.4803  0.2272
 6546TIP3    H141273   1.078   5.408   6.267  0.3723  1.1491  0.3496
 6546TIP3    H241274   1.131   5.300   6.359 -1.4197 -0.0859 -0.0488
 6547TIP3   OH241275   1.968   3.786   6.724  0.1954 -0.3578 -0.1242
 6547TIP3    H141276   2.013   3.711   6.762  1.4775  0.0968 -0.7302
 6547TIP3    H241277   2.033   3.857   6.726 -1.0362  0.7778  0.5732
 6548TIP3   OH241278   1.446   2.371   7.899 -0.4486 -0.3321  0.9077
 6548TIP3    H141279   1.474   2.376   7.990 -0.3124  1.2062  0.7844
 6548TIP3    H241280   1.407   2.456   7.880 -2.3976 -1.3601  0.1359
 6549TIP3   OH241281   4.477   5.740   0.942 -0.2924 -0.0048  0.0361
 6549TIP3    H141282   4.434   5.704   0.864 -1.4618  1.3911  0.0047
 6549TIP3    H241283   4.464   5.673   1.009  1.3087 -1.5139 -1.1312
 6550TIP3   OH241284   4.388   0.083   8.074 -0.0727 -0.3198  0.1909
 6550TIP3    H141285   4.350   0.159   8.118  0.9519  0.2874  0.0413
 6550TIP3    H241286   4.379   0.101   7.981 -0.0292 -0.4882  0.1518
 6551TIP3   OH241287   1.992   6.733   2.261  0.2446 -0.3932 -0.0207
 6551TIP3    H141288   2.008   6.813   2.311 -0.7620  0.0002 -0.3060
 6551TIP3    H241289   2.070   6.680   2.274  0.6451  0.3654  0.7016
 6552TIP3   OH241290   2.550   6.080   1.833 -0.1967  0.1802 -0.9259
 6552TIP3    H141291   2.602   6.122   1.765  0.8263 -0.1677 -0.3687
 6552TIP3    H241292   2.462   6.113   1.819  0.8755  3.8644  0.5401
 6553TIP3   OH241293   6.939   7.066   1.530 -0.2078 -0.2967  0.0851
 6553TIP3    H141294   6.901   6.986   1.566 -0.0016  0.1495  1.3037
 6553TIP3    H241295   6.867   7.106   1.480 -1.0716  0.0266  1.5432
 6554TIP3   OH241296   2.856   5.671   0.267  0.4011 -0.5924  0.1178
 6554TIP3    H141297   2.950   5.668   0.245  0.3894 -1.7435  0.1689
 6554TIP3    H241298   2.854   5.707   0.356  0.7323  0.2924 -0.2301
 6555TIP3   OH241299   0.485   4.056   0.526  0.5450  0.0426  0.0329
 6555TIP3    H141300   0.535   4.077   0.605 -1.4817 -1.9956  1.9217
 6555TIP3    H241301   0.396   4.040   0.558 -0.5294  0.1621 -2.8087
 6556TIP3   OH241302   0.891   2.405   0.303 -0.2551 -0.4168 -0.2025
 6556TIP3    H141303   0.863   2.319   0.334 -1.3631 -0.5218 -1.4479
 6556TIP3    H241304   0.984   2.394   0.281 -0.9181 -1.8958 -2.4222
 6557TIP3   OH241305   6.438   4.764   1.637  0.2296  0.3948  0.5572
 6557TIP3    H141306   6.529   4.742   1.659  0.2680  1.5529  1.5655
 6557TIP3    H241307   6.392   4.763   1.721 -0.6235  0.1753  0.0942
 6558TIP3   OH241308   2.717   0.228   0.955 -0.2189  0.4704 -0.9939
 6558TIP3    H141309   2.646   0.216   1.018 -0.9191 -3.7148 -2.4064
 6558TIP3    H241310   2.683   0.292   0.893 -2.4257 -0.7539 -1.0946
 6559TIP3   OH241311   3.099   5.320   0.091 -0.3636  0.0314 -0.0962
 6559TIP3    H141312   3.110   5.370   0.172 -0.1864  0.3489 -0.3151
 6559TIP3    H241313   3.117   5.383   0.021 -0.4273 -0.2643 -0.3813
 6560TIP3   OH241314   3.129   6.184   0.069  0.5134  0.5113  0.2195
 6560TIP3    H141315   3.088   6.221  -0.009  0.4609 -0.8255 -0.4042
 6560TIP3    H241316   3.222   6.179   0.048  0.4380 -0.2662  0.0759
 6561TIP3   OH241317   2.667   5.363   1.735  0.2790  0.0742  0.0046
 6561TIP3    H141318   2.729   5.334   1.668  0.2657  0.1517 -0.0417
 6561TIP3    H241319   2.672   5.296   1.803 -0.1331 -0.3060 -0.3360
 6562TIP3   OH241320   1.505   6.929   2.202  0.2751  0.6792 -0.9620
 6562TIP3    H141321   1.514   6.841   2.237 -0.0674  1.3560  0.8372
 6562TIP3    H241322   1.566   6.931   2.127 -0.2667 -1.2928 -1.4852
 6563TIP3   OH241323   3.804   6.758   6.381  0.0037 -0.0842 -0.2669
 6563TIP3    H141324   3.792   6.737   6.289 -0.3071  0.8370 -0.4444
 6563TIP3    H241325   3.898   6.751   6.396 -0.1764 -2.5899 -0.0548
 6564TIP3   OH241326   0.634   2.280   7.841 -0.1110 -0.4197  0.3493
 6564TIP3    H141327   0.540   2.262   7.839 -0.2368  0.2502  0.2945
 6564TIP3    H241328   0.641   2.373   7.860  0.5633 -0.6283  1.1872
 6565TIP3   OH241329   1.667   6.073   1.686 -0.4645  0.1528 -0.0089
 6565TIP3    H141330   1.697   6.143   1.744  0.6480  0.0830 -0.4849
 6565TIP3    H241331   1.701   5.993   1.726  0.4027  0.1154 -0.8081
 6566TIP3   OH241332   4.715   0.481   2.450  0.1169 -0.3154 -0.4199
 6566TIP3    H141333   4.783   0.418   2.475 -0.1527 -0.2384  0.5326
 6566TIP3    H241334   4.711   0.474   2.355 -0.9137 -2.8100 -0.2414
 6567TIP3   OH241335   6.031   5.799   6.406  0.7377  0.5591 -0.5137
 6567TIP3    H141336   6.088   5.865   6.366  0.0782  0.9326 -0.8418
 6567TIP3    H241337   5.948   5.845   6.421  0.1371 -0.3068 -1.1360
 6568TIP3   OH241338   2.670   0.741   7.838 -0.1918 -0.2600 -0.2305
 6568TIP3    H141339   2.694   0.830   7.810 -2.4762 -0.3576 -2.7622
 6568TIP3    H241340   2.595   0.754   7.897 -0.4743 -0.4731 -0.5372
 6569TIP3   OH241341   6.331   1.490   1.224  0.2289 -0.2548  0.1043
 6569TIP3    H141342   6.247   1.527   1.198 -0.4424 -1.6245  0.2935
 6569TIP3    H241343   6.314   1.449   1.309  0.8766 -1.2549 -0.2282
 6570TIP3   OH241344   5.257   2.276   7.277 -0.2102  0.2241  0.2922
 6570TIP3    H141345   5.251   2.183   7.255  0.7815 -0.3526  2.2795
 6570TIP3    H241346   5.177   2.294   7.326 -0.2720  0.3505  0.1447
 6571TIP3   OH241347   0.727   5.609   0.079  0.1789 -0.4238 -0.4970
 6571TIP3    H141348   0.648   5.663   0.081 -0.1847 -0.9522 -0.4968
 6571TIP3    H241349   0.778   5.638   0.154  1.5042  2.1753 -2.3024
 6572TIP3   OH241350   0.221   7.050   0.236 -0.0947  0.2355 -0.4486
 6572TIP3    H141351   0.227   6.955   0.240 -0.2416  0.2263 -0.4166
 6572TIP3    H241352   0.142   7.071   0.286 -1.2295  0.2214 -2.2092
 6573TIP3   OH241353   6.700   6.333   0.589 -0.3744 -0.0971  0.6314
 6573TIP3    H141354   6.691   6.417   0.632 -0.4681 -0.5235  1.4625
 6573TIP3    H241355   6.681   6.269   0.658 -1.0899 -0.7751 -0.1820
 6574TIP3   OH241356   5.247   5.126   0.642  0.1781  0.4626  0.1010
 6574TIP3    H141357   5.240   5.034   0.667  1.0521 -0.1474 -1.8499
 6574TIP3    H241358   5.244   5.173   0.725  0.3520 -1.3589  1.1652
 6575TIP3   OH241359   5.796   5.686   7.565 -0.1984 -0.1585  0.2033
 6575TIP3    H141360   5.872   5.667   7.510  0.4367  1.2788  0.5872
 6575TIP3    H241361   5.737   5.735   7.507 -1.4659 -2.4337 -0.5199
 6576TIP3   OH241362   5.832   4.288   7.484 -0.0055 -0.1725  0.4593
 6576TIP3    H141363   5.847   4.195   7.465  1.1007  0.2744 -0.8933
 6576TIP3    H241364   5.744   4.306   7.450  0.9123 -0.0297 -1.9106
 6577TIP3   OH241365   5.369   2.475   7.469  0.1618 -0.2166  0.3050
 6577TIP3    H141366   5.422   2.443   7.541  1.4749  1.3216  0.0494
 6577TIP3    H241367   5.380   2.409   7.400  0.5814 -0.6323  0.7669
 6578TIP3   OH241368   5.249   2.987   1.234  0.2873 -0.1037 -0.4842
 6578TIP3    H141369   5.255   3.080   1.255 -0.3798 -0.7378  2.8366
 6578TIP3    H241370   5.340   2.956   1.235  0.2690 -0.2262  2.3771
 6579TIP3   OH241371   5.298   0.738   1.252 -0.0882 -0.7017 -0.1295
 6579TIP3    H141372   5.301   0.760   1.345  1.9267  0.8399 -0.5238
 6579TIP3    H241373   5.390   0.730   1.226 -0.6277 -1.1738 -1.9726
 6580TIP3   OH241374   5.088   3.489   6.403  0.0002 -0.2664 -0.0522
 6580TIP3    H141375   5.040   3.518   6.326  1.4995  1.2466 -0.4458
 6580TIP3    H241376   5.097   3.568   6.457 -0.2442 -1.1090  1.2505
 6581TIP3   OH241377   2.816   0.851   1.248 -0.8249  0.6405  0.0244
 6581TIP3    H141378   2.839   0.776   1.303 -1.3834  0.3608 -0.1184
 6581TIP3    H241379   2.818   0.815   1.159 -1.7291  0.6315  0.0048
 6582TIP3   OH241380   7.016   0.309   0.092  0.5527  0.0582  0.3268
 6582TIP3    H141381   6.955   0.244   0.126  1.5769  0.0235  2.2168
 6582TIP3    H241382   6.962   0.371   0.043 -0.7998 -0.7235  0.8132
 6583TIP3   OH241383   4.259   5.618   0.464  0.3793  0.0755 -0.3101
 6583TIP3    H141384   4.180   5.606   0.412 -0.2063 -0.0227  0.5874
 6583TIP3    H241385   4.305   5.534   0.460  0.1026 -0.0755 -0.2823
 6584TIP3   OH241386   6.928   4.485   1.599 -0.3819  0.1819  0.1061
 6584TIP3    H141387   6.910   4.393   1.620  0.1006 -0.3621 -1.7871
 6584TIP3    H241388   7.015   4.502   1.637  0.4324 -0.7499 -1.3133
 6585TIP3   OH241389   5.506   4.963   7.068 -0.2993 -0.1058 -0.0428
 6585TIP3    H141390   5.506   5.056   7.050  1.5019 -0.3399 -1.3237
 6585TIP3    H241391   5.527   4.921   6.984  1.9361 -1.4953  1.1501
 6586TIP3   OH241392   5.769   6.631   8.098  0.0339 -0.5559 -0.4711
 6586TIP3    H141393   5.743   6.548   8.138  0.0007 -0.3570 -0.0873
 6586TIP3    H241394   5.752   6.697   8.164  1.3446 -0.3961 -0.2647
 6587TIP3   OH241395   2.672   5.012   7.280 -0.4477  0.0241  0.4291
 6587TIP3    H141396   2.596   5.056   7.240 -0.6706 -0.4667  0.3135
 6587TIP3    H241397   2.634   4.938   7.328 -0.1067  0.1827  0.9443
 6588TIP3   OH241398   5.174   2.985   7.697  0.5653 -0.1090 -0.1149
 6588TIP3    H141399   5.211   2.902   7.665  1.3989  0.4827 -0.7215
 6588TIP3    H241400   5.235   3.051   7.665  0.5635  0.6424  1.4194
 6589TIP3   OH241401   5.473   3.288   6.553 -0.4717  0.0881 -0.2862
 6589TIP3    H141402   5.427   3.227   6.612  0.3371 -1.6678 -1.4209
 6589TIP3    H241403   5.424   3.284   6.471  0.3760 -0.0952 -0.7955
 6590TIP3   OH241404   5.734   4.041   8.058  0.3954  0.1555 -0.1911
 6590TIP3    H141405   5.699   4.128   8.079  1.2476  0.4831 -0.0866
 6590TIP3    H241406   5.826   4.046   8.083  0.8061 -0.3085 -1.5558
 6591TIP3   OH241407   5.126   7.147   0.222 -0.6464 -0.1048  0.4127
 6591TIP3    H141408   5.166   7.073   0.267  1.3832  1.2266  0.8730
 6591TIP3    H241409   5.037   7.152   0.257 -0.9477 -2.5734  0.0487
 6592TIP3   OH241410   3.376   5.363   0.545  0.2986  0.6382  0.1593
 6592TIP3    H141411   3.445   5.425   0.571  0.4414  0.0816  1.1267
 6592TIP3    H241412   3.310   5.369   0.614  0.6320 -0.7734  0.6267
 6593TIP3   OH241413   6.270   4.506   7.706  0.0148 -0.6133  0.1081
 6593TIP3    H141414   6.340   4.476   7.647  1.5971  1.3221  0.9248
 6593TIP3    H241415   6.317   4.550   7.777 -2.0843  1.2649  0.3717
 6594TIP3   OH241416   5.548   6.405   1.999  0.0473 -0.1945 -0.9184
 6594TIP3    H141417   5.589   6.489   2.020 -0.9209  0.1290 -0.2651
 6594TIP3    H241418   5.610   6.361   1.942  0.2038  1.3140 -1.9210
 6595TIP3   OH241419   3.615   6.009   0.361  0.3751  0.3634  0.3252
 6595TIP3    H141420   3.685   6.051   0.311  1.0205 -1.3853 -0.2678
 6595TIP3    H241421   3.652   5.925   0.388 -1.2887 -0.3218  0.5186
 6596TIP3   OH241422   6.281   4.208   0.361  0.7523 -0.4800  0.0427
 6596TIP3    H141423   6.241   4.131   0.321 -0.0180 -0.8345  1.5057
 6596TIP3    H241424   6.321   4.254   0.287 -0.7431 -1.0857 -1.1713
 6597TIP3   OH241425   6.795   6.763   0.976  0.7819  0.1494  0.1485
 6597TIP3    H141426   6.742   6.712   1.038 -0.8826  0.1562 -1.2583
 6597TIP3    H241427   6.823   6.840   1.027 -1.4678  0.7060  0.5954
 6598TIP3   OH241428   5.460   4.757   1.187  0.0093  0.2356  0.7043
 6598TIP3    H141429   5.371   4.750   1.152  0.3970  0.5096 -0.3338
 6598TIP3    H241430   5.517   4.731   1.115  0.7417 -0.9883  1.6954
 6599TIP3   OH241431   3.565   5.058   1.895 -0.1204  0.8419 -0.2663
 6599TIP3    H141432   3.494   5.096   1.947  0.2775  3.0047 -1.2149
 6599TIP3    H241433   3.645   5.086   1.940  0.1668 -3.1013  1.8279
 6600TIP3   OH241434   5.962   5.653   1.317  0.7972  0.0189  0.1112
 6600TIP3    H141435   5.879   5.690   1.346  0.5234 -0.3940 -0.1337
 6600TIP3    H241436   5.939   5.567   1.282  1.2562  0.1243 -0.4560
 6601TIP3   OH241437   4.188   0.291   1.497  0.6193  0.3380 -0.1562
 6601TIP3    H141438   4.234   0.227   1.552 -0.1796  0.5068  0.7053
 6601TIP3    H241439   4.254   0.358   1.478  0.6003  0.8550  1.5214
 6602TIP3   OH241440   6.783   0.825   1.787  0.2386 -1.0306 -0.0196
 6602TIP3    H141441   6.757   0.733   1.787 -1.5473 -0.5464  0.5154
 6602TIP3    H241442   6.703   0.873   1.767  1.0065  0.4397  0.3393
 6603TIP3   OH241443   3.942   6.200   6.834 -0.1930  0.1362  0.0902
 6603TIP3    H141444   3.869   6.140   6.850 -0.2524 -0.5061 -2.4349
 6603TIP3    H241445   4.014   6.144   6.805  0.5040  1.0474  0.0224
 6604TIP3   OH241446   2.943   5.960   0.815 -0.1781  0.1161 -0.3285
 6604TIP3    H141447   2.974   6.016   0.886 -1.8285  1.3636 -0.5695
 6604TIP3    H241448   3.021   5.913   0.786  0.0234 -2.6701  4.2579
 6605TIP3   OH241449   3.438   5.323   2.405 -0.5320  0.4429  0.5952
 6605TIP3    H141450   3.417   5.368   2.487 -0.7812 -0.9364  1.2956
 6605TIP3    H241451   3.489   5.387   2.355 -0.7300  1.4392  1.6477
 6606TIP3   OH241452   3.854   0.835   0.421 -0.1229 -0.1362  1.0224
 6606TIP3    H141453   3.836   0.855   0.330 -0.7334 -0.5336  1.0493
 6606TIP3    H241454   3.786   0.772   0.445 -0.0930  0.1271  1.8091
 6607TIP3   OH241455   3.603   4.280   7.187 -0.3175 -0.4652  0.2710
 6607TIP3    H141456   3.569   4.274   7.276 -0.2383 -0.9685  0.2718
 6607TIP3    H241457   3.561   4.207   7.141 -0.0092 -0.4841  0.0166
 6608TIP3   OH241458   3.310   0.405   6.842 -0.6674 -0.3324 -0.3877
 6608TIP3    H141459   3.240   0.430   6.903  0.2156  0.2957  0.3863
 6608TIP3    H241460   3.390   0.441   6.882  0.0233 -0.6002 -1.5218
 6609TIP3   OH241461   3.115   3.385   8.098  0.3879 -0.1809 -0.0733
 6609TIP3    H141462   3.126   3.480   8.090  0.0529  0.0198  1.5189
 6609TIP3    H241463   3.020   3.372   8.096  0.2425 -0.0962  2.9445
 6610TIP3   OH241464   6.321   5.655   7.444 -0.3471 -0.0217 -0.2524
 6610TIP3    H141465   6.391   5.631   7.384  1.8134  2.8953  1.0001
 6610TIP3    H241466   6.313   5.580   7.503  1.2524 -0.6456 -0.8038
 6611TIP3   OH241467   3.235   6.847   7.265  0.2436 -0.4075 -0.2643
 6611TIP3    H141468   3.305   6.830   7.328  1.1042  2.0083 -0.5193
 6611TIP3    H241469   3.179   6.770   7.271  1.0493 -0.8569  2.4831
 6612TIP3   OH241470   2.604   5.861   7.499 -0.3769  0.3449 -0.0448
 6612TIP3    H141471   2.517   5.840   7.533  0.1493 -0.5055  0.7958
 6612TIP3    H241472   2.654   5.781   7.510  0.3076  0.6016 -1.2324
 6613TIP3   OH241473   6.883   3.852   7.735 -0.3301 -0.0515 -0.2144
 6613TIP3    H141474   6.972   3.886   7.746 -0.0955 -0.8887  0.5272
 6613TIP3    H241475   6.891   3.758   7.749 -1.3530 -0.1220 -0.0534
 6614TIP3   OH241476   3.372   1.921   0.822 -0.4128 -0.0771 -0.3095
 6614TIP3    H141477   3.400   1.992   0.764  0.0492  0.0200  0.0299
 6614TIP3    H241478   3.277   1.922   0.816 -0.3392 -0.5892 -1.6833
 6615TIP3   OH241479   4.911   5.609   0.601 -0.0709  0.0548  0.0053
 6615TIP3    H141480   4.915   5.622   0.506 -0.4932  0.2466  0.0119
 6615TIP3    H241481   4.901   5.697   0.637 -1.3891 -0.1393  0.1405
 6616TIP3   OH241482   4.048   2.419   8.035  0.0070 -0.1707 -0.2078
 6616TIP3    H141483   4.020   2.353   7.972 -0.0500 -1.7655  1.4488
 6616TIP3    H241484   4.140   2.397   8.053  0.3848  1.0169 -0.6352
 6617TIP3   OH241485   6.710   6.662   7.272  0.4729  0.2364 -0.3502
 6617TIP3    H141486   6.624   6.635   7.240  0.2561 -2.0722  2.0793
 6617TIP3    H241487   6.772   6.619   7.213  0.0329  2.5173 -2.5858
 6618TIP3   OH241488   0.368   5.239   1.216 -0.1925  0.2319 -0.2173
 6618TIP3    H141489   0.381   5.174   1.285 -0.7994 -1.0741 -1.3086
 6618TIP3    H241490   0.308   5.303   1.254 -0.0344 -0.1456  0.6683
 6619TIP3   OH241491   5.507   3.077   1.889  0.2815  0.2191  0.1808
 6619TIP3    H141492   5.413   3.060   1.881  0.3263  0.1663 -0.2264
 6619TIP3    H241493   5.549   2.993   1.869  0.4525  0.4802 -0.5629
 6620TIP3   OH241494   0.004   6.441   6.427 -0.0134 -0.3166  0.2707
 6620TIP3    H141495   0.066   6.383   6.472  1.6945 -0.4971 -2.2123
 6620TIP3    H241496   0.041   6.529   6.439 -0.0104 -0.2762 -0.0313
 6621TIP3   OH241497   4.862   6.433   0.333 -0.1017 -0.7934 -0.2030
 6621TIP3    H141498   4.941   6.488   0.329  0.7427 -1.9953 -0.3199
 6621TIP3    H241499   4.886   6.354   0.284 -1.7199 -0.7564 -1.0753
 6622TIP3   OH241500   5.695   2.488   7.873  0.0873 -0.0884 -0.4946
 6622TIP3    H141501   5.726   2.402   7.844  0.9855 -0.7456  2.2063
 6622TIP3    H241502   5.668   2.474   7.964  0.0405  2.4344 -0.0849
 6623TIP3   OH241503   4.676   0.604   7.116  0.9573 -0.5680 -0.1909
 6623TIP3    H141504   4.662   0.510   7.107 -1.0737 -0.5327  2.2939
 6623TIP3    H241505   4.599   0.637   7.162  1.0496  2.5330 -2.0733
 6624TIP3   OH241506   4.235   0.120   0.667 -0.8188  0.1358  0.2189
 6624TIP3    H141507   4.245   0.041   0.614 -2.4733 -0.7258  1.1599
 6624TIP3    H241508   4.218   0.189   0.603 -1.4252 -0.6401 -0.4637
 6625TIP3   OH241509   6.607   0.738   7.000 -0.3146  0.1272 -0.3760
 6625TIP3    H141510   6.634   0.825   6.973  1.2097 -0.4892 -0.9155
 6625TIP3    H241511   6.614   0.685   6.920 -0.0871 -0.7460  0.2207
 6626TIP3   OH241512   5.675   3.643   0.514  0.4063  0.4579 -0.3420
 6626TIP3    H141513   5.643   3.596   0.437  0.9585 -2.5270  1.1749
 6626TIP3    H241514   5.596   3.665   0.563  0.1908  0.5415 -0.7224
 6627TIP3   OH241515   3.505   2.848   7.389 -0.0374  0.0385 -0.2460
 6627TIP3    H141516   3.579   2.797   7.356  0.2224  1.3655 -1.8291
 6627TIP3    H241517   3.437   2.783   7.407  1.2859 -1.1366  0.6501
 6628TIP3   OH241518   1.463   6.446   1.388  0.3117  0.0332 -0.4785
 6628TIP3    H141519   1.502   6.448   1.301  0.2369 -2.4804 -0.6159
 6628TIP3    H241520   1.535   6.425   1.447  0.4927  2.3492  0.2016
 6629TIP3   OH241521   5.751   4.333   0.759 -0.0295  0.1717  0.1092
 6629TIP3    H141522   5.720   4.261   0.704  0.1599 -1.3505  1.9446
 6629TIP3    H241523   5.670   4.377   0.787 -0.1817  0.2045 -0.3628
 6630TIP3   OH241524   2.477   7.104   2.007 -0.2850 -0.0341  0.1012
 6630TIP3    H141525   2.456   7.052   2.085  1.4527 -0.0568  0.5675
 6630TIP3    H241526   2.527   7.044   1.951  1.2115  0.9425  0.3825
 6631TIP3   OH241527   1.002   5.332   1.048  0.8625  0.1886 -0.4408
 6631TIP3    H141528   1.085   5.284   1.047  0.9220  0.2806  0.0893
 6631TIP3    H241529   1.027   5.424   1.048  0.7517  0.2214 -0.9197
 6632TIP3   OH241530   3.083   7.100   0.029  0.8317  0.0131  0.0173
 6632TIP3    H141531   3.063   7.177  -0.024 -3.4837 -0.1708  1.1972
 6632TIP3    H241532   3.061   7.026  -0.027 -1.8306 -0.2049  1.2790
 6633TIP3   OH241533   0.515   0.795   0.418 -0.2566 -0.2307  0.4071
 6633TIP3    H141534   0.477   0.857   0.481 -0.1411 -0.7682  1.0106
 6633TIP3    H241535   0.441   0.741   0.391 -0.2517 -0.1782  0.2881
 6634TIP3   OH241536   5.097   0.651   6.562 -0.2332  0.5051 -0.6095
 6634TIP3    H141537   5.183   0.637   6.600  0.5662  1.8857 -1.8856
 6634TIP3    H241538   5.110   0.645   6.467 -1.4296  1.2953 -0.8442
 6635TIP3   OH241539   3.938   3.221   7.274 -0.6946 -0.2316  0.1946
 6635TIP3    H141540   3.946   3.175   7.191 -1.2937  0.7568 -0.4241
 6635TIP3    H241541   4.025   3.256   7.291 -0.1313 -1.9375  0.8830
 6636TIP3   OH241542   5.567   4.560   7.020 -0.4437 -0.0429  0.1228
 6636TIP3    H141543   5.514   4.628   7.063 -1.1909  0.5800 -1.7232
 6636TIP3    H241544   5.507   4.487   7.008 -0.6664  0.3376 -1.1761
 6637TIP3   OH241545   1.537   5.368   0.121 -0.3770  1.1619  0.2784
 6637TIP3    H141546   1.542   5.359   0.216 -0.8771 -0.2545  0.1831
 6637TIP3    H241547   1.497   5.286   0.091 -2.0871  2.3938 -0.9740
 6638TIP3   OH241548   4.778   0.872   0.172  0.1147  0.1268 -0.5012
 6638TIP3    H141549   4.725   0.792   0.167  1.8826 -1.0464 -0.7920
 6638TIP3    H241550   4.788   0.900   0.081  0.6286 -0.0766 -0.5076
 6639TIP3   OH241551   5.688   0.089   7.353 -0.4799 -0.0136 -0.7839
 6639TIP3    H141552   5.779   0.114   7.369  0.2950 -2.8149 -0.6543
 6639TIP3    H241553   5.646   0.095   7.438 -0.9331  3.0738 -1.1526
 6640TIP3   OH241554   6.554   6.080   8.098 -0.1912 -0.1038 -0.4821
 6640TIP3    H141555   6.509   6.001   8.129 -2.5833  1.8254  1.0789
 6640TIP3    H241556   6.627   6.090   8.159 -0.9736 -0.0709  0.4620
 6641TIP3   OH241557   3.745   5.151   0.691  0.4364  0.3017 -0.5880
 6641TIP3    H141558   3.762   5.141   0.785  0.8413 -1.5592 -0.8387
 6641TIP3    H241559   3.650   5.145   0.683  0.5031 -1.0473 -0.4516
 6642TIP3   OH241560   5.083   6.766   1.003  0.3358  0.3405 -0.1558
 6642TIP3    H141561   5.081   6.680   0.962  0.4912 -0.2556  1.0533
 6642TIP3    H241562   4.993   6.782   1.031  0.6341 -0.2247  1.1898
 6643TIP3   OH241563   5.587   4.776   7.381 -0.0191 -0.2722 -0.2584
 6643TIP3    H141564   5.660   4.733   7.424 -0.3080 -2.0382 -1.4929
 6643TIP3    H241565   5.605   4.869   7.391  2.3602 -0.6737 -0.4868
 6644TIP3   OH241566   0.671   6.513   0.568 -0.5441  0.2636 -0.5369
 6644TIP3    H141567   0.643   6.433   0.612  1.2554 -0.2063 -0.2078
 6644TIP3    H241568   0.711   6.483   0.486 -0.7127  0.8849 -0.8509
 6645TIP3   OH241569   2.971   4.621   0.712  0.3873 -0.1047 -0.6179
 6645TIP3    H141570   2.971   4.550   0.776  1.4941  0.4905  0.0543
 6645TIP3    H241571   2.945   4.699   0.762 -1.2311 -0.0979 -1.4375
 6646TIP3   OH241572   4.190   0.677   7.278  0.0071  0.2201 -0.3114
 6646TIP3    H141573   4.095   0.671   7.277  0.0412 -0.9088  1.7444
 6646TIP3    H241574   4.219   0.593   7.242  0.2489  0.5824 -0.9843
 6647TIP3   OH241575   1.809   0.531   7.300 -0.1221 -0.0015 -0.0295
 6647TIP3    H141576   1.718   0.512   7.278 -0.3208  0.8054  0.1205
 6647TIP3    H241577   1.815   0.517   7.394 -0.4325  1.3579  0.1935
 6648TIP3   OH241578   2.768   4.542   1.862 -0.0252 -0.3428 -0.2603
 6648TIP3    H141579   2.793   4.633   1.846 -0.2504 -0.1756  0.3112
 6648TIP3    H241580   2.782   4.498   1.778  0.3056  0.1675 -0.4770
 6649TIP3   OH241581   0.534   0.216   1.200  0.5567 -0.0520 -0.2214
 6649TIP3    H141582   0.604   0.211   1.265 -0.4653 -0.6074  0.8344
 6649TIP3    H241583   0.496   0.303   1.212  0.2143 -0.2445  0.0708
 6650TIP3   OH241584   4.477   4.842   0.972 -0.3467 -0.2361  0.4692
 6650TIP3    H141585   4.444   4.801   1.052  1.5140  1.9336  2.4654
 6650TIP3    H241586   4.503   4.930   1.000  1.7259  0.0752 -2.1904
 6651TIP3   OH241587   1.972   5.164   1.263  0.2246  0.0693  0.1098
 6651TIP3    H141588   2.047   5.117   1.227 -0.7028 -1.6697  0.3944
 6651TIP3    H241589   1.953   5.232   1.198  3.5834  2.1821  1.2161
 6652TIP3   OH241590   5.445   6.075   0.175 -0.6647  0.4621  0.1908
 6652TIP3    H141591   5.366   6.047   0.222 -0.7459  2.1071  1.0580
 6652TIP3    H241592   5.508   6.096   0.243  0.4380 -0.5084 -0.4983
 6653TIP3   OH241593   5.125   4.378   7.625  0.0578  1.0488  0.6460
 6653TIP3    H141594   5.167   4.324   7.558  1.0802  1.0379  1.2939
 6653TIP3    H241595   5.119   4.465   7.585 -1.4800  0.5013 -0.3499
 6654TIP3   OH241596   4.643   6.452   1.038  0.6555 -0.2422  0.3964
 6654TIP3    H141597   4.610   6.374   1.084  0.7752  0.2145  1.2718
 6654TIP3    H241598   4.625   6.524   1.098  2.7201  0.1046  0.6226
 6655TIP3   OH241599   2.467   2.016   6.280 -0.1539  0.4706 -0.0029
 6655TIP3    H141600   2.453   2.087   6.217 -1.3091  0.6592  0.4430
 6655TIP3    H241601   2.464   1.936   6.227 -0.3996  0.6720 -0.2966
 6656TIP3   OH241602   4.053   0.099   7.161  0.3358 -0.4150  0.2480
 6656TIP3    H141603   3.970   0.131   7.197 -0.1697 -1.8493  0.3798
 6656TIP3    H241604   4.050   0.126   7.069 -0.4391 -0.7600  0.1653
 6657TIP3   OH241605   5.462   5.227   0.995 -0.2385  0.0498 -0.6974
 6657TIP3    H141606   5.547   5.261   0.969  0.6431 -1.2736  0.4019
 6657TIP3    H241607   5.473   5.199   1.086 -1.3200 -1.7789 -1.0895
 6658TIP3   OH241608   1.201   1.560   0.223 -0.0056  0.4341 -0.0574
 6658TIP3    H141609   1.179   1.474   0.259  0.4666  0.2929 -0.1113
 6658TIP3    H241610   1.284   1.583   0.264  0.2292  0.5435 -0.5981
 6659TIP3   OH241611   6.517   0.591   7.745  0.3053  0.2698  0.2316
 6659TIP3    H141612   6.439   0.623   7.701  0.6958  0.3684 -0.3997
 6659TIP3    H241613   6.542   0.662   7.805  2.2453  2.0134 -2.5071
 6660TIP3   OH241614   3.038   1.025   1.666  0.2275  0.2920  0.5911
 6660TIP3    H141615   2.982   1.091   1.707 -0.7632 -2.1797  3.3648
 6660TIP3    H241616   3.125   1.040   1.704  0.2006  0.5417  0.5548
 6661TIP3   OH241617   6.154   1.044   1.027 -0.4974  0.1008  0.0139
 6661TIP3    H141618   6.220   1.056   1.095  0.4426  1.7076 -1.1453
 6661TIP3    H241619   6.109   1.129   1.021  0.1794  0.3441 -2.1063
 6662TIP3   OH241620   2.714   6.167   1.628 -0.1174 -0.1215 -0.4074
 6662TIP3    H141621   2.632   6.194   1.587  0.3214  1.8006 -0.0354
 6662TIP3    H241622   2.783   6.203   1.573  0.4829 -0.1773  0.2916
 6663TIP3   OH241623   1.684   0.708   0.745  0.6851 -1.0499  0.1577
 6663TIP3    H141624   1.731   0.682   0.824 -1.4950  0.1680  1.9135
 6663TIP3    H241625   1.596   0.673   0.757 -0.0575  0.3346 -1.0894
 6664TIP3   OH241626   3.437   4.404   0.711  0.3591 -0.1757  0.0540
 6664TIP3    H141627   3.405   4.375   0.625 -0.9108 -0.2364  0.5300
 6664TIP3    H241628   3.472   4.325   0.752  1.9897  0.0690 -0.8404
 6665TIP3   OH241629   4.717   0.732   7.808 -0.5037  0.0164 -0.6110
 6665TIP3    H141630   4.728   0.638   7.818 -0.6258  0.0568 -0.0518
 6665TIP3    H241631   4.703   0.746   7.714  1.3912 -0.3337 -0.9643
 6666TIP3   OH241632   2.473   1.958   1.422 -0.1860 -0.5746 -0.3631
 6666TIP3    H141633   2.460   1.915   1.338  0.7119  1.2432 -1.4573
 6666TIP3    H241634   2.561   1.931   1.450  0.3685  0.5104 -1.0393
 6667TIP3   OH241635   2.996   1.953   0.078  0.1249  0.5470  0.1458
 6667TIP3    H141636   2.977   1.866   0.113  0.8924 -0.0300 -0.8579
 6667TIP3    H241637   2.934   1.963   0.006  0.8418  0.3582 -0.4889
 6668TIP3   OH241638   5.829   3.333   1.126  0.2459 -0.1432  0.3597
 6668TIP3    H141639   5.794   3.422   1.130 -0.4453 -0.3329 -1.1470
 6668TIP3    H241640   5.924   3.345   1.131  0.1910  0.7283 -0.5635
 6669TIP3   OH241641   0.989   3.666   0.228  0.0512  0.5011  0.8393
 6669TIP3    H141642   1.000   3.571   0.226 -0.2870  0.3884  3.6631
 6669TIP3    H241643   0.984   3.691   0.135 -1.6804 -2.4203  0.0984
 6670TIP3   OH241644   2.986   1.398   7.267 -0.0275  0.1316  0.2343
 6670TIP3    H141645   3.024   1.400   7.179  1.3161 -0.7685  0.7674
 6670TIP3    H241646   2.978   1.490   7.292 -0.2423  0.3890 -0.7449
 6671TIP3   OH241647   2.917   0.777   1.617 -0.4876  0.3868  0.3032
 6671TIP3    H141648   2.962   0.860   1.637 -0.5303  0.7606 -1.0887
 6671TIP3    H241649   2.981   0.709   1.639  0.5272  0.8943 -1.0004
 6672TIP3   OH241650   4.281   6.784   0.139 -0.4471  0.6474  0.6624
 6672TIP3    H141651   4.287   6.813   0.230  1.0823  1.4534  0.3236
 6672TIP3    H241652   4.299   6.862   0.087 -0.0018 -0.0860 -0.3142
 6673TIP3   OH241653   2.242   5.240   0.370  0.2043  0.1271 -0.3366
 6673TIP3    H141654   2.160   5.215   0.329  0.4534  0.2142 -0.8987
 6673TIP3    H241655   2.238   5.202   0.458  0.0579 -0.8468 -0.7525
 6674TIP3   OH241656   4.051   2.473   6.509  0.3107 -0.4455 -0.3013
 6674TIP3    H141657   3.998   2.551   6.494  1.6623  0.5557 -0.0526
 6674TIP3    H241658   4.110   2.498   6.581 -0.1639 -2.1701  0.7171
 6675TIP3   OH241659   5.195   3.586   2.166  0.0983 -0.0695 -0.6729
 6675TIP3    H141660   5.192   3.630   2.251 -1.3745  1.7742 -1.6633
 6675TIP3    H241661   5.282   3.606   2.132  0.3725 -0.0938 -0.0035
 6676TIP3   OH241662   4.363   5.820   0.660 -0.1686  0.0395 -1.0836
 6676TIP3    H141663   4.300   5.776   0.603  0.0442 -2.6138  0.6528
 6676TIP3    H241664   4.427   5.752   0.681  2.0897  2.1122 -1.0577
 6677TIP3   OH241665   0.162   0.792   7.549 -0.3913 -0.5678  0.7821
 6677TIP3    H141666   0.134   0.737   7.622 -1.6004  0.4259  1.0897
 6677TIP3    H241667   0.102   0.771   7.477 -0.8378  0.2802  0.8880
 6678TIP3   OH241668   5.912   4.441   1.935 -0.0932 -0.0027  0.1860
 6678TIP3    H141669   5.842   4.504   1.916 -1.0800 -0.9614  0.6119
 6678TIP3    H241670   5.946   4.469   2.020  1.0225  1.3213 -0.6648
 6679TIP3   OH241671   0.466   4.537   7.779  0.2517 -0.0166  0.3394
 6679TIP3    H141672   0.466   4.510   7.871  0.9763 -1.2409 -0.0030
 6679TIP3    H241673   0.392   4.489   7.740  1.6366 -1.6854 -0.3038
 6680TIP3   OH241674   4.555   0.503   8.094 -0.4521 -0.1706  0.1347
 6680TIP3    H141675   4.476   0.548   8.063 -0.3543 -0.2740 -0.2611
 6680TIP3    H241676   4.584   0.556   8.169  2.1062  2.9394 -2.8977
 6681TIP3   OH241677   0.169   3.565   0.574 -0.9357  0.2564 -0.2263
 6681TIP3    H141678   0.251   3.590   0.616 -0.3506 -0.6071 -0.8529
 6681TIP3    H241679   0.103   3.571   0.643 -0.0976 -0.4857  0.6328
 6682TIP3   OH241680   3.911   0.388   1.531 -0.1117  0.5450 -0.0729
 6682TIP3    H141681   3.918   0.451   1.459 -0.5974  0.1023 -0.5068
 6682TIP3    H241682   4.002   0.361   1.547  0.2446  2.2583  0.9311
 6683TIP3   OH241683   5.861   6.899   1.921  0.4593  0.0147  0.4989
 6683TIP3    H141684   5.795   6.924   1.986 -0.2781 -2.0598  0.5930
 6683TIP3    H241685   5.900   6.819   1.956 -0.4531 -1.5538 -1.9301
 6684TIP3   OH241686   1.552   6.408   7.850 -0.1983 -0.0658 -0.0774
 6684TIP3    H141687   1.641   6.424   7.882 -1.0344  2.7737  1.0687
 6684TIP3    H241688   1.502   6.386   7.929 -0.8624  0.0833 -0.4566
 6685TIP3   OH241689   6.240   6.381   1.765  0.1769  0.2406 -0.1403
 6685TIP3    H141690   6.234   6.467   1.805  0.4042 -0.3323  1.1687
 6685TIP3    H241691   6.151   6.346   1.768  0.2388  0.0992  0.1158
 6686TIP3   OH241692   3.278   0.441   0.764  0.2849 -0.2056 -0.2626
 6686TIP3    H141693   3.283   0.348   0.786 -0.5999 -0.6607 -1.9020
 6686TIP3    H241694   3.197   0.472   0.805 -1.1941 -0.9775 -2.5000
 6687TIP3   OH241695   6.253   6.707   7.561  0.3503  0.3925  0.8434
 6687TIP3    H141696   6.325   6.644   7.553 -0.0635  0.0398 -0.3806
 6687TIP3    H241697   6.287   6.777   7.616  2.2052  1.0222 -1.0171
 6688TIP3   OH241698   0.062   5.628   1.283 -0.5524 -0.0866 -0.3903
 6688TIP3    H141699   0.002   5.575   1.229 -0.5048 -0.3741 -0.1595
 6688TIP3    H241700   0.061   5.714   1.241 -1.2137 -0.0586 -0.3257
 6689TIP3   OH241701   1.939   6.688   1.746 -0.3395 -0.1026  0.3881
 6689TIP3    H141702   1.866   6.708   1.804  0.0353  0.1646  0.7728
 6689TIP3    H241703   2.011   6.664   1.804 -0.5839 -1.9553 -0.0556
 6690TIP3   OH241704   5.387   3.018   8.097  1.0423 -1.0084  0.2339
 6690TIP3    H141705   5.410   3.014   8.005 -1.6014 -1.0052 -0.4591
 6690TIP3    H241706   5.352   2.931   8.117 -0.1095 -0.4415  0.7408
 6691TIP3   OH241707   2.954   4.414   6.666  0.4568  0.5645 -0.0612
 6691TIP3    H141708   2.921   4.361   6.593 -0.5182 -0.1115  0.8600
 6691TIP3    H241709   2.974   4.499   6.626  0.3940  0.0549 -1.2058
 6692TIP3   OH241710   3.475   0.571   0.628 -0.4111 -0.0190  0.2148
 6692TIP3    H141711   3.411   0.518   0.678  0.3053 -0.9835  0.1213
 6692TIP3    H241712   3.449   0.661   0.646 -1.9037 -0.3899  0.0704
 6693TIP3   OH241713   4.403   4.684   1.228  0.6186  0.3900 -0.0941
 6693TIP3    H141714   4.497   4.689   1.244  1.1754 -1.2042 -2.5914
 6693TIP3    H241715   4.378   4.596   1.255 -0.1745  0.8189  0.5961
 6694TIP3   OH241716   6.151   6.130   7.147  0.3998  0.2390 -0.0233
 6694TIP3    H141717   6.184   6.135   7.057 -1.6101  0.0554 -0.8019
 6694TIP3    H241718   6.143   6.221   7.175 -2.2861  0.4755 -1.3389
 6695TIP3   OH241719   3.120   4.638   1.158  0.3373 -0.3625  0.3659
 6695TIP3    H141720   3.187   4.622   1.091 -0.9631  0.3952 -1.1461
 6695TIP3    H241721   3.160   4.701   1.218  0.1837  1.9234 -1.8368
 6696TIP3   OH241722   1.662   5.396   2.213 -0.3883  0.0833 -0.2353
 6696TIP3    H141723   1.624   5.375   2.298  2.1335 -0.7789  0.7222
 6696TIP3    H241724   1.587   5.403   2.154 -2.3094  2.3506  2.3778
 6697TIP3   OH241725   6.741   4.701   1.671 -0.3084 -0.5412 -0.1470
 6697TIP3    H141726   6.786   4.619   1.693 -0.7239 -0.9420 -0.7925
 6697TIP3    H241727   6.741   4.703   1.575 -0.6425  0.0274 -0.1349
 6698TIP3   OH241728   2.725   7.037   1.231 -0.3863  0.1274  0.1938
 6698TIP3    H141729   2.650   7.089   1.203 -0.5229  0.0549  0.4179
 6698TIP3    H241730   2.693   6.947   1.229 -0.4457  0.1353  0.7212
 6699TIP3   OH241731   5.395   1.244   0.403 -0.4557 -0.5209  0.0271
 6699TIP3    H141732   5.304   1.214   0.413 -1.2613  1.2582 -1.4962
 6699TIP3    H241733   5.407   1.308   0.473 -0.2393 -1.0712  0.4914
 6700TIP3   OH241734   5.081   4.429   0.567 -0.4222 -0.2135  0.1164
 6700TIP3    H141735   5.075   4.370   0.492  1.2852  0.3986 -0.5258
 6700TIP3    H241736   5.172   4.422   0.597 -0.8268  0.2892  1.5133
 6701TIP3   OH241737   3.421   0.106   1.066 -0.6604  0.3809 -0.0306
 6701TIP3    H141738   3.408   0.139   0.977 -2.8361 -0.9272 -0.2342
 6701TIP3    H241739   3.334   0.107   1.105 -0.4169 -2.8634  0.7385
 6702TIP3   OH241740   2.778   6.442   0.760  0.4900 -0.0066 -0.4635
 6702TIP3    H141741   2.764   6.374   0.694  1.1083  0.0413 -0.6488
 6702TIP3    H241742   2.701   6.499   0.753 -0.1110 -0.7754 -0.1917
 6703TIP3   OH241743   4.374   0.469   2.111 -0.1968  0.3441  0.1292
 6703TIP3    H141744   4.396   0.389   2.159  2.3755 -0.3862 -2.1447
 6703TIP3    H241745   4.387   0.540   2.175 -0.6331 -0.8897  1.6115
 6704TIP3   OH241746   6.230   4.136   0.652  0.0133  0.6876  0.0416
 6704TIP3    H141747   6.301   4.172   0.600  1.1423 -3.1249 -1.2047
 6704TIP3    H241748   6.155   4.133   0.592 -0.0163  0.7270  0.0757
 6705TIP3   OH241749   7.108   0.246   7.592 -0.1014  0.4127 -0.2402
 6705TIP3    H141750   7.067   0.179   7.538 -2.0261 -0.0163  1.6838
 6705TIP3    H241751   7.055   0.325   7.579  0.5249  0.8128 -0.3983
 6706TIP3   OH241752   4.773   5.634   1.062 -0.1218 -0.6416  0.0454
 6706TIP3    H141753   4.697   5.662   1.011  1.5790  2.8275 -0.7569
 6706TIP3    H241754   4.802   5.554   1.019 -1.7474 -0.5518 -1.2986
 6707TIP3   OH241755   5.515   2.268   1.194  0.4453  0.2845  0.2144
 6707TIP3    H141756   5.584   2.206   1.217  0.1453 -0.3710 -0.6394
 6707TIP3    H241757   5.434   2.217   1.202  0.2955  0.1925 -1.7588
 6708TIP3   OH241758   1.156   5.524   5.984 -0.1352 -0.3306  0.1488
 6708TIP3    H141759   1.232   5.529   5.926 -0.2806  2.2488  0.1216
 6708TIP3    H241760   1.185   5.564   6.066 -0.3770 -2.6343  1.3731
 6709TIP3   OH241761   5.506   5.894   6.249 -0.0901 -0.3117 -0.5247
 6709TIP3    H141762   5.531   5.842   6.173 -2.0832 -3.7147  1.0510
 6709TIP3    H241763   5.566   5.866   6.318 -0.2418  0.5780 -0.0178
 6710TIP3   OH241764   3.427   6.309   1.596 -0.3119 -0.0306  0.7561
 6710TIP3    H141765   3.519   6.316   1.622 -0.6276 -0.0364  1.8921
 6710TIP3    H241766   3.393   6.236   1.647 -1.3185  0.9036  1.4397
 6711TIP3   OH241767   2.446   6.233   0.066  0.1499  0.0442  0.5720
 6711TIP3    H141768   2.497   6.184   0.130 -1.0000 -1.4130  0.3994
 6711TIP3    H241769   2.435   6.319   0.105  0.6402 -0.3951  1.7063
 6712TIP3   OH241770   3.143   5.794   1.042  0.1906  0.8528 -0.2890
 6712TIP3    H141771   3.057   5.807   1.082 -0.7558  0.4158 -2.1272
 6712TIP3    H241772   3.164   5.703   1.061 -0.5654  0.4481 -1.3127
 6713TIP3   OH241773   3.295   6.367   0.886  0.6785 -0.0000 -0.1672
 6713TIP3    H141774   3.313   6.410   0.969 -0.9566 -0.3970  0.4221
 6713TIP3    H241775   3.296   6.438   0.821 -1.6128  0.9215  0.7400
 6714TIP3   OH241776   0.723   2.610   1.621  0.5231  0.2212 -0.5232
 6714TIP3    H141777   0.681   2.553   1.686  0.2563  0.4178 -0.5247
 6714TIP3    H241778   0.812   2.575   1.614  0.4292 -0.0600 -0.3588
 6715TIP3   OH241779   3.876   6.567   1.350  0.2015  0.5013 -0.3891
 6715TIP3    H141780   3.824   6.538   1.275  0.2420  1.5428 -0.8316
 6715TIP3    H241781   3.961   6.525   1.338  0.5727  1.5489 -1.5484
 6716TIP3   OH241782   0.012   7.146   1.068  0.0801 -0.3975  0.2826
 6716TIP3    H141783  -0.058   7.182   1.014  2.0035 -0.4025 -2.3143
 6716TIP3    H241784   0.031   7.061   1.030 -0.4540 -1.7111  2.7991
 6717TIP3   OH241785   3.716   5.874   8.080  0.2243  0.1788  0.5354
 6717TIP3    H141786   3.684   5.924   8.005  1.2426 -1.0277 -0.7296
 6717TIP3    H241787   3.805   5.849   8.056  0.4807 -0.4435  2.0563
 6718TIP3   OH241788   1.828   5.225   7.958 -0.0568 -0.1853 -0.0068
 6718TIP3    H141789   1.871   5.154   8.005  0.0541  0.0935  0.3146
 6718TIP3    H241790   1.900   5.285   7.935 -0.4309  0.8685  1.5493
 6719TIP3   OH241791   3.508   1.020   7.388  0.1507 -0.1622  0.2964
 6719TIP3    H141792   3.526   1.046   7.298  0.9276 -1.4931  0.0679
 6719TIP3    H241793   3.548   1.089   7.441  0.0872  0.3799 -0.3556
 6720TIP3   OH241794   4.431   5.455   2.200  0.4708 -0.0398 -0.1608
 6720TIP3    H141795   4.336   5.461   2.187  0.2253 -0.1137  1.4907
 6720TIP3    H241796   4.459   5.387   2.138 -0.8499 -1.3927  0.6955
 6721TIP3   OH241797   5.933   4.030   0.637 -0.3024 -0.4232 -0.0763
 6721TIP3    H141798   5.857   4.084   0.661 -0.1770 -0.6073  0.7641
 6721TIP3    H241799   5.896   3.960   0.584 -0.8185 -0.8406  0.8148
 6722TIP3   OH241800   2.423   4.315   0.350  0.1740  0.8506 -0.1022
 6722TIP3    H141801   2.328   4.325   0.362 -0.0276 -0.5717 -0.4201
 6722TIP3    H241802   2.442   4.227   0.383  1.9170  2.2720  2.9499
 6723TIP3   OH241803   4.460   1.167   1.833 -0.0852 -0.5288 -0.1739
 6723TIP3    H141804   4.379   1.176   1.784 -1.0443 -1.3118  1.2180
 6723TIP3    H241805   4.501   1.254   1.828 -1.6688  0.2594  0.2460
 6724TIP3   OH241806   0.946   2.848   0.497 -0.5353 -0.2905  0.2986
 6724TIP3    H141807   1.025   2.803   0.466  0.5507  1.6058  0.2808
 6724TIP3    H241808   0.943   2.830   0.591 -0.7042 -1.2808  0.1113
 6725TIP3   OH241809   6.748   2.351   1.681  0.1506  0.2948  0.1853
 6725TIP3    H141810   6.833   2.367   1.640  1.4181  0.4532  2.7761
 6725TIP3    H241811   6.768   2.294   1.756 -1.9509  0.7231  1.0931
 6726TIP3   OH241812   3.825   4.638   7.481 -0.5269  0.2188  0.1266
 6726TIP3    H141813   3.741   4.600   7.456  0.1122 -0.3265 -1.2378
 6726TIP3    H241814   3.854   4.585   7.555  0.1438 -1.7176 -1.4730
 6727TIP3   OH241815   5.440   4.736   7.180 -0.5818  0.3160  0.2731
 6727TIP3    H141816   5.425   4.817   7.130  0.3444 -0.3459 -1.1293
 6727TIP3    H241817   5.497   4.762   7.252  3.0623  0.2662 -2.4264
 6728TIP3   OH241818   4.570   6.209   1.474  0.0166  0.1224 -0.2463
 6728TIP3    H141819   4.509   6.221   1.548  1.6171  1.7835  0.8374
 6728TIP3    H241820   4.628   6.138   1.502  0.7555  0.8945  0.1874
 6729TIP3   OH241821   3.655   6.842   0.844  0.8600 -0.3788  0.3847
 6729TIP3    H141822   3.694   6.899   0.778  0.0317 -1.4611 -1.0709
 6729TIP3    H241823   3.623   6.902   0.911  0.1424  0.8804 -1.0415
 6730TIP3   OH241824   2.279   3.165   1.149  0.3920  0.5018  0.1560
 6730TIP3    H141825   2.201   3.181   1.097  0.1076  0.8616  0.6848
 6730TIP3    H241826   2.282   3.070   1.160 -0.5708  0.5565  1.0339
 6731TIP3   OH241827   5.313   0.426   1.676 -0.5101 -0.6512 -0.0683
 6731TIP3    H141828   5.300   0.449   1.768 -0.7338 -2.2694  0.3223
 6731TIP3    H241829   5.381   0.486   1.645 -1.2538  0.6678  0.8305
 6732TIP3   OH241830   0.047   4.651   6.434  0.1723  0.0940 -0.0145
 6732TIP3    H141831   0.066   4.721   6.496 -2.1604  0.4301  0.3490
 6732TIP3    H241832   0.124   4.595   6.437  2.2714  2.8293 -0.5910
 6733TIP3   OH241833   4.050   0.152   0.835  0.1250  0.3180  0.4046
 6733TIP3    H141834   4.103   0.115   0.765 -0.8611 -1.6533  0.6692
 6733TIP3    H241835   4.087   0.239   0.850  1.9990 -0.2600 -0.7592
 6734TIP3   OH241836   1.969   0.847   6.686  0.0518 -0.1327 -0.5808
 6734TIP3    H141837   2.008   0.772   6.641 -0.0049 -0.7305  0.3455
 6734TIP3    H241838   2.044   0.892   6.727  0.1951  0.8286 -1.8498
 6735TIP3   OH241839   2.024   0.191   7.889 -0.0910  0.4957 -0.0500
 6735TIP3    H141840   2.078   0.174   7.966  0.1421  0.7923 -0.1436
 6735TIP3    H241841   2.087   0.213   7.820 -0.2383 -0.8392 -0.6123
 6736TIP3   OH241842   2.055   6.031   1.864  0.1634 -0.5074  0.3403
 6736TIP3    H141843   1.990   6.101   1.871 -0.7141 -1.4824  2.1116
 6736TIP3    H241844   2.025   5.963   1.924  0.8518 -2.5647 -1.5387
 6737TIP3   OH241845   4.680   0.781   7.546  0.1150 -0.0647  0.6668
 6737TIP3    H141846   4.719   0.863   7.516 -1.5850  0.8604  0.8714
 6737TIP3    H241847   4.723   0.713   7.494  0.0391  1.1578 -1.0402
 6738TIP3   OH241848   1.490   2.718   1.875  0.1761  0.6082  0.5363
 6738TIP3    H141849   1.519   2.675   1.794  0.4411  2.4498 -0.3597
 6738TIP3    H241850   1.418   2.775   1.848  0.3593  1.3375  1.5714
 6739TIP3   OH241851   5.501   1.812   7.332 -0.5504  0.0848 -0.0567
 6739TIP3    H141852   5.594   1.822   7.354 -1.0959 -0.2170  2.5312
 6739TIP3    H241853   5.463   1.898   7.349 -1.1594 -0.4093  1.1548
 6740TIP3   OH241854   2.670   1.328   0.591  0.3898 -0.0044 -0.3830
 6740TIP3    H141855   2.585   1.315   0.633  1.0227 -1.7312  0.3857
 6740TIP3    H241856   2.669   1.419   0.563 -2.7529 -0.6300 -2.6449
 6741TIP3   OH241857   4.561   5.066   1.576 -0.4134 -0.2224 -0.1610
 6741TIP3    H141858   4.566   4.998   1.644 -1.1524  0.0778  0.1981
 6741TIP3    H241859   4.518   5.140   1.620 -3.1872 -0.8889 -1.6551
 6742TIP3   OH241860   2.292   1.983   6.482  0.0925 -0.5194 -0.6695
 6742TIP3    H141861   2.363   1.974   6.417  0.4248  0.7407 -0.5070
 6742TIP3    H241862   2.214   2.001   6.429  0.4770  1.1348 -0.7272
 6743TIP3   OH241863   6.557   3.709   1.284 -0.4329  0.1658  0.1321
 6743TIP3    H141864   6.538   3.615   1.283 -1.0250  0.2962 -0.9301
 6743TIP3    H241865   6.652   3.714   1.280 -0.3515 -0.4004  1.0952
 6744TIP3   OH241866   6.378   1.699   7.865 -0.2202  0.2308  0.6632
 6744TIP3    H141867   6.397   1.617   7.819 -2.0441 -0.3839  0.9605
 6744TIP3    H241868   6.362   1.673   7.955  0.9560  1.1448  1.1410
 6745TIP3   OH241869   6.950   3.472   0.751 -0.1848 -0.3986  0.5067
 6745TIP3    H141870   6.857   3.449   0.750 -0.4797  0.7774  0.2689
 6745TIP3    H241871   6.953   3.563   0.721  0.9334 -0.0609  1.6009
 6746TIP3   OH241872   5.030   3.551   1.935  0.2128  0.6676 -0.3318
 6746TIP3    H141873   4.971   3.476   1.941  2.2020 -1.0285 -1.5145
 6746TIP3    H241874   5.071   3.556   2.021  0.5688 -0.0048 -0.4624
 6747TIP3   OH241875   1.195   4.118   7.488  0.6966 -0.3286 -0.5110
 6747TIP3    H141876   1.142   4.196   7.506 -1.9173 -1.3954 -3.1182
 6747TIP3    H241877   1.145   4.046   7.525  2.5096 -0.9402  0.8153
 6748TIP3   OH241878   4.100   6.632   0.870 -0.2828 -0.1213  0.5308
 6748TIP3    H141879   4.042   6.648   0.795  2.9468 -0.7484 -2.1799
 6748TIP3    H241880   4.112   6.537   0.872 -0.0942 -0.0849  1.6832
 6749TIP3   OH241881   2.251   3.531   7.669  0.1392 -0.8331 -0.2640
 6749TIP3    H141882   2.257   3.610   7.615 -0.1573  0.1473  1.1223
 6749TIP3    H241883   2.167   3.493   7.646  0.5646 -1.1113 -1.4099
 6750TIP3   OH241884   5.039   2.368   6.383 -0.3197 -0.4693 -0.1433
 6750TIP3    H141885   5.121   2.319   6.387  0.3697  0.7176  1.0691
 6750TIP3    H241886   4.992   2.343   6.463  0.3585  1.3193  0.8616
 6751TIP3   OH241887   4.147   0.712   0.997 -0.0710 -0.0843  0.5899
 6751TIP3    H141888   4.201   0.790   1.008  1.0865 -0.6883 -0.7225
 6751TIP3    H241889   4.114   0.717   0.907  0.0969 -1.1644  0.4629
 6752TIP3   OH241890   5.915   5.902   1.013 -0.0318 -0.6672  0.0106
 6752TIP3    H141891   5.893   5.983   0.967  0.7866 -0.6069 -0.2802
 6752TIP3    H241892   5.842   5.843   0.992 -0.3683 -0.1809 -0.2096
 6753TIP3   OH241893   0.140   0.654   0.761 -0.4094 -0.2837 -0.4023
 6753TIP3    H141894   0.069   0.713   0.735  0.1212 -0.0220 -1.2934
 6753TIP3    H241895   0.096   0.572   0.782 -0.9239 -0.3254 -1.6055
 6754TIP3   OH241896   1.374   6.086   1.451 -0.1145  0.3255  0.1828
 6754TIP3    H141897   1.379   6.057   1.360 -0.3614 -0.3407  0.3771
 6754TIP3    H241898   1.285   6.064   1.478 -0.4345  1.6149  0.2227
 6755TIP3   OH241899   0.047   3.761   1.789  0.0836 -0.1857  0.1878
 6755TIP3    H141900   0.128   3.779   1.837  1.1403 -0.5695 -1.4272
 6755TIP3    H241901  -0.022   3.798   1.844  0.9721 -3.0838  3.4209
 6756TIP3   OH241902   2.847   3.553   7.714  0.7700 -0.1237 -0.1762
 6756TIP3    H141903   2.778   3.568   7.778  0.0088 -0.6018 -0.8668
 6756TIP3    H241904   2.836   3.461   7.688  1.0816  0.0500 -0.9590
 6757TIP3   OH241905   0.897   0.421   0.561  0.7837  0.1898  0.8341
 6757TIP3    H141906   0.813   0.441   0.601 -0.7354 -0.5175 -1.8960
 6757TIP3    H241907   0.926   0.505   0.523  0.0652 -0.1415 -0.4529
 6758TIP3   OH241908   0.592   6.337   0.075  0.3665 -0.1202 -0.5755
 6758TIP3    H141909   0.595   6.324   0.170 -1.8262  0.7409 -0.3762
 6758TIP3    H241910   0.580   6.431   0.064 -3.0585 -0.6082 -1.5880
 6759TIP3   OH241911   4.116   0.416   7.501 -0.0501 -0.2990 -0.0940
 6759TIP3    H141912   4.082   0.328   7.515  2.1896 -1.1449  0.2923
 6759TIP3    H241913   4.167   0.410   7.420 -1.7598  1.2253 -1.3160
 6760TIP3   OH241914   3.620   6.360   7.498  0.1162 -0.2692 -0.1140
 6760TIP3    H141915   3.645   6.290   7.558  0.3542 -1.9626 -2.1200
 6760TIP3    H241916   3.583   6.429   7.554 -0.9028 -2.3414  1.8161
 6761TIP3   OH241917   0.848   5.413   6.152  0.1946 -0.3389 -0.1841
 6761TIP3    H141918   0.873   5.501   6.177 -1.5954  0.0023  0.4677
 6761TIP3    H241919   0.827   5.419   6.058 -0.8007  0.1436  0.0615
 6762TIP3   OH241920   6.648   3.856   0.882 -0.2088  0.4653  0.0175
 6762TIP3    H141921   6.706   3.783   0.906 -0.5646 -0.4462 -1.8366
 6762TIP3    H241922   6.580   3.855   0.949 -1.1612 -2.0183 -0.9021
 6763TIP3   OH241923   2.510   6.071   0.815 -0.2245  0.5187 -0.5302
 6763TIP3    H141924   2.487   6.158   0.848  0.9253  1.0801 -1.2034
 6763TIP3    H241925   2.453   6.012   0.864 -0.4260  1.5719  0.5348
 6764TIP3   OH241926   6.763   5.864   6.503 -0.7682  0.1141 -0.2437
 6764TIP3    H141927   6.705   5.825   6.569 -0.9276  0.8631  0.0650
 6764TIP3    H241928   6.730   5.831   6.420 -1.3066  0.1009 -0.0311
 6765TIP3   OH241929   4.960   4.551   1.571 -0.0975 -0.0629  0.0829
 6765TIP3    H141930   4.912   4.619   1.618  0.1248  0.4964 -0.5016
 6765TIP3    H241931   4.973   4.482   1.637 -1.0048  0.1192  0.4568
 6766TIP3   OH241932   5.644   6.841   7.909 -0.2431 -0.0792  0.0685
 6766TIP3    H141933   5.693   6.759   7.924 -1.5370 -0.4528  2.6944
 6766TIP3    H241934   5.641   6.882   7.996  0.5270  2.8614 -1.2625
 6767TIP3   OH241935   2.168   1.352   0.766 -0.2878 -0.2244 -0.0688
 6767TIP3    H141936   2.088   1.392   0.732  0.6187  1.6967 -0.0458
 6767TIP3    H241937   2.138   1.275   0.814 -2.1541  0.6703  0.2578
 6768TIP3   OH241938   0.599   6.682   7.083 -0.0557  0.7918  0.4336
 6768TIP3    H141939   0.526   6.649   7.134 -0.9659  0.4992 -1.0283
 6768TIP3    H241940   0.632   6.605   7.035  0.9260  1.0107  0.7363
 6769TIP3   OH241941   4.049   0.028   1.321 -0.0838  0.2283 -0.2204
 6769TIP3    H141942   4.028   0.079   1.399 -0.2601 -0.7524  0.3897
 6769TIP3    H241943   3.983   0.054   1.257 -0.0341  0.9303  0.0071
 6770TIP3   OH241944   3.997   5.226   7.450  0.2096 -0.3324  0.1402
 6770TIP3    H141945   4.054   5.194   7.380  0.9167 -0.6423  0.8470
 6770TIP3    H241946   3.989   5.320   7.434 -0.0085 -0.4814 -0.6225
 6771TIP3   OH241947   0.140   2.406   7.463 -0.1757  0.1275  0.0710
 6771TIP3    H141948   0.146   2.310   7.462  0.8903  0.1969 -0.3712
 6771TIP3    H241949   0.212   2.435   7.407 -0.0524  1.2163  0.7922
 6772TIP3   OH241950   6.316   3.164   6.704 -0.7852 -0.0132 -0.2834
 6772TIP3    H141951   6.263   3.191   6.779 -0.1745  0.0208  0.1356
 6772TIP3    H241952   6.403   3.147   6.740 -0.4544  0.1229 -1.0004
 6773TIP3   OH241953   1.823   0.375   0.684 -0.7312  0.2006 -0.6792
 6773TIP3    H141954   1.730   0.394   0.698 -0.6005  0.7363 -0.5169
 6773TIP3    H241955   1.823   0.295   0.631 -1.2871  0.3238 -0.8747
 6774TIP3   OH241956   6.996   1.501   6.092  0.1936 -0.1104  0.8154
 6774TIP3    H141957   6.913   1.527   6.132  0.5279 -0.2267  1.6101
 6774TIP3    H241958   7.061   1.517   6.161  0.9622  0.8906 -0.1256
 6775TIP3   OH241959   3.987   0.853   7.782  0.9018 -0.2211 -0.6304
 6775TIP3    H141960   4.067   0.904   7.791  1.2215 -0.9324  0.6438
 6775TIP3    H241961   3.916   0.917   7.792  1.3054  0.3173 -1.2073
 6776TIP3   OH241962   1.050   5.368   0.769  0.1158  0.0402  0.4204
 6776TIP3    H141963   1.026   5.456   0.742  1.5255 -0.0401 -1.2213
 6776TIP3    H241964   1.007   5.355   0.853 -0.7632  1.9850  0.2832
 6777TIP3   OH241965   1.558   5.322   7.014 -0.3448  0.7590  0.1509
 6777TIP3    H141966   1.594   5.320   6.925  1.1458  3.5170  0.6381
 6777TIP3    H241967   1.595   5.244   7.056  0.1006  0.2138 -1.2081
 6778TIP3   OH241968   0.618   0.793   1.706 -0.3683  0.4226  0.0983
 6778TIP3    H141969   0.539   0.752   1.741 -0.6192  0.4132 -0.4839
 6778TIP3    H241970   0.609   0.885   1.728 -1.1850  0.6483 -1.1580
 6779TIP3   OH241971   5.132   7.007   0.649  0.3763 -0.4164 -0.0478
 6779TIP3    H141972   5.226   7.026   0.659  0.3846 -0.6709  0.3880
 6779TIP3    H241973   5.090   7.065   0.712  0.0930  1.0587 -1.5764
 6780TIP3   OH241974   6.430   1.642   7.360  0.3405 -0.2419  0.2916
 6780TIP3    H141975   6.457   1.556   7.391 -0.0085 -0.5939 -0.3810
 6780TIP3    H241976   6.339   1.632   7.335  0.4433  0.1898 -0.2754
 6781TIP3   OH241977   5.982   6.813   6.119 -0.2730  0.0620 -0.8169
 6781TIP3    H141978   6.037   6.756   6.172  1.8215  2.0076 -0.8010
 6781TIP3    H241979   5.916   6.755   6.081  0.0906 -1.8608  1.4144
 6782TIP3   OH241980   5.192   5.035   0.996  0.1511 -0.4432 -0.4307
 6782TIP3    H141981   5.200   4.953   1.045  0.9419 -1.5073 -2.2920
 6782TIP3    H241982   5.103   5.033   0.960  1.0481 -1.8403 -2.7331
 6783TIP3   OH241983   4.085   5.866   7.055 -0.2655  0.2291  0.0381
 6783TIP3    H141984   4.005   5.918   7.051 -0.7420 -0.6218 -2.4296
 6783TIP3    H241985   4.125   5.877   6.969  0.3843 -2.2673 -0.0292
 6784TIP3   OH241986   7.115   0.510   0.919  0.0336 -0.1643 -0.1915
 6784TIP3    H141987   7.167   0.538   0.995 -0.8342 -0.8850  0.6670
 6784TIP3    H241988   7.025   0.534   0.941 -0.4346 -1.7063 -0.3380
 6785TIP3   OH241989   4.864   6.764   0.164  0.1382  0.1359 -0.4307
 6785TIP3    H141990   4.935   6.701   0.176  0.6083  0.4392 -1.5578
 6785TIP3    H241991   4.892   6.818   0.090 -0.8394  0.8562 -0.2823
 6786TIP3   OH241992   4.679   0.260   0.088  0.5374  0.0264  0.4093
 6786TIP3    H141993   4.617   0.323   0.050 -0.5032 -1.2344 -0.0530
 6786TIP3    H241994   4.757   0.266   0.033 -0.4270 -0.7440 -1.0940
 6787TIP3   OH241995   5.419   1.647   1.295  0.0129  0.4553  0.3640
 6787TIP3    H141996   5.395   1.573   1.240  0.8459  1.5865 -1.5732
 6787TIP3    H241997   5.461   1.608   1.371  0.9934 -1.0264 -0.9235
 6788TIP3   OH241998   2.043   1.775   7.312  0.0937  0.0740 -0.3577
 6788TIP3    H141999   2.090   1.795   7.394  1.5323  1.0948 -1.3820
 6788TIP3    H242000   1.954   1.805   7.327  0.1237 -0.5627  1.1449
 6789TIP3   OH242001   5.421   0.375   7.493 -0.1951 -0.3642  0.2615
 6789TIP3    H142002   5.326   0.361   7.495 -0.5006  1.5879  0.9428
 6789TIP3    H242003   5.436   0.421   7.411  0.6022 -3.3244 -1.3152
 6790TIP3   OH242004   4.589   6.313   0.466 -0.2590  0.2266 -0.3644
 6790TIP3    H142005   4.661   6.341   0.410 -0.7976  1.1648 -0.6071
 6790TIP3    H242006   4.526   6.385   0.461 -1.3289 -0.6874 -0.3623
 6791TIP3   OH242007   0.115   2.286   0.159 -0.3039  0.4647 -0.3413
 6791TIP3    H142008   0.026   2.254   0.171 -0.7746  0.8959 -2.4823
 6791TIP3    H242009   0.143   2.312   0.246 -3.1017  2.4249  0.0539
 6792TIP3   OH242010   0.113   6.000   7.758  0.1149  0.1471 -0.3512
 6792TIP3    H142011   0.082   5.919   7.800 -2.4831  0.8997 -0.7415
 6792TIP3    H242012   0.182   6.032   7.816 -0.1034 -1.3706  0.7887
 6793TIP3   OH242013   6.630   0.135   1.927 -0.0413  0.6569 -0.0006
 6793TIP3    H142014   6.685   0.204   1.963 -0.1564 -0.1387  1.7765
 6793TIP3    H242015   6.682   0.098   1.856  0.6332  1.6018 -0.0122
 6794TIP3   OH242016   6.671   1.964   6.353  0.0531 -0.0700 -0.2603
 6794TIP3    H142017   6.659   2.059   6.362  0.3310  0.1001 -1.5914
 6794TIP3    H242018   6.582   1.928   6.358 -0.0541  0.2621  0.2205
 6795TIP3   OH242019   4.933   5.274   7.693  0.3857 -0.4078  0.1250
 6795TIP3    H142020   4.855   5.315   7.655  0.9215  1.1065  0.5998
 6795TIP3    H242021   4.899   5.204   7.748 -0.4877 -1.5366 -1.7992
 6796TIP3   OH242022   6.912   2.256   0.880  0.1168  0.5977  0.1681
 6796TIP3    H142023   6.941   2.288   0.966 -0.7974 -2.2122  1.5675
 6796TIP3    H242024   6.822   2.287   0.872  0.9735  2.9551 -0.9132
 6797TIP3   OH242025   3.788   6.236   1.304  0.3555  0.0690 -0.3735
 6797TIP3    H142026   3.840   6.186   1.241  0.1006  1.3511 -1.6510
 6797TIP3    H242027   3.834   6.320   1.311 -0.6672  0.6319 -0.3123
 6798TIP3   OH242028   4.104   2.810   0.768  0.5696  0.2712 -0.7573
 6798TIP3    H142029   4.156   2.811   0.848  0.9790  0.3683 -1.0237
 6798TIP3    H242030   4.121   2.724   0.730 -0.2138 -0.0614 -0.3540
 6799TIP3   OH242031   3.101   5.388   1.361 -0.0282 -0.4347 -0.3521
 6799TIP3    H142032   3.033   5.448   1.328  0.2001  0.0535  0.0620
 6799TIP3    H242033   3.064   5.301   1.348 -0.8833 -0.1586  0.1886
 6800TIP3   OH242034   4.327   2.891   7.986  0.1750  0.1160  0.0192
 6800TIP3    H142035   4.282   2.816   8.026  0.1260  0.6386  0.9531
 6800TIP3    H242036   4.296   2.967   8.036  1.3678  0.5870  0.0561
 6801TIP3   OH242037   6.391   2.095   7.420 -0.0313 -0.2982 -0.8562
 6801TIP3    H142038   6.383   2.058   7.333  1.4578  1.8822 -1.9634
 6801TIP3    H242039   6.328   2.167   7.423  1.7559  1.3411 -1.1267
 6802TIP3   OH242040   6.442   4.612   6.610 -0.1078 -0.3626  0.1784
 6802TIP3    H142041   6.424   4.611   6.516 -0.7528  1.2190  0.2721
 6802TIP3    H242042   6.489   4.531   6.626 -0.1637 -0.7399 -1.4804
 6803TIP3   OH242043   5.234   3.725   7.829 -0.0620 -0.2310  0.0046
 6803TIP3    H142044   5.259   3.775   7.751  2.9287  0.6553  1.4496
 6803TIP3    H242045   5.239   3.634   7.802  2.0518  0.0311 -0.5455
 6804TIP3   OH242046   0.242   5.321   6.445 -0.0274  0.1506  0.7919
 6804TIP3    H142047   0.212   5.347   6.358  0.3501 -0.2462  0.5421
 6804TIP3    H242048   0.327   5.280   6.430 -0.4814 -0.9770  1.2052
 6805TIP3   OH242049   2.627   6.349   7.739  0.0476  0.1660 -1.0391
 6805TIP3    H142050   2.572   6.294   7.683  0.2131 -1.8267  0.6660
 6805TIP3    H242051   2.714   6.309   7.734  0.7327  1.7137 -1.6324
 6806TIP3   OH242052   1.062   6.630   2.121 -0.0569 -0.4213  0.1555
 6806TIP3    H142053   1.154   6.634   2.147  0.7059 -1.3803 -2.2101
 6806TIP3    H242054   1.037   6.539   2.138 -0.4299 -0.2662  0.4193
 6807TIP3   OH242055   0.343   0.478   0.820 -0.1920 -0.4404  0.4818
 6807TIP3    H142056   0.313   0.560   0.782 -0.2827 -0.5110  0.4012
 6807TIP3    H242057   0.309   0.410   0.761  3.6292 -0.3668 -2.0281
 6808TIP3   OH242058   0.081   3.892   7.993 -0.1194 -0.6525  0.5332
 6808TIP3    H142059   0.034   3.946   7.930 -1.8093 -2.3437  0.2779
 6808TIP3    H242060   0.170   3.928   7.994 -0.7981  1.1374 -0.7381
 6809TIP3   OH242061   5.040   6.965   1.376 -0.2462  0.7153  0.6463
 6809TIP3    H142062   5.018   6.955   1.469  0.4244 -1.3832  0.6055
 6809TIP3    H242063   5.104   6.897   1.359  0.4109  1.7354 -1.1377
 6810TIP3   OH242064   6.890   4.100   0.261 -0.0342  0.6578 -0.2316
 6810TIP3    H142065   6.916   4.010   0.278  1.2904  1.3072  1.3601
 6810TIP3    H242066   6.801   4.107   0.296  0.6284  0.5026  1.5046
 6811TIP3   OH242067   0.038   4.202   2.149  0.0550 -0.2399  0.2063
 6811TIP3    H142068   0.084   4.141   2.091  0.9794 -0.5400  1.2442
 6811TIP3    H242069   0.003   4.269   2.090  3.1860  0.8770 -0.4721
 6812TIP3   OH242070   6.976   1.775   7.186 -0.0817 -0.2363 -0.5055
 6812TIP3    H142071   7.041   1.722   7.231  0.9006  1.2849 -0.0968
 6812TIP3    H242072   6.929   1.820   7.257 -0.8885 -0.5129 -0.8530
 6813TIP3   OH242073   4.960   5.419   1.268 -0.7236 -0.3386 -1.0725
 6813TIP3    H142074   4.867   5.442   1.261 -0.9067 -0.9667 -0.7591
 6813TIP3    H242075   4.975   5.358   1.195 -0.6195 -0.4497 -0.9566
 6814TIP3   OH242076   3.707   6.638   1.553 -0.2140  0.1094  0.3124
 6814TIP3    H142077   3.636   6.691   1.516  0.9284  0.6653 -1.1143
 6814TIP3    H242078   3.769   6.628   1.482 -1.6764 -5.5651 -0.4016
 6815TIP3   OH242079   0.593   1.005   1.004  0.0075  0.1313 -0.5322
 6815TIP3    H142080   0.525   1.068   1.031  0.8145  1.3158 -1.2104
 6815TIP3    H242081   0.573   0.986   0.912  0.6464  0.5554 -0.7608
 6816TIP3   OH242082   0.716   4.420   6.711  0.5257 -0.5540 -0.0606
 6816TIP3    H142083   0.641   4.362   6.696  0.6539 -0.3938 -1.3438
 6816TIP3    H242084   0.680   4.492   6.763  0.3078 -1.6260  1.3127
 6817TIP3   OH242085   0.426   6.173   6.286 -0.7869 -0.3600 -0.2129
 6817TIP3    H142086   0.455   6.107   6.223 -0.5598 -0.3293 -0.1413
 6817TIP3    H242087   0.338   6.145   6.311 -1.0957 -0.0726 -0.9562
 6818TIP3   OH242088   6.718   1.842   1.049 -0.1226 -0.3147  0.3894
 6818TIP3    H142089   6.699   1.769   0.990  2.7496  0.5122 -1.6937
 6818TIP3    H242090   6.664   1.914   1.016  1.1898  0.0366 -1.0875
 6819TIP3   OH242091   1.036   1.495   0.481  0.6491  0.2332  0.1133
 6819TIP3    H142092   1.090   1.423   0.451  1.9908  1.7009 -1.0946
 6819TIP3    H242093   0.946   1.466   0.466  1.1398 -1.4516  0.3454
 6820TIP3   OH242094   0.428   4.729   7.398  0.0813 -0.3402 -0.3621
 6820TIP3    H142095   0.429   4.804   7.339  2.2909 -1.4868 -1.8187
 6820TIP3    H242096   0.484   4.756   7.471  0.6185 -0.4475 -0.7318
 6821TIP3   OH242097   6.202   0.153   1.592 -0.4447 -0.0064 -0.1519
 6821TIP3    H142098   6.289   0.153   1.551 -0.0861  1.3272  0.6004
 6821TIP3    H242099   6.161   0.072   1.560  1.5312 -1.2813  0.4598
 6822TIP3   OH242100   0.059   0.428   1.403 -0.1561  0.0229  0.2620
 6822TIP3    H142101  -0.005   0.375   1.451  0.4917 -1.9035 -0.9494
 6822TIP3    H242102   0.016   0.513   1.392 -2.4894 -1.1996 -0.4336
 6823TIP3   OH242103   2.579   1.150   7.413  0.1418 -0.2957  0.1138
 6823TIP3    H142104   2.521   1.121   7.483  1.3712 -3.2064 -0.0198
 6823TIP3    H242105   2.526   1.142   7.333 -0.4527  0.6405  0.4048
 6824TIP3   OH242106   5.299   6.467   2.088 -0.8987 -0.5059  0.1612
 6824TIP3    H142107   5.381   6.431   2.055 -0.5995  1.3963 -1.2342
 6824TIP3    H242108   5.240   6.392   2.092  0.3852 -1.5792 -0.4353
 6825TIP3   OH242109   4.188   0.374   0.909 -0.0798  0.0503  0.4162
 6825TIP3    H142110   4.181   0.401   1.000  2.4790 -0.5841  0.8455
 6825TIP3    H242111   4.203   0.455   0.860 -3.1964  0.6100  0.2858
 6826TIP3   OH242112   0.528   6.642   1.987  0.0210  0.4089  0.3159
 6826TIP3    H142113   0.540   6.676   1.899 -1.2191 -1.6807 -0.6927
 6826TIP3    H242114   0.587   6.695   2.041  2.2253  0.4643 -2.0256
 6827TIP3   OH242115   2.599   6.141   0.300  0.5492 -0.0219 -0.4211
 6827TIP3    H142116   2.644   6.066   0.262  1.2399  1.0549 -1.7857
 6827TIP3    H242117   2.633   6.147   0.389 -1.2850 -2.7420  0.5250
 6828TIP3   OH242118   0.204   4.651   1.190  0.0032 -0.1140 -0.1656
 6828TIP3    H142119   0.113   4.635   1.214  0.1464 -1.0824 -0.2665
 6828TIP3    H242120   0.224   4.735   1.230 -1.1557  0.4550 -0.7408
 6829TIP3   OH242121   6.201   1.404   1.483 -0.3730  0.0399  0.2364
 6829TIP3    H142122   6.263   1.383   1.553  0.0199  0.5905  0.0514
 6829TIP3    H242123   6.121   1.431   1.529  0.1792  1.3005  0.4841
 6830TIP3   OH242124   6.744   6.106   1.818 -0.3964  0.0233  0.1606
 6830TIP3    H142125   6.652   6.132   1.817 -0.7783 -1.2323  2.0016
 6830TIP3    H242126   6.744   6.014   1.794  0.4522  0.1227 -0.2759
 6831TIP3   OH242127   5.963   6.772   6.998 -0.3500  0.0400 -0.4731
 6831TIP3    H142128   5.896   6.837   6.976 -0.3717 -0.4178 -1.8257
 6831TIP3    H242129   5.949   6.753   7.091 -0.0114  2.3356  0.0658
 6832TIP3   OH242130   6.217   2.003   0.627  0.6385  0.2714  0.2373
 6832TIP3    H142131   6.191   1.920   0.667  2.6949 -0.5155 -0.0058
 6832TIP3    H242132   6.228   2.062   0.702 -2.7145  0.9354  0.2933
 6833TIP3   OH242133   5.411   3.468   1.502  0.8744 -0.4396 -0.1787
 6833TIP3    H142134   5.454   3.458   1.417  1.9074 -1.1606  0.4274
 6833TIP3    H242135   5.357   3.390   1.511  1.0759 -0.5556  0.0148
 6834TIP3   OH242136   6.886   6.189   0.123  0.0466 -0.0699  0.4872
 6834TIP3    H142137   6.827   6.224   0.189 -0.5290 -1.1526  0.5574
 6834TIP3    H242138   6.910   6.264   0.069 -0.3205  0.6194  1.2807
 6835TIP3   OH242139   6.070   5.259   0.617  0.3785 -0.4931  0.4277
 6835TIP3    H142140   6.158   5.265   0.654  0.5440 -1.3478  0.1836
 6835TIP3    H242141   6.041   5.350   0.609  1.8115 -0.1235 -0.8649
 6836TIP3   OH242142   1.219   4.288   0.213 -0.3058 -0.5437 -0.3552
 6836TIP3    H142143   1.149   4.317   0.272  0.1097 -0.3348  0.0359
 6836TIP3    H242144   1.229   4.194   0.232 -3.1326 -1.4924 -3.1320
 6837TIP3   OH242145   6.245   2.904   0.518 -0.3978 -1.2143  0.4649
 6837TIP3    H142146   6.185   2.854   0.462 -0.0223 -1.2011  0.0416
 6837TIP3    H242147   6.329   2.860   0.507  0.1633  0.0904 -0.6921
 6838TIP3   OH242148   4.595   5.100   0.812 -0.1936  0.1405 -0.0956
 6838TIP3    H142149   4.619   5.120   0.721  0.7174 -0.7600 -0.0510
 6838TIP3    H242150   4.678   5.096   0.859 -0.6539  0.3941  0.7473
 6839TIP3   OH242151   6.085   1.725   1.551 -0.4572  0.2924 -0.1513
 6839TIP3    H142152   6.068   1.652   1.492 -0.0763 -0.8379  1.1147
 6839TIP3    H242153   6.078   1.803   1.495  0.5813 -0.7800 -1.8197
 6840TIP3   OH242154   6.455   4.945   0.594 -0.0446 -0.0478 -0.4502
 6840TIP3    H142155   6.425   4.934   0.504 -0.0787 -1.5871 -0.2660
 6840TIP3    H242156   6.375   4.962   0.644 -0.0758  0.3683 -0.6388
 6841TIP3   OH242157   5.323   6.118   7.326  0.2077 -0.1481  0.7448
 6841TIP3    H142158   5.405   6.147   7.365  0.1455  0.3356  0.5118
 6841TIP3    H242159   5.257   6.178   7.362  0.1959  0.4969 -0.3480
 6842TIP3   OH242160   1.379   5.251   1.989  0.3116  0.5088  0.6929
 6842TIP3    H142161   1.427   5.211   1.916  0.4387  0.9400  0.5402
 6842TIP3    H242162   1.288   5.223   1.976  0.4031  0.2533  0.5983
 6843TIP3   OH242163   2.317   0.064   0.492 -0.0408  0.2921 -0.0248
 6843TIP3    H142164   2.398   0.099   0.456 -0.6696  1.0811 -0.7093
 6843TIP3    H242165   2.334  -0.029   0.505  0.8397  0.3831 -0.5245
 6844TIP3   OH242166   0.325   1.651   0.216 -0.0227 -0.2062  0.0237
 6844TIP3    H142167   0.343   1.683   0.304 -1.2081 -2.1523  1.0148
 6844TIP3    H242168   0.410   1.656   0.171  0.9586 -0.6894  1.7606
 6845TIP3   OH242169   5.152   4.797   1.173 -0.3115 -0.0076  0.7740
 6845TIP3    H142170   5.158   4.796   1.269 -0.5537  2.0026  0.8181
 6845TIP3    H242171   5.061   4.773   1.155 -0.5687  0.7137  1.0887
 6846TIP3   OH242172   2.030   0.489   5.889  0.0600 -0.2128 -1.0350
 6846TIP3    H142173   1.947   0.531   5.869  0.8869  0.5356 -2.9944
 6846TIP3    H242174   2.081   0.495   5.808  1.8106 -1.1710 -0.0526
 6847TIP3   OH242175   6.513   7.001   1.624  1.0269  0.2034 -0.0678
 6847TIP3    H142176   6.487   6.963   1.707  2.4403 -0.8115 -0.0751
 6847TIP3    H242177   6.585   6.946   1.593  1.5150  1.4477 -1.2384
 6848TIP3   OH242178   5.800   2.084   6.789 -0.2528 -0.6480  0.7579
 6848TIP3    H142179   5.785   2.175   6.762  2.5169 -0.2901  0.2241
 6848TIP3    H242180   5.714   2.043   6.786 -1.1085  1.2048 -1.9758
 6849TIP3   OH242181   3.211   2.218   0.873  0.8212  0.2616  0.2019
 6849TIP3    H142182   3.117   2.228   0.864  0.7548 -0.1959  0.3923
 6849TIP3    H242183   3.223   2.159   0.947  1.3323  2.5892  2.0281
 6850TIP3   OH242184   4.416   1.609   0.602 -0.0640 -0.4615 -0.0301
 6850TIP3    H142185   4.338   1.566   0.637 -0.6509  1.6458  1.3395
 6850TIP3    H242186   4.426   1.688   0.655  2.2382 -0.0142 -1.0697
 6851TIP3   OH242187   2.756   1.944   6.548  0.0962  0.3526 -0.1233
 6851TIP3    H142188   2.715   1.858   6.549  1.0596 -0.1132  0.0386
 6851TIP3    H242189   2.692   2.001   6.505 -0.7132 -0.3516  0.1320
 6852TIP3   OH242190   1.944   6.582   1.345 -0.3891  0.2210 -0.2780
 6852TIP3    H142191   1.888   6.654   1.373 -0.7031 -0.2365  0.2780
 6852TIP3    H242192   2.017   6.624   1.300  0.0896  0.9673  1.1700
 6853TIP3   OH242193   6.264   5.906   7.341  0.6244 -0.6338  0.1848
 6853TIP3    H142194   6.304   5.824   7.369  0.2328 -1.0163 -0.3635
 6853TIP3    H242195   6.290   5.970   7.407 -1.3427 -1.7712  2.1194
 6854TIP3   OH242196   5.557   4.209   1.981  0.0098  0.0301  0.0423
 6854TIP3    H142197   5.556   4.300   2.009  0.4308  0.2828 -0.7632
 6854TIP3    H242198   5.487   4.168   2.031 -0.6925  0.9568 -0.1731
 6855TIP3   OH242199   2.667   5.473   0.175  0.2173 -0.1924  0.3919
 6855TIP3    H142200   2.658   5.413   0.248 -0.1883 -1.0179 -0.3300
 6855TIP3    H242201   2.746   5.523   0.195  0.3573 -0.7181  1.1731
 6856TIP3   OH242202   4.334   1.636   1.169 -0.4913  0.1587 -0.0382
 6856TIP3    H142203   4.392   1.660   1.097 -0.1624  0.4950  0.3450
 6856TIP3    H242204   4.319   1.542   1.157  1.2277 -0.2138  0.6701
 6857TIP3   OH242205   4.693   6.139   1.906 -0.2935  0.1367  0.1961
 6857TIP3    H142206   4.752   6.065   1.919 -0.6300 -0.0230  0.8541
 6857TIP3    H242207   4.739   6.214   1.943 -0.1879  0.1523  0.0333
 6858TIP3   OH242208   6.481   6.959   2.334  0.3468 -0.3360 -0.2118
 6858TIP3    H142209   6.416   6.895   2.366 -0.6328  0.4652 -0.5756
 6858TIP3    H242210   6.534   6.910   2.271  0.4663 -1.1534  0.5107
 6859TIP3   OH242211   4.554   6.586   7.640 -0.4898  0.2533  0.0874
 6859TIP3    H142212   4.621   6.565   7.575 -0.5345  0.9930 -0.1933
 6859TIP3    H242213   4.582   6.539   7.719 -0.0908 -0.1146 -0.2691
 6860TIP3   OH242214   7.111   1.297   0.368 -0.5959  0.1746 -0.1167
 6860TIP3    H142215   7.143   1.216   0.408 -0.7486  0.7971  1.3065
 6860TIP3    H242216   7.186   1.330   0.319 -0.3867 -0.5912 -0.3269
 6861TIP3   OH242217   4.957   7.095   0.457  0.1655 -0.4254 -0.0640
 6861TIP3    H142218   5.004   7.058   0.533  1.3728 -0.8492 -0.9938
 6861TIP3    H242219   4.933   7.183   0.485  0.7312 -0.5220  0.7720
 6862TIP3   OH242220   5.296   5.133   0.347  0.0607 -0.2731  0.3100
 6862TIP3    H142221   5.333   5.112   0.433 -1.6498 -3.1952  0.3987
 6862TIP3    H242222   5.216   5.081   0.342  0.0280 -0.0040 -3.0004
 6863TIP3   OH242223   3.999   0.466   0.635  0.0796 -0.5259 -0.2477
 6863TIP3    H142224   4.024   0.558   0.628 -1.3635 -0.1398 -0.4184
 6863TIP3    H242225   3.930   0.465   0.701 -0.3101 -1.4135 -0.6617
 6864TIP3   OH242226   1.720   1.429   1.184  0.6268 -0.0448 -0.0373
 6864TIP3    H142227   1.801   1.421   1.133  0.2856 -0.0158 -0.5864
 6864TIP3    H242228   1.659   1.370   1.140 -0.1467  1.1732 -0.6068
 6865TIP3   OH242229   4.932   0.478   0.516  0.3635 -0.2888  0.7101
 6865TIP3    H142230   4.971   0.509   0.434  0.4543 -0.0020  0.8617
 6865TIP3    H242231   5.002   0.483   0.580 -0.3842  1.9431  1.3955
 6866TIP3   OH242232   4.236   6.954   0.859 -0.1541 -0.4332  0.1783
 6866TIP3    H142233   4.197   6.875   0.898 -0.3188  0.3474  1.6529
 6866TIP3    H242234   4.244   7.014   0.933  0.4854  0.7285 -0.8366
 6867TIP3   OH242235   5.981   0.895   1.316  0.3125 -0.0710  0.0724
 6867TIP3    H142236   6.072   0.923   1.305  0.0590  1.0960  0.8534
 6867TIP3    H242237   5.960   0.918   1.406 -0.5941 -0.8423  0.0630
 6868TIP3   OH242238   1.720   0.040   8.004 -0.2216  0.4765  0.3076
 6868TIP3    H142239   1.737   0.086   8.087 -1.2989 -0.8259  1.2638
 6868TIP3    H242240   1.628   0.056   7.986 -0.1758  0.1113 -0.2576
 6869TIP3   OH242241   7.086   5.699   7.610 -0.1191 -0.0330 -1.0074
 6869TIP3    H142242   7.035   5.769   7.650 -0.5874 -0.2305 -1.2661
 6869TIP3    H242243   7.039   5.676   7.531 -1.1808 -2.1474  0.1937
 6870TIP3   OH242244   5.812   6.403   7.146 -0.5068 -0.0950  0.1695
 6870TIP3    H142245   5.881   6.468   7.157 -1.8079  1.6610 -1.7100
 6870TIP3    H242246   5.828   6.339   7.215  0.8752  2.1687  2.0200
 6871TIP3   OH242247   2.287   6.610   0.909 -0.3535 -0.0815  0.3226
 6871TIP3    H142248   2.228   6.638   0.839  0.2903  1.4157  0.3587
 6871TIP3    H242249   2.316   6.692   0.950  2.0579 -0.7635  0.0372
 6872TIP3   OH242250   6.200   5.855   2.217  0.3330 -0.8971 -0.0179
 6872TIP3    H142251   6.284   5.828   2.253  0.4043  0.8235  1.1916
 6872TIP3    H242252   6.217   5.868   2.124  0.8667 -2.5968 -0.1691
 6873TIP3   OH242253   6.481   0.504   7.120 -0.3305 -0.4410 -0.0400
 6873TIP3    H142254   6.548   0.565   7.089 -0.2637 -0.6523 -0.3200
 6873TIP3    H242255   6.417   0.500   7.048 -0.9927  0.2822  0.5077
 6874TIP3   OH242256   6.843   1.015   1.379  0.0947 -0.4102 -0.2584
 6874TIP3    H142257   6.935   0.989   1.385 -0.0274 -0.8502 -0.2571
 6874TIP3    H242258   6.846   1.109   1.365  0.5140 -0.2523  0.8586
 6875TIP3   OH242259   6.254   6.475   1.309 -0.1065 -0.1516  0.1266
 6875TIP3    H142260   6.234   6.402   1.368 -0.1185 -0.0776  0.2142
 6875TIP3    H242261   6.284   6.545   1.367  0.2059 -0.1916  0.0134
 6876TIP3   OH242262   6.139   5.761   0.307  0.3784  0.2330  0.7266
 6876TIP3    H142263   6.169   5.713   0.384  0.3962  1.5324  1.5446
 6876TIP3    H242264   6.211   5.820   0.286  0.9741 -1.1014 -1.1712
 6877TIP3   OH242265   6.901   4.316   7.607  0.6686 -0.0411 -0.3876
 6877TIP3    H142266   6.822   4.366   7.584  0.3113 -0.7462 -0.7131
 6877TIP3    H242267   6.869   4.244   7.662  1.0387 -0.5377 -0.8158
 6878TIP3   OH242268   1.706   5.826   7.487  0.3782  0.4346 -0.2199
 6878TIP3    H142269   1.718   5.731   7.485  0.9518  0.5128 -1.2872
 6878TIP3    H242270   1.637   5.841   7.551  0.6163 -0.6664  0.3016
 6879TIP3   OH242271   1.498   5.758   1.151 -0.0638  0.1792  0.5294
 6879TIP3    H142272   1.587   5.750   1.186  0.3601  1.4799 -0.2263
 6879TIP3    H242273   1.510   5.788   1.062 -1.2772  0.3902  0.4286
 6880TIP3   OH242274   5.508   3.912   0.279  0.0503  0.1972 -0.1024
 6880TIP3    H142275   5.582   3.875   0.230 -1.1402 -1.2860 -0.8635
 6880TIP3    H242276   5.547   3.965   0.347  1.7941  0.8745 -1.6085
 6881TIP3   OH242277   5.113   5.557   1.725  0.3595 -0.4619  0.4648
 6881TIP3    H142278   5.159   5.528   1.647  1.8366  0.9990  0.7591
 6881TIP3    H242279   5.051   5.623   1.694 -1.0205 -1.8906  0.1668
 6882TIP3   OH242280   5.571   6.419   0.085 -0.6044 -0.6753 -0.2062
 6882TIP3    H142281   5.645   6.382   0.133 -0.1925 -2.5946 -2.2632
 6882TIP3    H242282   5.510   6.449   0.153  1.1112 -0.9582  1.4894
 6883TIP3   OH242283   0.006   2.024   0.476 -0.1174 -0.6061  0.3562
 6883TIP3    H142284   0.035   2.097   0.531  0.3412  0.3876 -1.1742
 6883TIP3    H242285  -0.089   2.024   0.485  0.0119 -1.0339  1.8643
 6884TIP3   OH242286   2.282   0.932   2.109  0.4948 -0.5302 -0.0232
 6884TIP3    H142287   2.352   0.988   2.076 -1.0902  0.2750 -2.1121
 6884TIP3    H242288   2.246   0.890   2.031 -1.5238 -0.7309  0.9899
 6885TIP3   OH242289   0.700   3.777   6.918  0.0373 -0.3114 -0.3793
 6885TIP3    H142290   0.786   3.760   6.956  0.8250 -0.4032 -2.1518
 6885TIP3    H242291   0.703   3.870   6.894 -0.2173 -0.4022 -0.7708
 6886TIP3   OH242292   6.334   6.631   1.522  1.0348 -0.2808  0.1167
 6886TIP3    H142293   6.290   6.655   1.604  1.0871  0.7057 -0.1404
 6886TIP3    H242294   6.426   6.654   1.536  1.3398 -1.6407  0.3780
 6887TIP3   OH242295   0.557   1.708   0.059 -0.0892 -0.3739  0.5347
 6887TIP3    H142296   0.598   1.777   0.111 -0.2534 -0.6898  1.0888
 6887TIP3    H242297   0.566   1.737  -0.031 -0.9781  0.8209  0.8191
 6888TIP3   OH242298   6.616   4.400   6.691  0.3537 -0.3180  0.4536
 6888TIP3    H142299   6.638   4.465   6.757 -0.4888  2.1172 -1.5879
 6888TIP3    H242300   6.697   4.386   6.642  0.1915  0.2530  0.0163
 6889TIP3   OH242301   4.779   0.915   0.862  0.2210  0.4048  0.0235
 6889TIP3    H142302   4.821   0.864   0.793  0.1975 -0.3927  0.5967
 6889TIP3    H242303   4.750   0.995   0.819 -0.2627 -0.3218 -0.9960
 6890TIP3   OH242304   1.972   4.307   1.333 -0.0939  0.2395  0.1617
 6890TIP3    H142305   2.013   4.319   1.419 -1.1587 -2.3106  1.0676
 6890TIP3    H242306   1.891   4.357   1.338 -0.0146  0.3370  0.5370
 6891TIP3   OH242307   6.500   1.370   7.347 -0.2167  0.3911 -0.1261
 6891TIP3    H142308   6.477   1.293   7.294 -0.3215  1.4662 -1.6719
 6891TIP3    H242309   6.596   1.376   7.339 -0.2552  0.6821 -0.3829
 6892TIP3   OH242310   5.903   3.573   1.593 -0.1016 -0.0854 -0.1739
 6892TIP3    H142311   5.833   3.636   1.575  0.1175  0.1347 -0.2680
 6892TIP3    H242312   5.968   3.623   1.643 -0.8076 -0.7601  1.4283
 6893TIP3   OH242313   1.308   2.037   7.190  0.0988  0.0852 -0.3804
 6893TIP3    H142314   1.392   2.063   7.152 -0.3270  1.0301 -0.6869
 6893TIP3    H242315   1.306   1.942   7.181  1.1713  0.0568 -0.3017
 6894TIP3   OH242316   6.825   4.694   1.414  0.0141 -0.0192 -0.6453
 6894TIP3    H142317   6.861   4.609   1.439 -0.5982 -0.5086 -1.4346
 6894TIP3    H242318   6.776   4.678   1.334  1.3541  1.4187 -1.7815
 6895TIP3   OH242319   6.943   0.287   7.240  0.3304 -0.0744  0.2331
 6895TIP3    H142320   6.967   0.199   7.210  0.1120 -0.2892  0.6777
 6895TIP3    H242321   6.853   0.298   7.211 -0.0078 -0.4344  1.1416
 6896TIP3   OH242322   5.380   2.658   6.314 -0.3325  0.5286  0.3361
 6896TIP3    H142323   5.468   2.693   6.303 -0.5550  1.2868  0.9402
 6896TIP3    H242324   5.393   2.563   6.322  0.5516  0.7600  1.7693
 6897TIP3   OH242325   4.865   0.004   0.123 -0.5427 -0.0388  0.2417
 6897TIP3    H142326   4.838  -0.073   0.173  0.0652 -0.9922 -0.8612
 6897TIP3    H242327   4.787   0.059   0.119 -1.2964 -1.0969  0.1346
 6898TIP3   OH242328   6.511   7.016   7.286 -0.2358 -0.5346  0.2719
 6898TIP3    H142329   6.542   6.965   7.211  0.0050  0.6146 -0.4251
 6898TIP3    H242330   6.417   7.026   7.271 -0.1340 -0.0424 -0.0367
 6899TIP3   OH242331   2.897   5.209   1.620 -0.1160  0.0723  0.3118
 6899TIP3    H142332   2.954   5.189   1.694  0.8577  1.4125 -0.0473
 6899TIP3    H242333   2.947   5.182   1.543 -0.2817  0.5218  0.0400
 6900TIP3   OH242334   3.452   0.501   7.737 -0.0006 -0.2480  0.1943
 6900TIP3    H142335   3.410   0.574   7.692  0.4496  0.2219  0.5372
 6900TIP3    H242336   3.513   0.542   7.798  0.3098 -0.9116  0.3345
 6901TIP3   OH242337   0.607   5.987   1.230 -0.2033 -0.0865  0.5340
 6901TIP3    H142338   0.667   6.018   1.163  1.0392  0.5137  1.8830
 6901TIP3    H242339   0.621   5.892   1.234  0.1535 -0.0380  0.3837
 6902TIP3   OH242340   4.786   2.423   1.360 -0.5373  0.8078 -0.1509
 6902TIP3    H142341   4.812   2.379   1.441 -0.8125  1.5138  0.3318
 6902TIP3    H242342   4.740   2.356   1.310 -0.5250  0.4143  0.3539
 6903TIP3   OH242343   1.848   0.867   7.893 -0.7595  0.6898 -0.2731
 6903TIP3    H142344   1.827   0.774   7.880 -2.1578  0.6982  1.5933
 6903TIP3    H242345   1.810   0.912   7.818 -0.3238 -0.2071 -1.0388
 6904TIP3   OH242346   5.383   6.205   0.973  0.3320  0.6048  0.3781
 6904TIP3    H142347   5.377   6.168   0.886  1.4180  0.9549  0.1472
 6904TIP3    H242348   5.351   6.295   0.964 -1.8970 -0.1063  0.8524
 6905TIP3   OH242349   1.741   4.308   0.110  0.0599 -0.8483  0.1919
 6905TIP3    H142350   1.694   4.272   0.035 -0.9940 -0.0702  0.4723
 6905TIP3    H242351   1.778   4.390   0.077 -0.1454 -0.6568  0.4403
 6906TIP3   OH242352   5.349   0.264   1.300  0.1933 -0.0875  0.4661
 6906TIP3    H142353   5.273   0.224   1.342  0.6332 -1.1963  0.2109
 6906TIP3    H242354   5.410   0.283   1.372  0.1810 -0.3039  0.5315
 6907TIP3   OH242355   2.815   6.670   7.199  0.6925 -0.0587 -0.3964
 6907TIP3    H142356   2.806   6.762   7.173  0.7013  0.3559  1.0321
 6907TIP3    H242357   2.845   6.625   7.120  0.3149  1.0995 -1.2053
 6908TIP3   OH242358   2.555   2.254   7.259 -0.1025  0.3327 -0.0267
 6908TIP3    H142359   2.611   2.187   7.220 -1.5766 -1.4963  0.9269
 6908TIP3    H242360   2.491   2.274   7.191 -1.5989 -1.5718  0.7916
 6909TIP3   OH242361   6.492   6.891   8.086  0.2009 -0.3330  0.3284
 6909TIP3    H142362   6.470   6.821   8.146 -0.6852 -0.0876  0.3026
 6909TIP3    H242363   6.588   6.899   8.091  0.1727 -0.6231  1.3388
 6910TIP3   OH242364   6.757   3.201   6.750  0.1137 -0.1238  0.1728
 6910TIP3    H142365   6.677   3.157   6.780  0.4381 -1.5119 -0.9647
 6910TIP3    H242366   6.796   3.141   6.687  1.8440  0.7307  0.3867
 6911TIP3   OH242367   5.984   3.976   6.817 -0.5999  0.0796  0.3720
 6911TIP3    H142368   5.931   3.976   6.738 -0.6847  1.3385  0.4232
 6911TIP3    H242369   6.051   4.042   6.802 -0.2368 -0.1129  1.0964
 6912TIP3   OH242370   6.993   6.146   0.595  0.0276  0.0080 -0.4440
 6912TIP3    H142371   7.029   6.223   0.551  2.3880  0.2479  1.8120
 6912TIP3    H242372   6.945   6.181   0.669  0.0784 -0.6240 -0.1125
 6913TIP3   OH242373   5.866   5.852   0.259  0.4203 -0.6854  0.6354
 6913TIP3    H142374   5.873   5.877   0.167  1.1355 -2.6981  0.1088
 6913TIP3    H242375   5.956   5.855   0.293  0.3665 -1.3927  0.8585
 6914TIP3   OH242376   6.022   3.779   7.002 -0.1874 -0.2040  0.0138
 6914TIP3    H142377   5.977   3.826   6.931  0.5587  1.4021  0.5841
 6914TIP3    H242378   6.113   3.772   6.971  0.1643  0.6023  0.8503
 6915TIP3   OH242379   0.587   4.441   8.040  0.4400  0.2288 -0.2887
 6915TIP3    H142380   0.496   4.411   8.041  0.2471  0.7760 -1.2400
 6915TIP3    H242381   0.633   4.375   7.987  0.4157  0.4635 -0.6022
 6916TIP3   OH242382   3.217   4.097   0.204  0.0318 -0.5436 -0.2139
 6916TIP3    H142383   3.147   4.067   0.262  0.0136 -0.1027 -0.0034
 6916TIP3    H242384   3.291   4.115   0.262 -0.5098  1.4983 -0.0977
 6917TIP3   OH242385   6.248   6.221   1.412 -0.1918  0.3602  0.0358
 6917TIP3    H142386   6.205   6.184   1.489 -0.4590  0.3448 -0.1215
 6917TIP3    H242387   6.339   6.193   1.420  0.0362  1.3154  0.9475
 6918TIP3   OH242388   0.700   5.222   7.883  0.4955 -0.1141 -0.5210
 6918TIP3    H142389   0.710   5.173   7.964  1.8124  0.7694 -0.1290
 6918TIP3    H242390   0.694   5.314   7.911 -0.0756  0.1163 -1.3644
 6919TIP3   OH242391   0.680   4.100   6.414  0.0932  0.1054  0.1972
 6919TIP3    H142392   0.587   4.081   6.426  0.3331 -0.2988  1.4057
 6919TIP3    H242393   0.710   4.034   6.351 -0.8326  1.3458 -1.5727
 6920TIP3   OH242394   1.145   6.325   0.502  0.4445  0.4101 -0.2520
 6920TIP3    H142395   1.207   6.355   0.569 -2.8497  2.8130  1.8536
 6920TIP3    H242396   1.085   6.267   0.549  1.0606 -1.9892 -2.2988
 6921TIP3   OH242397   6.698   5.186   1.591  0.6250 -1.0661  0.3855
 6921TIP3    H142398   6.771   5.167   1.533 -0.6319 -1.0661 -1.2348
 6921TIP3    H242399   6.698   5.115   1.655  1.9558 -1.1295  0.3245
 6922TIP3   OH242400   2.604   5.778   6.937  0.1263 -0.4612  0.6244
 6922TIP3    H142401   2.567   5.818   7.016  2.6864  2.1146  0.5526
 6922TIP3    H242402   2.553   5.815   6.865 -1.7418 -2.2861  0.9300
 6923TIP3   OH242403   5.660   0.106   0.986 -0.2149  0.2519 -0.3852
 6923TIP3    H142404   5.669   0.089   0.892  1.0778  0.0689 -0.2372
 6923TIP3    H242405   5.609   0.186   0.990 -0.2360  0.2952 -1.2573
 6924TIP3   OH242406   5.925   7.117   0.630  0.1546  0.4846  0.7177
 6924TIP3    H142407   6.004   7.151   0.672  0.0063  0.3056  1.1453
 6924TIP3    H242408   5.943   7.024   0.618  0.3603  0.6159  0.0093
 6925TIP3   OH242409   0.356   0.660   1.026  0.3200  0.4701 -0.4661
 6925TIP3    H142410   0.424   0.618   1.079  0.0491 -1.3807 -1.5491
 6925TIP3    H242411   0.349   0.606   0.948 -0.8335  1.9193 -1.3975
 6926TIP3   OH242412   0.974   1.781   2.344  0.2720 -0.4459 -0.2291
 6926TIP3    H142413   0.926   1.718   2.290 -0.7919 -0.3332  0.5778
 6926TIP3    H242414   0.929   1.781   2.428  0.0880  1.6002 -0.2977
 6927TIP3   OH242415   0.960   1.890   1.905  0.1110 -0.0098 -0.5447
 6927TIP3    H142416   1.023   1.874   1.834  0.6336  0.9749 -0.3078
 6927TIP3    H242417   1.010   1.872   1.985  1.2407  4.3093 -0.1709
 6928TIP3   OH242418   6.197   0.499   1.912  0.0811  0.6113 -0.0880
 6928TIP3    H142419   6.189   0.552   1.991  1.1582  0.2991  0.2406
 6928TIP3    H242420   6.275   0.445   1.927 -0.3985 -0.3030 -0.8622
 6929TIP3   OH242421   3.416   0.980   6.913  0.6136 -0.1099 -0.5069
 6929TIP3    H142422   3.325   0.964   6.888  0.2262 -1.1870  1.4527
 6929TIP3    H242423   3.468   0.945   6.841 -0.5043 -0.7874 -0.9952
 6930TIP3   OH242424   6.339   2.347   0.010  0.6686  0.2999 -0.3196
 6930TIP3    H142425   6.302   2.264  -0.018 -0.8393  1.1325 -0.8438
 6930TIP3    H242426   6.273   2.385   0.068  1.5093  0.9575  0.2200
 6931TIP3   OH242427   7.056   3.023   0.004  0.0600  0.3795 -0.4454
 6931TIP3    H142428   7.070   3.097   0.064 -1.2172  0.4807 -0.2647
 6931TIP3    H242429   7.089   2.947   0.052 -0.1826  0.5844  0.0557
 6932TIP3   OH242430   2.244   1.560   7.507 -0.2322 -0.6606  0.4128
 6932TIP3    H142431   2.214   1.553   7.416  2.3529 -0.4147 -0.4803
 6932TIP3    H242432   2.315   1.497   7.514  3.1902  3.0279  0.7184
 6933TIP3   OH242433   0.704   0.902   2.387  0.0545 -0.2186 -0.0558
 6933TIP3    H142434   0.728   0.852   2.309 -1.7115 -0.3341 -0.5294
 6933TIP3    H242435   0.671   0.838   2.449 -0.7507  0.1551 -0.0881
 6934TIP3   OH242436   3.897   2.592   2.299 -0.4124  0.3464  0.1735
 6934TIP3    H142437   3.972   2.560   2.349  0.1805 -0.4154 -1.1537
 6934TIP3    H242438   3.895   2.686   2.315  0.2008  0.2114  1.0484
 6935TIP3   OH242439   1.729   1.821   1.597 -0.2954  0.1343 -0.2171
 6935TIP3    H142440   1.784   1.756   1.641 -1.0051 -1.8725 -2.1819
 6935TIP3    H242441   1.659   1.770   1.556 -0.9013  2.1397 -1.7682
 6936TIP3   OH242442   1.864   0.064   1.037  0.2048  0.0290  0.6682
 6936TIP3    H142443   1.922   0.114   1.096 -0.5428  1.1378  0.4684
 6936TIP3    H242444   1.841  -0.014   1.087  1.2522 -0.0428  1.0494
 6937TIP3   OH242445   0.848   0.806   2.161  0.1046 -0.1848  0.4021
 6937TIP3    H142446   0.862   0.836   2.071  0.5413 -3.4301 -0.6680
 6937TIP3    H242447   0.931   0.822   2.205  1.2240 -2.2295 -0.8932
 6938TIP3   OH242448   3.621   0.602   0.384 -0.4958 -0.1048  0.1047
 6938TIP3    H142449   3.595   0.556   0.464  0.8392 -0.1036  0.5607
 6938TIP3    H242450   3.619   0.534   0.317  0.1216 -0.5278  0.5028
 6939TIP3   OH242451   5.139   0.839   7.985  0.4268 -0.5507  0.2737
 6939TIP3    H142452   5.161   0.840   7.892 -1.6812  1.1579 -0.2637
 6939TIP3    H242453   5.149   0.931   8.012  0.8654 -1.0086  1.7070
 6940TIP3   OH242454   5.438   2.261   0.928  0.0088  0.4174  0.5032
 6940TIP3    H142455   5.490   2.252   1.008 -1.0733 -0.5901  1.1073
 6940TIP3    H242456   5.370   2.194   0.936 -1.2599  1.5728 -0.3667
 6941TIP3   OH242457   1.518   1.085   2.216 -0.4809 -0.0888  0.0200
 6941TIP3    H142458   1.501   1.149   2.147 -0.2409 -0.8217 -0.7226
 6941TIP3    H242459   1.608   1.057   2.201 -0.0324  0.5907  1.3345
 6942TIP3   OH242460   2.637   3.035   1.842  0.2152 -0.6223 -0.2492
 6942TIP3    H142461   2.731   3.021   1.831 -0.0310 -1.6863 -1.0530
 6942TIP3    H242462   2.596   2.961   1.796 -1.0188  0.0309 -0.2140
 6943TIP3   OH242463   1.635   3.106   1.224  0.1440  0.1969  0.5515
 6943TIP3    H142464   1.637   3.115   1.319  1.6212  1.1765  0.4402
 6943TIP3    H242465   1.642   3.012   1.209 -1.3072 -0.0731  1.4176
 6944TIP3   OH242466   3.778   2.273   0.934 -0.7078  0.4972  0.2521
 6944TIP3    H142467   3.685   2.272   0.913 -0.5497 -0.2473 -0.4393
 6944TIP3    H242468   3.801   2.181   0.946  0.4894  0.4458 -2.0948
 6945TIP3   OH242469   1.153   5.325   0.517 -0.3358  0.0925 -0.2824
 6945TIP3    H142470   1.101   5.254   0.481  0.1296 -0.2352 -0.3166
 6945TIP3    H242471   1.128   5.330   0.609  1.1006 -1.4642  0.2198
 6946TIP3   OH242472   3.612   1.976   6.330  0.0839  0.2967 -0.2105
 6946TIP3    H142473   3.613   2.063   6.370  1.3733  0.4102 -0.4975
 6946TIP3    H242474   3.594   1.992   6.238 -2.0176  0.0903  0.1344
 6947TIP3   OH242475   2.532   1.520   1.584 -0.6337  0.1596  0.3297
 6947TIP3    H142476   2.573   1.506   1.670 -0.4812 -0.2706  0.1890
 6947TIP3    H242477   2.509   1.432   1.554 -0.8199  0.3216 -0.0055
 6948TIP3   OH242478   0.606   6.496   7.747  0.5623 -0.6616  0.1835
 6948TIP3    H142479   0.662   6.562   7.787  1.0892 -0.4204 -0.9481
 6948TIP3    H242480   0.527   6.544   7.721  0.4594 -0.7051  0.4172
 6949TIP3   OH242481   1.768   2.372   1.382  0.3462 -0.3137 -0.5186
 6949TIP3    H142482   1.829   2.436   1.345 -0.6961  0.9510 -0.0581
 6949TIP3    H242483   1.690   2.378   1.327  0.2121 -1.1348 -0.4209
 6950TIP3   OH242484   4.929   7.044   1.832 -0.3382 -0.0129 -0.0747
 6950TIP3    H142485   4.906   7.010   1.919 -2.9948 -0.2230 -0.8039
 6950TIP3    H242486   4.966   6.969   1.786  0.4760 -0.0652  0.6483
 6951TIP3   OH242487   4.550   1.012   1.433  0.1130  0.0429 -0.3204
 6951TIP3    H142488   4.483   0.943   1.428 -0.6439  0.7925 -0.7017
 6951TIP3    H242489   4.632   0.965   1.447 -0.3934 -0.9405 -0.6011
 6952TIP3   OH242490   1.039   1.984   0.932  0.5395  0.5809  0.1555
 6952TIP3    H142491   0.994   1.901   0.948 -0.0499  0.7616 -0.5227
 6952TIP3    H242492   1.080   1.973   0.847  1.0711  0.7285  0.3916
 6953TIP3   OH242493   4.427   0.818   1.795  0.4480  0.2919  0.1355
 6953TIP3    H142494   4.413   0.735   1.840  0.8809 -0.8424 -1.7818
 6953TIP3    H242495   4.472   0.873   1.860  0.5267 -1.1009  1.2831
 6954TIP3   OH242496   1.622   0.965   1.153  0.0878  0.0290 -0.1701
 6954TIP3    H142497   1.677   0.897   1.115  1.8858  0.6671  1.1655
 6954TIP3    H242498   1.549   0.918   1.193  1.5912 -1.2098  1.2246
 6955TIP3   OH242499   6.222   4.988   0.968 -0.8031 -0.2074  0.0745
 6955TIP3    H142500   6.218   4.978   0.873  0.6604  2.1530 -0.2547
 6955TIP3    H242501   6.194   5.078   0.985  0.6183 -0.0532  1.7434
 6956TIP3   OH242502   4.101   0.206   2.188 -0.0117 -0.1267  0.5712
 6956TIP3    H142503   4.011   0.197   2.156  0.8311  0.5023 -2.1072
 6956TIP3    H242504   4.153   0.156   2.125  1.6114  0.2659  1.5807
 6957TIP3   OH242505   7.110   1.010   7.434 -0.1295  0.1115  0.3408
 6957TIP3    H142506   7.193   0.987   7.392  1.5763 -0.3115  3.7997
 6957TIP3    H242507   7.123   1.099   7.467 -0.7442 -0.2665  1.6321
 6958TIP3   OH242508   1.307   3.988   0.707 -0.1451  1.1177 -0.3163
 6958TIP3    H142509   1.331   3.928   0.636  1.1398  0.2318  0.8470
 6958TIP3    H242510   1.252   3.934   0.764 -0.4129  1.5617 -0.1603
 6959TIP3   OH242511   4.061   1.287   2.158 -0.4435  0.2141 -0.2878
 6959TIP3    H142512   4.038   1.360   2.214 -0.5220  0.3668 -0.5167
 6959TIP3    H242513   4.113   1.326   2.087  1.5496 -0.2885  0.8512
 6960TIP3   OH242514   0.494   5.386   0.096  0.6217 -0.6784  0.3472
 6960TIP3    H142515   0.548   5.318   0.135 -0.7406 -1.7219  0.4724
 6960TIP3    H242516   0.501   5.460   0.156 -0.5790 -1.8876  2.0195
 6961TIP3   OH242517   5.135   1.173   0.431 -0.0403  0.3526  0.4162
 6961TIP3    H142518   5.104   1.099   0.378 -1.1125  1.5964 -0.7236
 6961TIP3    H242519   5.115   1.147   0.521  0.2393 -1.0517  0.0923
 6962TIP3   OH242520   1.425   4.781   6.784 -0.0263 -0.6368  0.1456
 6962TIP3    H142521   1.460   4.859   6.741 -1.2416  1.3357  2.6250
 6962TIP3    H242522   1.379   4.735   6.714  2.9039 -0.5548 -1.9543
 6963TIP3   OH242523   6.494   7.110   0.822  0.3532 -0.3510  0.1006
 6963TIP3    H142524   6.538   7.141   0.742 -0.3774 -0.0072 -0.1744
 6963TIP3    H242525   6.449   7.187   0.856 -0.7328 -0.8938 -0.0907
 6964TIP3   OH242526   0.608   6.986   8.110  0.1520  0.7058 -0.1602
 6964TIP3    H142527   0.639   6.910   8.159  1.6366  0.7926 -0.9281
 6964TIP3    H242528   0.633   7.061   8.165  0.7075  0.7385 -0.4485
 6965TIP3   OH242529   3.841   4.978   7.936 -0.3140 -0.0807 -0.0242
 6965TIP3    H142530   3.886   5.061   7.951 -0.4653  0.4263 -2.2321
 6965TIP3    H242531   3.749   4.997   7.955 -0.2792  0.1211 -0.0598
 6966TIP3   OH242532   2.249   0.722   1.359 -0.2749  0.4268 -0.4829
 6966TIP3    H142533   2.287   0.768   1.284  0.7316 -0.2010 -0.3585
 6966TIP3    H242534   2.261   0.629   1.339  0.6708  0.2624  0.7932
 6967TIP3   OH242535   7.012   6.506   1.707 -0.3257  0.0147  0.1587
 6967TIP3    H142536   6.984   6.414   1.707  0.5497 -0.2678 -1.7261
 6967TIP3    H242537   7.058   6.516   1.790  0.6066 -1.5922 -0.1444
 6968TIP3   OH242538   5.563   0.927   0.206 -0.1976 -0.5240  0.2587
 6968TIP3    H142539   5.549   0.925   0.111 -1.7785  0.4966  0.4313
 6968TIP3    H242540   5.480   0.959   0.241 -0.0647 -2.1062  2.1007
 6969TIP3   OH242541   6.949   5.999   0.874  0.5293  0.0532 -0.0239
 6969TIP3    H142542   6.869   5.965   0.833 -0.4928  0.8322  1.2756
 6969TIP3    H242543   6.951   6.092   0.849  1.3831 -0.1067 -0.5824
 6970TIP3   OH242544   5.590   6.700   1.050 -0.0547  0.1125  0.3418
 6970TIP3    H142545   5.580   6.668   1.140  0.3617  0.3785  0.4815
 6970TIP3    H242546   5.598   6.795   1.059  1.2127  0.0268  0.1180
 6971TIP3   OH242547   7.059   2.097   0.195  0.0638  0.6053 -0.2951
 6971TIP3    H142548   7.069   2.128   0.285  3.4125 -0.2402 -0.2924
 6971TIP3    H242549   7.048   2.003   0.203  0.7015  0.4828 -0.7575
 6972TIP3   OH242550   5.340   5.395   0.330  0.0492  0.3082  0.4217
 6972TIP3    H142551   5.296   5.422   0.410 -2.5903  0.6632 -1.0842
 6972TIP3    H242552   5.315   5.303   0.319  0.0676  0.3758 -0.1955
 6973TIP3   OH242553   2.927   1.677   0.111 -0.6534  0.3244  0.5332
 6973TIP3    H142554   2.867   1.669   0.185 -1.3518 -0.2408 -0.0811
 6973TIP3    H242555   3.000   1.619   0.132 -0.5681  0.6157  1.0460
 6974TIP3   OH242556   0.638   4.348   0.743 -0.3599  0.6361  0.4478
 6974TIP3    H142557   0.546   4.368   0.758 -0.0104  1.9038  0.9625
 6974TIP3    H242558   0.674   4.429   0.706  0.2005 -0.3561 -1.2409
 6975TIP3   OH242559   0.308   7.007   7.212  0.3349  0.2141  0.7229
 6975TIP3    H142560   0.375   6.999   7.145 -0.7651  0.2095 -0.3837
 6975TIP3    H242561   0.258   6.925   7.206 -0.9139  0.9963  0.2791
 6976TIP3   OH242562   6.538   0.459   1.191 -0.7744  0.1018  0.0827
 6976TIP3    H142563   6.554   0.398   1.119  1.7936  0.4753  0.2820
 6976TIP3    H242564   6.535   0.403   1.269 -1.4921 -0.0788 -0.0693
 6977TIP3   OH242565   7.017   2.169   6.906  0.7757  0.8035  0.2773
 6977TIP3    H142566   7.025   2.102   6.838 -2.8771 -0.7126  1.2300
 6977TIP3    H242567   6.999   2.120   6.986 -1.6753  2.8741  1.0486
 6978TIP3   OH242568   5.922   4.927   0.039  0.4282 -0.6584 -0.0896
 6978TIP3    H142569   5.885   4.976  -0.035  1.7241  2.7266  1.3829
 6978TIP3    H242570   5.846   4.911   0.096 -0.3878 -2.3493 -1.5996
 6979TIP3   OH242571   2.332   1.469   0.503  0.3911  0.3549  0.2058
 6979TIP3    H142572   2.351   1.404   0.570 -0.4923  0.4123  0.5142
 6979TIP3    H242573   2.345   1.553   0.548  1.5967  0.4020 -0.2095
 6980TIP3   OH242574   6.615   4.212   7.482 -0.1838  0.1450 -0.5507
 6980TIP3    H142575   6.681   4.144   7.465  0.6146  0.6750  0.3465
 6980TIP3    H242576   6.653   4.292   7.444  0.7575  0.9356  1.9015
 6981TIP3   OH242577   0.771   4.055   0.409 -0.1349  0.3442  0.3018
 6981TIP3    H142578   0.703   4.110   0.448 -0.7520 -0.5120  0.4528
 6981TIP3    H242579   0.821   4.022   0.483  0.2077  0.6543  0.2133
 6982TIP3   OH242580   1.620   1.231   0.318 -0.7372  0.2652  0.5070
 6982TIP3    H142581   1.676   1.298   0.278  0.3414 -0.2192  1.2116
 6982TIP3    H242582   1.566   1.200   0.245  0.5165  0.1095 -0.3783
 6983TIP3   OH242583   0.069   2.370   2.650  0.2584  0.1940  0.2396
 6983TIP3    H142584   0.082   2.465   2.639  0.0908  0.6197  3.2189
 6983TIP3    H242585   0.156   2.333   2.635  0.8792  1.1063  1.4253
 6984TIP3   OH242586   6.627   0.683   0.478  0.5131 -0.0792  0.1701
 6984TIP3    H142587   6.722   0.689   0.491  0.7577 -1.7104 -0.7487
 6984TIP3    H242588   6.593   0.657   0.564  0.6707  2.4520  1.0250
 6985TIP3   OH242589   6.140   1.979   1.458 -0.2527  0.1544 -0.1796
 6985TIP3    H142590   6.197   1.964   1.383 -1.7899  1.6127 -1.6677
 6985TIP3    H242591   6.121   2.073   1.457 -0.2858  0.1998  2.0401
 6986TIP3   OH242592   3.224   3.592   0.781  0.5925  0.1001 -0.0940
 6986TIP3    H142593   3.140   3.592   0.735  0.8670  0.5121 -0.5947
 6986TIP3    H242594   3.290   3.601   0.712  0.9038  3.4345  0.5168
 6987TIP3   OH242595   0.190   0.327   0.676  0.1529  0.2056  0.2318
 6987TIP3    H142596   0.172   0.256   0.738  0.4098 -0.6729 -0.6798
 6987TIP3    H242597   0.181   0.286   0.590  0.1641  1.3234 -0.3021
 6988TIP3   OH242598   0.251   4.310   6.598  0.2690  0.0910  0.2967
 6988TIP3    H142599   0.181   4.247   6.612  0.7025 -0.4818 -0.0752
 6988TIP3    H242600   0.242   4.337   6.507 -0.2742  1.0115  0.6197
 6989TIP3   OH242601   6.013   0.558   2.123  0.3057 -0.2107 -0.2271
 6989TIP3    H142602   5.948   0.590   2.060  0.9794 -1.2389 -1.4591
 6989TIP3    H242603   6.045   0.637   2.167 -1.4457  0.3495  0.0731
 6990TIP3   OH242604   0.882   2.017   2.229  0.7892  0.2744 -0.0071
 6990TIP3    H142605   0.900   1.925   2.252  0.8764  0.7852  2.1130
 6990TIP3    H242606   0.966   2.050   2.199  0.8124 -0.2803 -0.5676
 6991TIP3   OH242607   6.346   1.340   1.750  0.2986 -0.2608  0.0704
 6991TIP3    H142608   6.256   1.307   1.757 -0.1774  0.8654 -0.4108
 6991TIP3    H242609   6.387   1.318   1.833 -0.6279 -0.2202  0.5454
 6992TIP3   OH242610   4.455   4.416   0.537  0.5370 -0.1942 -0.6618
 6992TIP3    H142611   4.382   4.464   0.574 -0.5822 -1.2471 -1.4734
 6992TIP3    H242612   4.494   4.371   0.611  1.1344  1.3325 -0.0213
 6993TIP3   OH242613   6.487   5.410   6.841  0.3538  0.2566  0.0884
 6993TIP3    H142614   6.549   5.424   6.769 -1.3760  1.2866 -1.2634
 6993TIP3    H242615   6.401   5.409   6.798 -0.6154 -0.3851  2.0025
 6994TIP3   OH242616   0.304   2.435   1.661 -0.9040 -0.3172  0.0394
 6994TIP3    H142617   0.381   2.412   1.713 -0.3375  2.1723  0.3863
 6994TIP3    H242618   0.257   2.499   1.715 -0.8628  1.5111 -2.0294
 6995TIP3   OH242619   2.918   2.761   1.484  0.0766  0.3915  0.0122
 6995TIP3    H142620   2.982   2.823   1.520  0.5322  0.5464 -1.0220
 6995TIP3    H242621   2.856   2.816   1.435  1.1294 -0.0390 -1.8654
 6996TIP3   OH242622   6.286   3.051   2.205 -0.3786  0.2427  0.0270
 6996TIP3    H142623   6.250   2.999   2.277 -0.2790  0.8932  0.5495
 6996TIP3    H242624   6.213   3.061   2.144  0.0559 -1.9516 -0.9102
 6997TIP3   OH242625   2.187   1.432   1.223 -0.2863  0.2308 -0.4013
 6997TIP3    H142626   2.169   1.513   1.271 -0.6357 -0.5899  0.8667
 6997TIP3    H242627   2.269   1.450   1.176 -0.4075  1.3509 -0.1952
 6998TIP3   OH242628   0.400   6.189   1.544 -0.7001  0.1945  0.8326
 6998TIP3    H142629   0.367   6.104   1.574  1.6937 -0.5480  1.4321
 6998TIP3    H242630   0.410   6.241   1.624  0.1983  0.1875  0.7257
 6999TIP3   OH242631   1.126   1.800   2.103 -0.3889  0.4669 -0.0888
 6999TIP3    H142632   1.084   1.787   2.188  0.8797  0.4711  0.5510
 6999TIP3    H242633   1.200   1.858   2.120  0.0868  0.1979 -1.1269
 7000TIP3   OH242634   4.219   2.809   1.041 -0.2537  0.3201  0.0517
 7000TIP3    H142635   4.245   2.863   1.115 -0.8901  0.9842 -0.2000
 7000TIP3    H242636   4.291   2.818   0.978 -0.3250  0.8234  0.0407
 7001TIP3   OH242637   4.743   0.522   6.343 -0.1360  0.4376 -0.1872
 7001TIP3    H142638   4.760   0.428   6.352 -0.4270  0.3987 -0.0149
 7001TIP3    H242639   4.824   0.559   6.309  0.1701  0.2086  0.2932
 7002TIP3   OH242640   1.249   4.465   7.075 -0.6012  0.0114  0.0446
 7002TIP3    H142641   1.228   4.466   7.169 -3.6848  0.9529 -0.6139
 7002TIP3    H242642   1.254   4.557   7.051 -3.1298 -0.1822 -1.3737
 7003TIP3   OH242643   3.280   6.590   0.724  0.3338  0.5046  0.3221
 7003TIP3    H142644   3.293   6.685   0.717  1.5402  0.4763  1.9303
 7003TIP3    H242645   3.351   6.553   0.672 -0.4103  0.4865 -0.6827
 7004TIP3   OH242646   3.670   2.718   1.760 -0.2132 -0.4946  0.3240
 7004TIP3    H142647   3.670   2.674   1.675  0.1932 -0.7364  0.4479
 7004TIP3    H242648   3.723   2.662   1.816 -0.0232 -0.0490  0.5901
 7005TIP3   OH242649   2.199   3.326   6.881 -0.1828 -0.0612 -0.2681
 7005TIP3    H142650   2.146   3.258   6.840 -0.1349 -0.9004  1.0560
 7005TIP3    H242651   2.162   3.408   6.846 -0.3110 -0.7341 -1.7771
 7006TIP3   OH242652   4.295   2.816   7.719 -0.9009  0.1228  0.1543
 7006TIP3    H142653   4.267   2.854   7.802 -1.9384  1.1234 -0.6465
 7006TIP3    H242654   4.264   2.725   7.723 -1.7183  0.4118  0.4857
 7007TIP3   OH242655   6.406   0.554   6.405 -0.6998  0.4867  1.0137
 7007TIP3    H142656   6.325   0.521   6.365  0.1324 -0.9969  0.5270
 7007TIP3    H242657   6.385   0.644   6.430 -2.2106  0.4182  0.0577
 7008TIP3   OH242658   4.417   2.111   1.091 -0.1452 -0.9486 -0.0483
 7008TIP3    H142659   4.450   2.150   1.010 -0.0910 -0.9120 -0.0086
 7008TIP3    H242660   4.407   2.018   1.071  1.3002 -1.1993  0.3662
 7009TIP3   OH242661   2.672   4.840   2.009 -0.3853 -0.4872 -0.0741
 7009TIP3    H142662   2.746   4.782   1.992 -0.1371  0.1797 -1.3244
 7009TIP3    H242663   2.600   4.781   2.033  0.1531 -1.2317 -0.2897
 7010TIP3   OH242664   6.808   4.767   7.987 -0.5962  0.3975 -0.0226
 7010TIP3    H142665   6.809   4.728   7.899 -2.6997  0.6483 -0.1899
 7010TIP3    H242666   6.742   4.837   7.981  0.7498  1.8052  1.1917
 7011TIP3   OH242667   5.864   5.910   8.104  0.1755 -0.0721 -0.2454
 7011TIP3    H142668   5.846   5.971   8.032  0.0929 -0.6044 -0.6801
 7011TIP3    H242669   5.932   5.851   8.069  0.5631  0.0368  0.3215
 7012TIP3   OH242670   1.317   1.994   0.415  0.5726  0.0524 -0.4281
 7012TIP3    H142671   1.246   2.057   0.406  0.9468  0.6418  0.6286
 7012TIP3    H242672   1.274   1.909   0.425  0.0830 -0.0092 -2.8278
 7013TIP3   OH242673   4.041   1.588   0.959  0.1344  0.2312 -0.0615
 7013TIP3    H142674   3.985   1.577   0.882  1.1086 -0.5237 -0.6767
 7013TIP3    H242675   4.022   1.677   0.989 -0.1572  0.5886 -1.2570
 7014TIP3   OH242676   6.441   3.885   1.072  0.1996 -0.2956 -0.1809
 7014TIP3    H142677   6.382   3.809   1.068  0.2415 -0.4040  1.0536
 7014TIP3    H242678   6.479   3.881   1.160  0.7774  0.7312 -0.3802
 7015TIP3   OH242679   2.309   2.839   7.933 -0.2592  0.2353 -0.2544
 7015TIP3    H142680   2.366   2.900   7.979  0.5299  0.0591 -0.9859
 7015TIP3    H242681   2.332   2.850   7.841  0.5701 -1.8704 -0.3038
 7016TIP3   OH242682   4.785   3.055   1.415 -0.3762  0.0295 -0.3104
 7016TIP3    H142683   4.833   2.997   1.355  0.1407 -0.2893  0.4025
 7016TIP3    H242684   4.838   3.055   1.495 -0.9009  0.6971  0.0361
 7017TIP3   OH242685   4.118   2.629   2.476  0.2829 -0.2155 -0.1251
 7017TIP3    H142686   4.195   2.590   2.434 -0.6055 -1.7633 -0.3542
 7017TIP3    H242687   4.147   2.716   2.504  2.9356 -1.8371  2.3325
 7018TIP3   OH242688   2.631   5.903   1.429  0.1069  0.2899  0.4139
 7018TIP3    H142689   2.688   5.959   1.377 -0.0234 -0.2955 -0.3634
 7018TIP3    H242690   2.547   5.903   1.383  0.1496 -0.6613  0.3274
 7019TIP3   OH242691   6.213   3.359   0.206 -0.4865 -0.5963 -0.1357
 7019TIP3    H142692   6.130   3.398   0.177 -0.7309 -0.7113  0.3890
 7019TIP3    H242693   6.221   3.278   0.155 -0.6862 -0.5681 -0.2110
 7020TIP3   OH242694   4.745   1.946   1.806  0.3068 -0.1003  0.6911
 7020TIP3    H142695   4.667   1.893   1.785  0.9042 -0.2973 -1.1017
 7020TIP3    H242696   4.815   1.882   1.814  0.7954  0.3019 -0.2924
 7021TIP3   OH242697   3.333   2.646   1.340  0.2611  0.2403  0.3432
 7021TIP3    H142698   3.379   2.563   1.330  0.2890  0.0476  1.8703
 7021TIP3    H242699   3.378   2.689   1.413 -1.1116  0.6353  0.9724
 7022TIP3   OH242700   2.374   0.531   8.025 -0.5689  0.3411  0.7130
 7022TIP3    H142701   2.324   0.479   8.087  0.3946  0.0922  1.2971
 7022TIP3    H242702   2.451   0.478   8.004  0.6083  1.6494  1.5888
 7023TIP3   OH242703   3.889   3.914   1.600  0.0262  0.0554  0.3136
 7023TIP3    H142704   3.905   3.820   1.598 -0.5719 -0.0330 -0.6897
 7023TIP3    H242705   3.965   3.951   1.645  0.5575 -0.8468  0.1645
 7024TIP3   OH242706   3.661   3.244   1.398  0.0886 -0.5847 -0.4598
 7024TIP3    H142707   3.595   3.310   1.377  0.7296  0.3498  0.3880
 7024TIP3    H242708   3.743   3.294   1.408  0.2694 -1.2773  1.7882
 7025TIP3   OH242709   3.470   1.754   0.090  1.0218  0.0062  0.5581
 7025TIP3    H142710   3.391   1.735   0.039  0.6589 -0.9367  1.4501
 7025TIP3    H242711   3.509   1.830   0.047  0.8835 -0.9487 -1.3053
 7026TIP3   OH242712   4.335   2.462   8.028  0.4375  0.3298 -0.2969
 7026TIP3    H142713   4.394   2.387   8.021  0.8944  0.7238 -0.7200
 7026TIP3    H242714   4.382   2.525   8.083 -0.6860 -0.3891  1.5188
 7027TIP3   OH242715   4.541   2.148   7.973 -0.4606 -0.3640 -0.0048
 7027TIP3    H142716   4.634   2.137   7.991 -0.3401  2.0667  0.9317
 7027TIP3    H242717   4.501   2.065   8.001  1.3263 -1.2586 -0.0318
 7028TIP3   OH242718   7.076   5.384   7.984 -0.4100 -0.1242  0.0258
 7028TIP3    H142719   7.008   5.451   7.983  0.6138  1.1212  3.5693
 7028TIP3    H242720   7.154   5.429   7.953 -0.6368 -0.8514 -1.6114
 7029TIP3   OH242721   5.564   0.797   0.843  0.0171  0.7397 -0.1573
 7029TIP3    H142722   5.572   0.885   0.806  1.8990  0.4005 -0.6217
 7029TIP3    H242723   5.653   0.763   0.843 -0.6382 -1.0380  0.3570
 7030TIP3   OH242724   1.284   4.655   2.030  0.1881 -0.2778  0.3270
 7030TIP3    H142725   1.313   4.573   1.991  0.9379 -0.0905  0.4839
 7030TIP3    H242726   1.329   4.723   1.980 -1.6328  0.1183 -0.8245
 7031TIP3   OH242727   4.906   1.435   1.023 -0.4229 -0.0274 -0.4688
 7031TIP3    H142728   4.855   1.360   1.053 -0.1037  0.5425  1.5630
 7031TIP3    H242729   4.843   1.507   1.020  0.3631  0.9212  3.0181
 7032TIP3   OH242730   6.024   2.405   2.184  0.3489 -0.2150  0.4032
 7032TIP3    H142731   6.106   2.447   2.159  0.2827 -1.0408 -1.2220
 7032TIP3    H242732   6.050   2.319   2.216  0.2211 -0.0079  1.0778
 7033TIP3   OH242733   5.687   1.467   8.074  0.1504  0.3988 -0.4754
 7033TIP3    H142734   5.755   1.522   8.113  0.4808 -0.2448 -0.1325
 7033TIP3    H242735   5.732   1.384   8.055 -0.5182  0.0023 -0.3247
 7034TIP3   OH242736   5.869   2.351   0.998  0.7267  0.5920 -0.3413
 7034TIP3    H142737   5.790   2.344   0.944 -0.4675  0.8747  1.3497
 7034TIP3    H242738   5.879   2.445   1.014  2.2375  0.6892 -1.7409
 7035TIP3   OH242739   0.313   2.191   7.812 -0.2221  0.0834  0.8693
 7035TIP3    H142740   0.301   2.284   7.791 -0.5535  0.3838  2.3385
 7035TIP3    H242741   0.224   2.158   7.827 -0.2483 -0.8759 -1.2583
 7036TIP3   OH242742   5.822   0.727   7.580 -0.4996 -0.1523  0.3722
 7036TIP3    H142743   5.834   0.718   7.675  0.9919 -1.7102  0.0601
 7036TIP3    H242744   5.747   0.671   7.561 -0.2700 -0.5074  0.5084
 7037TIP3   OH242745   6.378   3.296   2.108 -0.5020  0.0905 -0.3586
 7037TIP3    H142746   6.284   3.309   2.100 -0.8247 -1.9501 -0.2263
 7037TIP3    H242747   6.387   3.214   2.157  1.3472  0.8734  0.6843
 7038TIP3   OH242748   6.523   0.807   6.610  0.0125  0.2561  0.2659
 7038TIP3    H142749   6.466   0.738   6.644 -0.0989  0.5809  0.7349
 7038TIP3    H242750   6.483   0.889   6.640 -0.2583  0.5602 -0.8919
 7039TIP3   OH242751   2.697   2.465   1.608  0.3284  0.1263  0.5199
 7039TIP3    H142752   2.752   2.495   1.680 -1.1363  1.6804  0.9983
 7039TIP3    H242753   2.746   2.487   1.529 -0.1538  2.6930  0.8998
 7040TIP3   OH242754   6.393   2.988   1.429  0.3222 -0.0786 -0.4875
 7040TIP3    H142755   6.407   2.952   1.517 -2.4064  0.4152  0.1960
 7040TIP3    H242756   6.316   3.043   1.438  0.8943  1.1599 -2.8939
 7041TIP3   OH242757   6.353   5.114   7.185 -0.4385 -0.3145  0.0877
 7041TIP3    H142758   6.370   5.110   7.091  0.8969 -1.7629  0.3654
 7041TIP3    H242759   6.297   5.039   7.203  0.3444 -0.7820  0.6305
 7042TIP3   OH242760   5.079   3.134   1.918 -0.0122  0.0296 -0.3605
 7042TIP3    H142761   5.120   3.062   1.967 -0.4593  1.0287  1.5258
 7042TIP3    H242762   5.060   3.200   1.984  0.0212  1.7282 -2.0206
 7043TIP3   OH242763   4.704   2.571   6.030  0.1164 -0.4497  0.1071
 7043TIP3    H142764   4.781   2.516   6.023 -0.2723 -0.7936 -1.8647
 7043TIP3    H242765   4.723   2.647   5.975 -0.5633 -0.1067  0.3346
 7044TIP3   OH242766   4.142   1.384   7.896  0.1858 -0.0331 -0.2190
 7044TIP3    H142767   4.204   1.385   7.968 -0.9483  0.5094  0.7783
 7044TIP3    H242768   4.160   1.303   7.849 -0.4231 -1.4273  1.8960
 7045TIP3   OH242769   5.123   2.268   1.831  0.3109 -0.2672 -0.3228
 7045TIP3    H142770   5.189   2.330   1.799  0.6825 -0.7741 -0.5480
 7045TIP3    H242771   5.153   2.246   1.920 -1.2333  1.8727  0.7704
 7046TIP3   OH242772   4.102   1.078   1.868  0.4627 -0.5636 -0.3950
 7046TIP3    H142773   4.133   1.151   1.922 -0.0526 -0.2181 -0.5653
 7046TIP3    H242774   4.039   1.032   1.923  0.1887 -0.4082 -0.5760
 7047TIP3   OH242775   1.407   3.232   6.830 -0.3517  0.8490 -0.6314
 7047TIP3    H142776   1.415   3.288   6.907 -0.4623  0.7410 -0.5418
 7047TIP3    H242777   1.391   3.144   6.865 -0.6268  0.8377 -0.7780
 7048TIP3   OH242778   0.630   3.878   1.822  0.0157  0.1466 -0.2207
 7048TIP3    H142779   0.686   3.801   1.813  0.5600  0.5730 -0.4779
 7048TIP3    H242780   0.684   3.951   1.793 -0.9524  0.4503 -1.3223
 7049TIP3   OH242781   6.772   5.279   2.436 -0.0193  0.0908  0.8467
 7049TIP3    H142782   6.829   5.271   2.512 -0.9173  2.6066  1.8384
 7049TIP3    H242783   6.685   5.256   2.469  0.2302 -2.9713 -0.4733
 7050TIP3   OH242784   2.202   2.674   0.515  0.0875 -0.2229 -0.4130
 7050TIP3    H142785   2.202   2.678   0.419  2.1711  1.4020 -0.3900
 7050TIP3    H242786   2.294   2.685   0.539 -0.4663 -0.2367  1.7855
 7051TIP3   OH242787   1.095   6.165   1.651  0.3770  0.0881 -0.4824
 7051TIP3    H142788   1.050   6.110   1.715 -1.4003 -0.4187 -2.1122
 7051TIP3    H242789   1.100   6.251   1.692 -0.4198 -0.3191  0.4823
 7052TIP3   OH242790   5.325   0.056   0.860  0.1346 -0.2823 -0.0138
 7052TIP3    H142791   5.286  -0.008   0.919 -0.4219 -1.5742 -1.7479
 7052TIP3    H242792   5.299   0.141   0.897 -0.8755 -1.0673  1.1331
 7053TIP3   OH242793   1.851   4.956   8.082 -0.3855 -0.4518 -0.2543
 7053TIP3    H142794   1.763   4.918   8.083 -0.8157  0.5609  0.9698
 7053TIP3    H242795   1.909   4.882   8.099 -1.0094 -1.0896 -0.8560
 7054TIP3   OH242796   3.255   4.376   2.178 -0.0782 -0.3924 -0.4597
 7054TIP3    H142797   3.290   4.299   2.224  1.4499 -0.0112 -0.9429
 7054TIP3    H242798   3.187   4.340   2.121 -1.8040 -0.9026  1.8593
 7055TIP3   OH242799   1.429   4.381   1.888 -0.0003 -0.1300  0.4738
 7055TIP3    H142800   1.386   4.304   1.926 -1.7957  1.0279  0.8440
 7055TIP3    H242801   1.501   4.400   1.948 -0.4296 -0.6608  1.1614
 7056TIP3   OH242802   5.910   2.015   7.955  0.2953  0.3144  0.2329
 7056TIP3    H142803   5.819   2.007   7.983  0.2710 -0.8643 -0.1728
 7056TIP3    H242804   5.952   1.934   7.984  0.5638 -0.3781 -1.9824
 7057TIP3   OH242805   1.501   0.072   1.552 -0.1293 -0.1300  0.1690
 7057TIP3    H142806   1.443   0.063   1.627  0.0141  0.9110  0.4137
 7057TIP3    H242807   1.502   0.166   1.533 -1.3845 -0.5238 -2.1050
 7058TIP3   OH242808   3.689   3.649   0.713  0.1141  0.3609 -0.0879
 7058TIP3    H142809   3.670   3.670   0.622  1.7240 -0.8685 -0.7291
 7058TIP3    H242810   3.611   3.604   0.744 -0.3878  0.6566 -0.9064
 7059TIP3   OH242811   1.576   5.875   0.392  0.1297  0.3499  0.5330
 7059TIP3    H142812   1.514   5.918   0.332  0.7989 -1.7648 -1.7687
 7059TIP3    H242813   1.627   5.946   0.429 -1.0365  1.8062 -0.5949
 7060TIP3   OH242814   3.269   2.020   0.059  0.2672 -0.0256  0.2906
 7060TIP3    H142815   3.188   1.992   0.102  0.5563 -0.1476  0.7601
 7060TIP3    H242816   3.257   2.114   0.043 -0.3169 -0.2160 -0.4278
 7061TIP3   OH242817   0.549   3.420   0.197 -0.2872 -0.1484  0.1039
 7061TIP3    H142818   0.519   3.449   0.283 -0.1059 -0.9429  0.4463
 7061TIP3    H242819   0.583   3.499   0.155 -2.5117  0.6826 -0.1557
 7062TIP3   OH242820   3.543   4.164   0.792  0.3164  0.0128  0.3387
 7062TIP3    H142821   3.550   4.085   0.738  0.9215  0.5808 -0.4201
 7062TIP3    H242822   3.562   4.133   0.881 -2.0010 -1.1815  0.4647
 7063TIP3   OH242823   6.358   4.663   0.927 -0.3155 -0.5413 -0.3898
 7063TIP3    H142824   6.375   4.569   0.920 -1.7328 -1.0972  2.7001
 7063TIP3    H242825   6.421   4.694   0.991  0.4645  0.7337 -1.7613
 7064TIP3   OH242826   7.131   4.465   2.236 -0.9449  0.0486  0.0715
 7064TIP3    H142827   7.140   4.434   2.146 -0.7382  0.8785 -0.1967
 7064TIP3    H242828   7.194   4.413   2.286  0.2149  0.8362 -0.5693
 7065TIP3   OH242829   5.127   0.519   1.173  0.3157  0.5194 -0.0884
 7065TIP3    H142830   5.157   0.471   1.250 -0.8878  1.8541  1.2492
 7065TIP3    H242831   5.173   0.603   1.178  0.7388  0.3611 -1.1986
 7066TIP3   OH242832   5.397   4.568   7.500 -0.3469  0.4108  0.4822
 7066TIP3    H142833   5.460   4.618   7.448 -0.5522 -2.3992 -2.6738
 7066TIP3    H242834   5.318   4.621   7.499 -0.2803  0.5381 -1.9620
 7067TIP3   OH242835   2.510   4.242   2.812 -0.1158 -0.0485  0.3784
 7067TIP3    H142836   2.485   4.150   2.811 -1.5324  0.3292 -0.6388
 7067TIP3    H242837   2.497   4.271   2.722  1.1167  0.9442  0.5087
 7068TIP3   OH242838   3.399   5.421   7.047  0.2196  0.2721 -0.2477
 7068TIP3    H142839   3.396   5.459   7.135  1.0161  1.7768 -0.8498
 7068TIP3    H242840   3.394   5.497   6.988 -0.8305 -0.7575 -1.5109
 7069TIP3   OH242841   1.433   3.528   1.345 -0.3505  0.6838  0.1669
 7069TIP3    H142842   1.505   3.526   1.282 -1.4251 -0.7859 -1.0683
 7069TIP3    H242843   1.373   3.594   1.310 -1.3020 -0.6631 -0.7725
 7070TIP3   OH242844   0.625   6.084   6.495  0.3129  0.1439  0.7897
 7070TIP3    H142845   0.559   6.023   6.528 -0.2573  0.0408 -0.5091
 7070TIP3    H242846   0.584   6.124   6.418  0.5815  2.3562  1.7695
 7071TIP3   OH242847   1.079   3.842   0.822 -0.1182 -0.1690 -0.6177
 7071TIP3    H142848   1.113   3.753   0.827  1.1764  0.2903 -0.8864
 7071TIP3    H242849   1.029   3.853   0.902 -0.7088 -1.3048 -0.8193
 7072TIP3   OH242850   2.839   5.279   1.158 -0.0359  0.5140  0.0733
 7072TIP3    H142851   2.871   5.362   1.192 -1.8289  1.4203 -0.3574
 7072TIP3    H242852   2.898   5.213   1.194  1.2943  1.9498  0.5777
 7073TIP3   OH242853   3.769   4.825   0.606 -0.4128 -0.0347  0.0508
 7073TIP3    H142854   3.734   4.748   0.560 -0.8741 -0.9347  1.8807
 7073TIP3    H242855   3.697   4.853   0.662  0.2203  0.9387  0.3762
 7074TIP3   OH242856   3.482   5.518   2.603  0.3639 -1.6405  0.6819
 7074TIP3    H142857   3.566   5.553   2.573  0.2555 -2.5086 -0.6563
 7074TIP3    H242858   3.422   5.593   2.601  0.0530 -1.9147 -2.4790
 7075TIP3   OH242859   1.936   0.568   1.678 -0.7080 -0.1110 -0.5317
 7075TIP3    H142860   1.955   0.652   1.721  0.8392  0.5528 -2.4583
 7075TIP3    H242861   1.954   0.502   1.744  2.6104  0.8402 -0.4228
 7076TIP3   OH242862   1.936   5.378   0.402  0.1210  0.3011 -0.2393
 7076TIP3    H142863   1.997   5.347   0.335 -0.1946  0.4602 -0.6022
 7076TIP3    H242864   1.866   5.312   0.403  0.0326  0.3941 -0.1973
 7077TIP3   OH242865   3.375   6.472   1.321 -0.3469  0.3127 -0.1702
 7077TIP3    H142866   3.454   6.449   1.271 -0.9223 -0.2752 -0.8332
 7077TIP3    H242867   3.331   6.388   1.334 -0.4132  0.5197  0.9815
 7078TIP3   OH242868   0.395   4.236   0.929  0.1832  0.2068 -0.3378
 7078TIP3    H142869   0.343   4.316   0.942  0.4555  0.6907 -2.1136
 7078TIP3    H242870   0.333   4.175   0.889  0.5416  0.2317 -0.9257
 7079TIP3   OH242871   3.145   1.922   7.941  0.0526  0.1209  0.3238
 7079TIP3    H142872   3.053   1.894   7.943 -0.1654  0.8258  0.1708
 7079TIP3    H242873   3.164   1.947   8.031  0.9244 -2.6745  0.9584
 7080TIP3   OH242874   6.605   6.805   1.320 -0.6686 -0.3452  0.4494
 7080TIP3    H142875   6.699   6.796   1.303 -0.6905 -0.6766  0.4960
 7080TIP3    H242876   6.591   6.753   1.399 -0.9726 -0.6554  0.1907
 7081TIP3   OH242877   2.896   5.889   1.176 -0.4900 -0.2003  0.1983
 7081TIP3    H142878   2.811   5.933   1.183 -0.0458  0.8524 -0.8999
 7081TIP3    H242879   2.954   5.954   1.136  0.5702 -1.2725 -0.0437
 7082TIP3   OH242880   6.790   3.663   8.059  0.4084  0.0733  0.5904
 7082TIP3    H142881   6.727   3.729   8.029  2.0208  1.7201  0.7098
 7082TIP3    H242882   6.772   3.655   8.152  1.2801  1.6089  0.9169
 7083TIP3   OH242883   1.977   2.809   7.398 -0.0619  0.0896 -0.0379
 7083TIP3    H142884   1.907   2.862   7.359 -0.4046  1.2387  2.0290
 7083TIP3    H242885   2.056   2.860   7.384 -0.1711  0.4571  0.6795
 7084TIP3   OH242886   2.511   6.527   0.397 -0.0451 -0.0999 -0.2537
 7084TIP3    H142887   2.498   6.440   0.434  0.8770  0.2619  0.9108
 7084TIP3    H242888   2.603   6.530   0.371 -0.0973  0.4798 -0.3941
 7085TIP3   OH242889   1.222   6.268   0.250  0.1080  0.2596 -0.0636
 7085TIP3    H142890   1.204   6.289   0.342  1.0602  0.3477  0.1123
 7085TIP3    H242891   1.252   6.350   0.212  0.2558  0.0942 -0.3076
 7086TIP3   OH242892   1.569   6.597   8.126 -0.0319  0.6143  0.3037
 7086TIP3    H142893   1.490   6.543   8.126  0.3884 -0.0077  1.4750
 7086TIP3    H242894   1.625   6.557   8.059 -0.4530  0.7036 -0.1122
 7087TIP3   OH242895   2.042   3.572   2.361  0.5561  0.5434 -0.0132
 7087TIP3    H142896   2.103   3.633   2.322  0.0826  1.5403  0.7768
 7087TIP3    H242897   2.026   3.506   2.293  2.2528  0.4400 -0.3299
 7088TIP3   OH242898   3.649   3.772   1.620 -0.1904 -0.3951  0.5132
 7088TIP3    H142899   3.697   3.786   1.539 -1.0116 -0.4954  0.0088
 7088TIP3    H242900   3.648   3.677   1.631  0.4645 -0.3565  0.9794
 7089TIP3   OH242901   3.544   1.543   1.467 -0.4742 -0.3985 -0.2791
 7089TIP3    H142902   3.506   1.498   1.392 -3.0306 -0.9849  1.3180
 7089TIP3    H242903   3.499   1.506   1.543  1.3698  0.8691  1.4826
 7090TIP3   OH242904   6.496   1.175   0.520 -0.4978 -0.4748  0.1089
 7090TIP3    H142905   6.494   1.081   0.500 -0.6554 -0.1061 -1.7257
 7090TIP3    H242906   6.580   1.205   0.484 -1.0294  0.3258 -0.4705
 7091TIP3   OH242907   0.066   0.333   7.305  0.3270  0.7833  0.2113
 7091TIP3    H142908   0.089   0.240   7.308 -0.6640  0.4578 -1.5315
 7091TIP3    H242909  -0.021   0.338   7.344 -0.3249  0.7274 -1.2178
 7092TIP3   OH242910   3.630   7.020   1.562 -0.1999 -0.3340 -0.0466
 7092TIP3    H142911   3.600   7.107   1.538 -0.1637 -0.4374 -0.4701
 7092TIP3    H242912   3.584   6.961   1.503  2.3928 -0.3428 -2.1372
 7093TIP3   OH242913   2.371   3.838   0.836 -0.1302 -0.0540 -0.7332
 7093TIP3    H142914   2.297   3.898   0.839  0.3915  0.5281  0.5974
 7093TIP3    H242915   2.333   3.753   0.860 -0.3922  0.2026 -0.2489
 7094TIP3   OH242916   1.981   4.879   1.863 -0.0705  0.0361 -0.1035
 7094TIP3    H142917   2.074   4.884   1.845  0.1277  0.0483  0.8966
 7094TIP3    H242918   1.946   4.964   1.837  0.6666  1.0647  2.1321
 7095TIP3   OH242919   6.319   4.651   8.115  0.4146  0.1550  0.6471
 7095TIP3    H142920   6.349   4.645   8.024  0.6656 -0.9585  0.8093
 7095TIP3    H242921   6.395   4.685   8.163  0.5047  0.0663  0.5682
 7096TIP3   OH242922   1.539   6.834   6.842  0.0828 -0.2638  0.3189
 7096TIP3    H142923   1.467   6.893   6.820  1.0673  0.0352 -2.2947
 7096TIP3    H242924   1.539   6.830   6.938 -1.3904  2.2269  0.4568
 7097TIP3   OH242925   5.884   0.333   1.253  0.3188  0.0401  0.3173
 7097TIP3    H142926   5.888   0.289   1.168 -1.4669 -0.5890  0.5298
 7097TIP3    H242927   5.799   0.377   1.253  0.4760  0.3621  1.6215
 7098TIP3   OH242928   4.411   0.177   0.887 -0.1634 -0.2278  0.3553
 7098TIP3    H142929   4.335   0.231   0.909 -0.3187  0.9880 -2.8812
 7098TIP3    H242930   4.380   0.117   0.819  0.8206 -2.3161  1.7043
 7099TIP3   OH242931   3.718   2.605   1.525 -0.3262 -0.7729  0.1178
 7099TIP3    H142932   3.726   2.642   1.437 -1.4143  0.1443  0.4039
 7099TIP3    H242933   3.754   2.516   1.516  2.1389  0.2330 -0.6090
 7100TIP3   OH242934   5.947   5.292   0.952  0.0449 -0.3186  0.0807
 7100TIP3    H142935   5.935   5.353   0.880  0.3579 -1.3326 -0.8514
 7100TIP3    H242936   6.041   5.292   0.968 -0.0346 -0.0227  0.5615
 7101TIP3   OH242937   3.327   6.492   0.111  0.2731  0.5036  0.6296
 7101TIP3    H142938   3.382   6.570   0.112  0.0870  0.6357  0.4953
 7101TIP3    H242939   3.285   6.490   0.197 -1.4304  1.7594 -0.1418
 7102TIP3   OH242940   4.134   4.186   7.043  0.8092 -0.6667 -0.2937
 7102TIP3    H142941   4.054   4.137   7.064  0.4779  0.0467  0.1108
 7102TIP3    H242942   4.115   4.276   7.070  0.6313  0.1331 -3.0111
 7103TIP3   OH242943   5.532   1.343   1.747 -0.2756  0.2491 -0.2528
 7103TIP3    H142944   5.465   1.380   1.690 -0.1225  0.3982 -0.3377
 7103TIP3    H242945   5.544   1.410   1.815  1.0236  0.9910 -1.2005
 7104TIP3   OH242946   5.747   4.531   1.448  0.7698  0.5520  0.3634
 7104TIP3    H142947   5.820   4.586   1.477  0.5489  1.0164  0.0459
 7104TIP3    H242948   5.731   4.471   1.521  2.1642 -0.2622  0.0183
 7105TIP3   OH242949   6.962   6.303   1.151  0.1119 -0.1478 -0.0708
 7105TIP3    H142950   7.031   6.293   1.085 -1.8840  0.8189 -2.3649
 7105TIP3    H242951   7.007   6.343   1.226  2.6855 -2.5158 -0.3059
 7106TIP3   OH242952   3.720   4.678   1.190  0.8173  0.0269 -0.0217
 7106TIP3    H142953   3.784   4.607   1.194  0.8021  0.0135 -0.0171
 7106TIP3    H242954   3.694   4.691   1.281  0.1830 -0.5356 -0.1240
 7107TIP3   OH242955   5.967   4.919   1.609 -0.3998 -0.3713 -0.1747
 7107TIP3    H142956   5.994   5.008   1.629  0.3798 -0.3269 -1.3849
 7107TIP3    H242957   5.941   4.882   1.693 -1.3830  1.2135  0.2293
 7108TIP3   OH242958   0.014   6.540   1.945  0.2641  0.5591  0.1620
 7108TIP3    H142959   0.078   6.502   2.004  1.2890 -0.6876 -1.7024
 7108TIP3    H242960  -0.018   6.617   1.990  4.2287  2.1205  0.4915
 7109TIP3   OH242961   0.336   3.102   6.470  0.0403 -0.2409  0.4261
 7109TIP3    H142962   0.339   3.111   6.374  1.7723  0.7253  0.5600
 7109TIP3    H242963   0.248   3.132   6.493 -0.3604 -0.3880 -0.8476
 7110TIP3   OH242964   7.104   1.957   6.561 -0.4279 -0.3746  0.8219
 7110TIP3    H142965   7.156   1.942   6.640 -0.4112 -1.6701  0.5621
 7110TIP3    H242966   7.037   1.889   6.563  0.5995 -1.4682 -1.1472
 7111TIP3   OH242967   5.218   2.625   0.504 -0.2662 -0.4008  0.0172
 7111TIP3    H142968   5.192   2.537   0.533  1.4981 -0.3462  1.8939
 7111TIP3    H242969   5.300   2.642   0.551 -0.9352  2.5114  0.2205
 7112TIP3   OH242970   4.227   3.814   0.726 -0.2852  0.0659 -0.0274
 7112TIP3    H142971   4.178   3.775   0.798  0.1151  0.3876  0.4164
 7112TIP3    H242972   4.203   3.761   0.649 -2.7391  1.3076 -0.1656
 7113TIP3   OH242973   3.629   3.631   0.185  0.0706 -0.0218 -0.1880
 7113TIP3    H142974   3.677   3.702   0.142  1.1215 -0.5955  0.0254
 7113TIP3    H242975   3.596   3.578   0.113 -1.5133  1.1855 -0.3762
 7114TIP3   OH242976   4.343   4.080   1.037 -0.1640 -0.1144  0.3877
 7114TIP3    H142977   4.426   4.067   1.083  0.4075 -1.2897 -0.9363
 7114TIP3    H242978   4.367   4.080   0.944 -1.4483  1.1073  0.0432
 7115TIP3   OH242979   2.055   3.770   0.189 -0.5470 -0.7674  0.0965
 7115TIP3    H142980   2.097   3.773   0.103 -0.4498 -3.0422  0.0130
 7115TIP3    H242981   1.961   3.765   0.169 -0.5617 -0.5748  0.1246
 7116TIP3   OH242982   5.348   4.550   1.557  0.1601 -0.5629 -0.4952
 7116TIP3    H142983   5.378   4.509   1.638 -0.4265 -1.0791 -0.5351
 7116TIP3    H242984   5.388   4.497   1.487  0.8425  0.0120 -0.5506
 7117TIP3   OH242985   2.621   4.086   6.921 -0.2632 -0.6753 -0.2073
 7117TIP3    H142986   2.587   4.077   6.832 -0.6789  2.4647 -0.4382
 7117TIP3    H242987   2.705   4.130   6.909  0.3464 -1.5300  0.8781
 7118TIP3   OH242988   3.719   5.108   2.270 -0.1817  0.2198 -0.2959
 7118TIP3    H142989   3.624   5.117   2.264 -0.2497 -0.9122 -1.1434
 7118TIP3    H242990   3.735   5.085   2.362 -0.7869 -0.1822 -0.2870
 7119TIP3   OH242991   6.110   4.681   1.037  0.4503 -0.5922  0.1846
 7119TIP3    H142992   6.190   4.686   0.985  0.4298  1.7243  0.3200
 7119TIP3    H242993   6.141   4.680   1.128  0.3351  0.4153  0.2399
 7120TIP3   OH242994   5.339   4.489   1.832 -0.1179  0.6812  0.0391
 7120TIP3    H142995   5.420   4.489   1.882 -0.7187 -1.3649  1.0528
 7120TIP3    H242996   5.278   4.540   1.885 -0.2433 -0.0090  0.5684
 7121TIP3   OH242997   7.128   3.477   7.604  0.2727 -0.6789 -0.0041
 7121TIP3    H142998   7.112   3.502   7.513  1.2684 -1.5712 -0.4437
 7121TIP3    H242999   7.171   3.552   7.643  0.4853 -0.5582 -0.4669
 7122TIP3   OH243000   6.008   4.796   2.095  0.4491 -0.1520  0.4005
 7122TIP3    H143001   5.983   4.813   2.004  1.7778 -3.2361 -0.6238
 7122TIP3    H243002   6.074   4.862   2.115  0.3582  0.3679 -0.9626
 7123TIP3   OH243003   5.190   5.649   2.049 -0.0319  0.0183 -0.0210
 7123TIP3    H143004   5.179   5.737   2.014 -0.8441 -0.6343 -1.4859
 7123TIP3    H243005   5.277   5.622   2.021  0.4474  0.5659  0.9300
 7124TIP3   OH243006   5.975   5.250   1.966  0.1310  0.2626 -0.4962
 7124TIP3    H143007   5.943   5.223   2.052 -0.5231 -0.7838 -1.0553
 7124TIP3    H243008   6.064   5.215   1.961 -0.0640 -0.2333 -0.5020
 7125TIP3   OH243009   3.065   6.146   7.942  0.1023 -0.4570 -0.2451
 7125TIP3    H143010   2.978   6.125   7.908  0.3662 -2.2692  0.1712
 7125TIP3    H243011   3.090   6.069   7.992  1.0770  0.9138  1.3887
 7126TIP3   OH243012   5.963   6.397   0.880  0.0290 -0.5071  0.2949
 7126TIP3    H143013   5.917   6.325   0.923  1.6422 -1.3946  0.5640
 7126TIP3    H243014   6.044   6.407   0.930  0.5394  0.4372 -0.7046
 7127TIP3   OH243015   2.451   6.246   1.540 -0.2286 -0.1665  0.1945
 7127TIP3    H143016   2.363   6.217   1.515 -0.4141 -0.6978  1.4055
 7127TIP3    H243017   2.478   6.304   1.469 -1.0004 -1.0852 -0.8717
 7128TIP3   OH243018   5.661   2.930   1.055  0.7508 -0.3416 -0.3214
 7128TIP3    H143019   5.749   2.903   1.078  0.3866 -1.2169  0.0501
 7128TIP3    H243020   5.610   2.921   1.135  0.0708 -0.9090 -0.8046
 7129TIP3   OH243021   1.370   6.334   7.652  0.2817 -0.5129 -0.1846
 7129TIP3    H143022   1.435   6.388   7.697 -0.7715  0.5014  0.1517
 7129TIP3    H243023   1.402   6.328   7.562  0.7928  0.0614 -0.0450
 7130TIP3   OH243024   1.663   7.121   7.405 -0.3458 -0.3211 -0.2089
 7130TIP3    H143025   1.646   7.048   7.465 -2.0243 -1.1540 -1.6446
 7130TIP3    H243026   1.616   7.195   7.444 -0.3803 -0.5350  0.1563
 7131TIP3   OH243027   1.407   0.309   0.887 -0.4427  0.2098  0.1843
 7131TIP3    H143028   1.333   0.264   0.845 -0.1766 -1.9077  1.8737
 7131TIP3    H243029   1.370   0.347   0.967  0.1542 -0.2989  0.7064
 7132TIP3   OH243030   6.659   5.886   0.728  0.2804 -0.2734  0.2962
 7132TIP3    H143031   6.640   5.880   0.821 -1.1335  0.1915  0.0574
 7132TIP3    H243032   6.609   5.962   0.698  0.9101 -0.2719 -0.7945
 7133TIP3   OH243033   6.373   2.953   7.782  0.4103  0.2232  0.1059
 7133TIP3    H143034   6.285   2.943   7.818  0.4741  1.9248  0.7618
 7133TIP3    H243035   6.428   2.967   7.859  1.3490 -1.3438 -0.2583
 7134TIP3   OH243036   2.868   5.316   7.105 -0.0102 -0.1751 -0.3603
 7134TIP3    H143037   2.813   5.394   7.096 -2.2468 -1.6812 -0.2266
 7134TIP3    H243038   2.844   5.261   7.030  0.2098 -1.5081  0.5323
 7135TIP3   OH243039   2.932   0.488   1.910 -0.3159 -0.0108 -0.1091
 7135TIP3    H143040   3.026   0.506   1.918 -0.5012 -0.2159  3.2617
 7135TIP3    H243041   2.927   0.393   1.898 -0.1197 -0.0943  0.4552
 7136TIP3   OH243042   1.384   0.021   1.781 -0.0575 -0.5072 -0.0698
 7136TIP3    H143043   1.300   0.064   1.768  0.9485  1.5876  0.2726
 7136TIP3    H243044   1.374  -0.030   1.861 -0.2712  1.6079  1.2780
 7137TIP3   OH243045   0.702   7.098   2.085  0.0571 -0.3960  0.2601
 7137TIP3    H143046   0.652   7.144   2.153  0.3147  1.1560 -0.5756
 7137TIP3    H243047   0.685   7.005   2.101 -2.9425  0.0857  0.1002
 7138TIP3   OH243048   0.452   4.676   1.318 -0.0416  0.0545  0.1368
 7138TIP3    H143049   0.389   4.614   1.282  0.8810 -0.8437  0.0330
 7138TIP3    H243050   0.429   4.759   1.278 -2.3691  0.1469  1.6032
 7139TIP3   OH243051   5.312   6.703   1.210  0.2495 -0.2646 -0.0265
 7139TIP3    H143052   5.261   6.705   1.129  0.6803  2.9192 -0.3077
 7139TIP3    H243053   5.372   6.629   1.200 -0.4905 -0.5971 -2.1208
 7140TIP3   OH243054   1.677   0.690   0.207  0.5552  0.4038 -0.2186
 7140TIP3    H143055   1.599   0.715   0.158 -1.1495 -1.2234  1.5982
 7140TIP3    H243056   1.744   0.675   0.140 -1.1736  0.1227 -1.9105
 7141TIP3   OH243057   2.432   5.215   1.742 -0.3744  0.2312 -0.1226
 7141TIP3    H143058   2.438   5.195   1.836 -0.8926 -1.2234 -0.3800
 7141TIP3    H243059   2.505   5.274   1.725 -0.3544  0.6130  1.2270
 7142TIP3   OH243060   1.968   6.918   7.090  0.0908 -0.1461 -0.4081
 7142TIP3    H143061   1.989   6.954   7.004 -1.1195  0.5863 -0.4019
 7142TIP3    H243062   1.873   6.919   7.094  0.1583  0.8040  1.3655
 7143TIP3   OH243063   6.486   6.425   2.063 -0.5408 -0.3447 -0.6605
 7143TIP3    H143064   6.480   6.507   2.015 -2.7972  0.4233  0.8638
 7143TIP3    H243065   6.453   6.445   2.150  0.4882 -2.4745  0.2670
 7144TIP3   OH243066   0.188   5.846   0.246 -0.5838  0.3891  0.1898
 7144TIP3    H143067   0.195   5.752   0.231 -0.3198  0.3350  0.6343
 7144TIP3    H243068   0.095   5.860   0.264 -0.9697  0.5191 -1.8672
 7145TIP3   OH243069   5.415   0.996   7.942 -0.7680 -0.2008  0.1719
 7145TIP3    H143070   5.441   0.933   8.009 -1.5406 -0.0478  0.6209
 7145TIP3    H243071   5.388   1.073   7.991 -0.5585  0.2120 -0.3507
 7146TIP3   OH243072   3.887   5.328   1.725  0.2236  0.8475 -0.0765
 7146TIP3    H143073   3.977   5.353   1.706  0.7732 -0.4692  0.7316
 7146TIP3    H243074   3.880   5.337   1.820  0.5462 -2.3438  0.2864
 7147TIP3   OH243075   3.155   7.047   0.828  0.1183 -0.0349 -0.2042
 7147TIP3    H143076   3.218   6.994   0.875 -0.5352 -0.3221  0.3604
 7147TIP3    H243077   3.070   7.015   0.858 -0.3017 -0.2578 -1.6306
 7148TIP3   OH243078   4.264   6.997   2.162  0.0870 -0.4265  0.3729
 7148TIP3    H143079   4.246   7.060   2.231  3.2284  1.1664 -0.1637
 7148TIP3    H243080   4.196   7.013   2.097 -0.5565  0.7658  1.3247
 7149TIP3   OH243081   0.051   6.978   6.952  0.8238 -0.3947  0.3300
 7149TIP3    H143082   0.086   7.065   6.935  0.1509 -0.4288 -1.4180
 7149TIP3    H243083   0.109   6.919   6.903  0.6839 -0.8132  0.6660
 7150TIP3   OH243084   2.532   5.022   7.596  0.1057 -0.2596  0.6251
 7150TIP3    H143085   2.491   5.002   7.511 -0.3967  2.3069  0.1918
 7150TIP3    H243086   2.623   4.997   7.585  0.1332  0.3874 -0.8351
 7151TIP3   OH243087   4.285   2.148   0.601  0.1377  0.5008  0.1344
 7151TIP3    H143088   4.236   2.171   0.681  1.4465  0.0595  1.0769
 7151TIP3    H243089   4.373   2.127   0.632  0.0946 -1.7619 -1.1891
 7152TIP3   OH243090   3.502   5.091   1.395 -0.3495 -0.4873 -0.3843
 7152TIP3    H143091   3.467   5.160   1.338 -3.5251 -1.2183  0.5591
 7152TIP3    H243092   3.507   5.132   1.481  3.4112  0.2882 -0.9098
 7153TIP3   OH243093   2.901   5.844   6.917 -0.3959  0.1105  0.6985
 7153TIP3    H143094   2.912   5.816   6.827  1.0727  0.3207  0.8099
 7153TIP3    H243095   2.808   5.830   6.935 -0.3312 -1.6438 -0.2515
 7154TIP3   OH243096   0.810   0.635   1.601  0.4681 -0.0157 -0.2262
 7154TIP3    H143097   0.827   0.588   1.682 -1.9379 -0.7858 -0.1382
 7154TIP3    H243098   0.732   0.687   1.619 -0.2191 -0.3501 -2.0980
 7155TIP3   OH243099   6.030   1.360   1.107  0.2372  0.1861 -0.0027
 7155TIP3    H143100   5.941   1.369   1.072  1.1182  2.6469 -1.7336
 7155TIP3    H243101   6.086   1.353   1.029  1.7942  1.2384  0.9939
 7156TIP3   OH243102   0.808   3.566   0.545  0.6726 -0.4118 -0.1653
 7156TIP3    H143103   0.806   3.470   0.545 -1.2218 -0.4006 -0.0240
 7156TIP3    H243104   0.721   3.591   0.513  1.4073  1.2547 -0.8574
 7157TIP3   OH243105   3.447   5.148   2.145 -0.4319  0.0260  0.5612
 7157TIP3    H143106   3.430   5.231   2.100 -0.5831 -0.3598 -0.0922
 7157TIP3    H243107   3.393   5.153   2.224 -0.6479  0.4369  0.3942
 7158TIP3   OH243108   0.262   5.931   2.060 -1.0260 -0.0776 -0.4692
 7158TIP3    H143109   0.182   5.923   2.008 -1.3449  0.2831 -0.0318
 7158TIP3    H243110   0.250   6.011   2.111  0.5360  1.1993 -2.0258
 7159TIP3   OH243111   4.851   1.281   0.265  0.0657 -0.0057  0.2194
 7159TIP3    H143112   4.873   1.346   0.332 -0.0896  0.3805 -0.1002
 7159TIP3    H243113   4.907   1.207   0.285 -0.3017 -0.0723  1.0562
 7160TIP3   OH243114   4.488   0.235   1.931  0.2081 -0.0594  0.4758
 7160TIP3    H143115   4.544   0.295   1.881 -0.5784 -0.8072 -1.3634
 7160TIP3    H243116   4.506   0.149   1.894 -1.6956 -0.3855  0.2371
 7161TIP3   OH243117   1.816   0.254   0.333 -0.3245 -0.2288  0.1950
 7161TIP3    H143118   1.899   0.282   0.294  1.0100 -0.6161  2.6849
 7161TIP3    H243119   1.835   0.170   0.374 -3.0407 -2.4429 -2.7945
 7162TIP3   OH243120   4.504   1.596   7.425  0.0605 -0.0480  0.1287
 7162TIP3    H143121   4.592   1.559   7.422  0.2976  0.3871  1.2848
 7162TIP3    H243122   4.456   1.539   7.485  0.0068  0.6290  0.7385
 7163TIP3   OH243123   4.055   5.564   2.231  0.4765  0.2816 -0.4386
 7163TIP3    H143124   4.079   5.481   2.190  1.1919  0.4485 -0.3571
 7163TIP3    H243125   3.960   5.558   2.242  0.8306 -1.6378  2.0581
 7164TIP3   OH243126   3.291   4.635   0.938 -0.2569  0.6650  0.1541
 7164TIP3    H143127   3.377   4.673   0.956  0.1161 -0.8798  1.7375
 7164TIP3    H243128   3.286   4.633   0.842  1.7032  0.2432  0.0450
 7165TIP3   OH243129   5.904   0.345   7.805 -0.3060  0.0946  0.0714
 7165TIP3    H143130   5.844   0.415   7.777  1.5985  1.9629  0.4582
 7165TIP3    H243131   5.896   0.342   7.900  1.5736  1.7089  0.3194
 7166TIP3   OH243132   5.638   0.056   1.328 -0.6135 -0.0394 -0.2389
 7166TIP3    H143133   5.679   0.072   1.243  2.9577  1.0132  1.6238
 7166TIP3    H243134   5.643   0.139   1.374 -3.1656 -0.4047  0.8214
 7167TIP3   OH243135   2.840   0.374   0.027 -0.5069 -0.2978 -1.1005
 7167TIP3    H143136   2.911   0.431   0.057 -1.2997 -0.1802  0.6126
 7167TIP3    H243137   2.884   0.303  -0.019  0.8196 -0.7629  0.8293
 7168TIP3   OH243138   3.013   2.410   6.455 -0.0525  0.0108 -0.4592
 7168TIP3    H143139   3.047   2.417   6.366  1.2449  1.3892  0.1129
 7168TIP3    H243140   2.981   2.320   6.462  0.2378 -0.2393 -2.1703
 7169TIP3   OH243141   3.744   0.381   2.271 -0.3862  0.2500  0.5591
 7169TIP3    H143142   3.761   0.317   2.340 -3.1139  0.2862  1.2971
 7169TIP3    H243143   3.735   0.464   2.318  0.7403  0.7813 -0.1580
 7170TIP3   OH243144   3.429   1.365   0.596 -0.0613  0.2208 -0.8020
 7170TIP3    H143145   3.471   1.295   0.646  0.0098  0.2162 -0.8693
 7170TIP3    H243146   3.399   1.427   0.663  1.4415  1.0022 -0.8428
 7171TIP3   OH243147   5.497   0.588   1.556 -0.7209 -0.1525  0.0187
 7171TIP3    H143148   5.462   0.668   1.517 -2.2230  0.0068  1.6390
 7171TIP3    H243149   5.591   0.604   1.564 -0.9985  1.3899  0.2272
 7172TIP3   OH243150   3.287   6.106   0.914 -0.7689 -0.1220  0.1178
 7172TIP3    H143151   3.287   6.188   0.865 -3.1266  0.4615  1.0070
 7172TIP3    H243152   3.362   6.113   0.973  0.8018  0.0951 -1.8568
 7173TIP3   OH243153   4.729   6.537   1.968 -0.0008 -0.5323 -0.6230
 7173TIP3    H143154   4.776   6.465   2.009 -0.6594 -0.5491  0.1087
 7173TIP3    H243155   4.717   6.601   2.038 -0.0588 -0.0321 -1.0872
 7174TIP3   OH243156   6.560   4.098   1.822  0.6594 -0.4765 -0.1466
 7174TIP3    H143157   6.646   4.058   1.827 -0.3543 -2.9681 -1.6748
 7174TIP3    H243158   6.508   4.054   1.889  0.4568  0.7995  0.5634
 7175TIP3   OH243159   3.736   6.954   0.150 -0.7063  0.3781  0.4843
 7175TIP3    H143160   3.698   6.869   0.172  0.0807  0.1493  0.9846
 7175TIP3    H243161   3.746   6.952   0.055 -0.3330 -0.2475  0.5306
 7176TIP3   OH243162   4.028   6.724   1.803  0.4026  0.7025 -0.2012
 7176TIP3    H143163   4.013   6.666   1.728 -1.1165 -0.0228  0.6382
 7176TIP3    H243164   3.947   6.776   1.809 -0.0316 -0.1424  1.6977
 7177TIP3   OH243165   5.743   6.097   7.925 -0.8926  0.1936 -0.0763
 7177TIP3    H143166   5.745   6.033   7.853 -0.3320  0.0835  0.0337
 7177TIP3    H243167   5.654   6.092   7.958 -0.3484 -1.9338  1.1670
 7178TIP3   OH243168   0.223   3.799   1.229  0.1956  0.2986  0.1030
 7178TIP3    H143169   0.306   3.839   1.201 -0.4323  0.3731 -1.6930
 7178TIP3    H243170   0.156   3.861   1.201 -0.4567  0.5733  2.1558
 7179TIP3   OH243171   5.710   6.314   0.942 -0.2251 -0.1135  0.0975
 7179TIP3    H143172   5.717   6.396   0.895  1.8995  0.3069  1.0651
 7179TIP3    H243173   5.667   6.337   1.024  1.3728  0.2651  0.8459
 7180TIP3   OH243174   0.121   3.418   0.961  0.2857 -0.6374 -0.6690
 7180TIP3    H143175   0.114   3.498   0.910 -0.0866 -0.0266  0.3175
 7180TIP3    H243176   0.036   3.375   0.951  1.0063 -1.6628 -2.4200
 7181TIP3   OH243177   6.600   6.890   0.693 -0.5890 -0.5148 -0.1362
 7181TIP3    H143178   6.640   6.921   0.612  0.0645 -0.8302  0.0645
 7181TIP3    H243179   6.597   6.967   0.750 -0.3261 -0.4739 -0.1773
 7182TIP3   OH243180   4.641   1.008   7.324 -0.0682 -0.7520  0.3965
 7182TIP3    H143181   4.587   0.999   7.245  0.7268  0.5402 -0.3043
 7182TIP3    H243182   4.579   1.033   7.392 -0.7995 -2.0967  0.2600
 7183TIP3   OH243183   0.130   1.051   1.186  0.5173 -0.1832  0.1516
 7183TIP3    H143184   0.184   1.057   1.265  1.0128 -0.1996 -0.1841
 7183TIP3    H243185   0.190   1.020   1.118 -0.4588 -2.4469  0.2916
 7184TIP3   OH243186   0.476   6.958   6.994  0.1969  0.1925  0.1340
 7184TIP3    H143187   0.524   6.984   6.916  0.8387  0.5412  0.6334
 7184TIP3    H243188   0.492   6.864   7.002  1.4314  0.4399  0.7138
 7185TIP3   OH243189   0.198   5.584   0.186 -0.2380  0.0792 -0.3935
 7185TIP3    H143190   0.223   5.518   0.250  0.0943 -0.0316 -0.6369
 7185TIP3    H243191   0.176   5.534   0.107  1.0894  0.3095 -0.9330
 7186TIP3   OH243192   0.640   7.099   1.292 -0.0091  0.1549  0.0293
 7186TIP3    H143193   0.727   7.081   1.255 -0.2013  0.8600 -0.7858
 7186TIP3    H243194   0.653   7.093   1.387  0.7370 -0.6016 -0.1175
 7187TIP3   OH243195   0.288   0.297   1.351 -0.3044 -0.3454  0.1382
 7187TIP3    H143196   0.293   0.301   1.256  0.9737 -0.0745  0.2026
 7187TIP3    H243197   0.218   0.358   1.374  1.2365  1.7516 -0.4846
 7188TIP3   OH243198   5.315   1.887   1.506 -0.3331 -0.1541 -0.2167
 7188TIP3    H143199   5.250   1.949   1.539  0.6635  1.0585 -0.5003
 7188TIP3    H243200   5.331   1.828   1.580 -1.5185 -0.2563 -0.0446
 7189TIP3   OH243201   2.687   6.760   1.218  0.5646 -0.8057  0.0831
 7189TIP3    H143202   2.732   6.761   1.302  0.2640 -0.1945  0.2399
 7189TIP3    H243203   2.718   6.680   1.175  1.1681 -0.8159  0.5276
 7190TIP3   OH243204   0.137   6.393   6.700  0.2431 -0.5556  0.1514
 7190TIP3    H143205   0.155   6.305   6.732 -0.2712 -0.7340 -0.0460
 7190TIP3    H243206   0.166   6.450   6.772  0.4722 -0.8869  0.3261
   7.15694   7.15694   8.12677
