Generated by CHARMM-GUI FF-Converter
43206
    1CHL1    C3    1   3.792   3.967   5.982
    1CHL1    H3    2   3.703   3.902   5.967
    1CHL1    O3    3   3.799   4.005   6.119
    1CHL1   H3'    4   3.716   4.051   6.137
    1CHL1    C4    5   3.920   3.892   5.941
    1CHL1   H4A    6   4.003   3.963   5.963
    1CHL1   H4B    7   3.935   3.805   6.007
    1CHL1    C5    8   3.929   3.854   5.794
    1CHL1    C6    9   3.943   3.727   5.748
    1CHL1    H6   10   3.949   3.644   5.820
    1CHL1    C7   11   3.963   3.690   5.603
    1CHL1   H7A   12   4.051   3.623   5.584
    1CHL1   H7B   13   3.878   3.629   5.566
    1CHL1    C8   14   3.987   3.816   5.517
    1CHL1    H8   15   4.095   3.843   5.526
    1CHL1   C14   16   3.950   3.786   5.375
    1CHL1   H14   17   3.839   3.780   5.368
    1CHL1   C15   18   3.998   3.652   5.320
    1CHL1  H15A   19   4.102   3.628   5.352
    1CHL1  H15B   20   3.934   3.564   5.341
    1CHL1   C16   21   3.988   3.688   5.174
    1CHL1  H16A   22   4.096   3.697   5.149
    1CHL1  H16B   23   3.930   3.616   5.113
    1CHL1   C17   24   3.952   3.832   5.144
    1CHL1   H17   25   3.843   3.833   5.132
    1CHL1   C13   26   3.991   3.895   5.277
    1CHL1   C18   27   4.142   3.912   5.289
    1CHL1  H18A   28   4.196   3.815   5.299
    1CHL1  H18B   29   4.175   3.960   5.196
    1CHL1  H18C   30   4.176   3.977   5.372
    1CHL1   C12   31   3.917   4.024   5.306
    1CHL1  H12A   32   3.960   4.108   5.247
    1CHL1  H12B   33   3.811   4.012   5.277
    1CHL1   C11   34   3.923   4.059   5.455
    1CHL1  H11A   35   4.023   4.106   5.470
    1CHL1  H11B   36   3.845   4.135   5.473
    1CHL1    C9   37   3.904   3.939   5.555
    1CHL1    H9   38   3.799   3.906   5.541
    1CHL1   C10   39   3.921   3.979   5.704
    1CHL1   C19   40   4.054   4.058   5.719
    1CHL1  H19A   41   4.054   4.151   5.659
    1CHL1  H19B   42   4.074   4.091   5.822
    1CHL1  H19C   43   4.140   3.996   5.688
    1CHL1    C1   44   3.800   4.068   5.747
    1CHL1   H1A   45   3.811   4.166   5.694
    1CHL1   H1B   46   3.707   4.020   5.709
    1CHL1    C2   47   3.780   4.095   5.898
    1CHL1   H2A   48   3.680   4.140   5.916
    1CHL1   H2B   49   3.857   4.165   5.935
    1CHL1   C20   50   4.007   3.876   5.008
    1CHL1   H20   51   4.117   3.849   5.011
    1CHL1   C21   52   3.997   4.024   4.980
    1CHL1  H21A   53   4.072   4.083   5.035
    1CHL1  H21B   54   3.894   4.051   5.009
    1CHL1  H21C   55   4.012   4.043   4.871
    1CHL1   C22   56   3.931   3.802   4.889
    1CHL1  H22A   57   3.916   3.696   4.918
    1CHL1  H22B   58   3.837   3.843   4.854
    1CHL1   C23   59   4.009   3.803   4.758
    1CHL1  H23A   60   4.032   3.900   4.711
    1CHL1  H23B   61   4.103   3.814   4.819
    1CHL1   C24   62   3.991   3.675   4.650
    1CHL1  H24A   63   3.982   3.585   4.710
    1CHL1  H24B   64   3.892   3.693   4.607
    1CHL1   C25   65   4.097   3.609   4.532
    1CHL1   H25   66   4.119   3.702   4.474
    1CHL1   C26   67   4.229   3.504   4.558
    1CHL1  H26A   68   4.274   3.502   4.464
    1CHL1  H26B   69   4.328   3.552   4.572
    1CHL1  H26C   70   4.299   3.496   4.639
    1CHL1   C27   71   4.050   3.508   4.438
    1CHL1  H27A   72   3.963   3.544   4.386
    1CHL1  H27B   73   4.131   3.483   4.363
    1CHL1  H27C   74   4.038   3.423   4.510
    2CHL1    C3   75   3.397   3.333   5.980
    2CHL1    H3   76   3.324   3.417   5.971
    2CHL1    O3   77   3.429   3.316   6.118
    2CHL1   H3'   78   3.376   3.244   6.154
    2CHL1    C4   79   3.334   3.206   5.919
    2CHL1   H4A   80   3.401   3.120   5.933
    2CHL1   H4B   81   3.242   3.184   5.979
    2CHL1    C5   82   3.307   3.223   5.771
    2CHL1    C6   83   3.186   3.198   5.718
    2CHL1    H6   84   3.107   3.157   5.782
    2CHL1    C7   85   3.153   3.209   5.572
    2CHL1   H7A   86   3.100   3.119   5.535
    2CHL1   H7B   87   3.087   3.296   5.555
    2CHL1    C8   88   3.282   3.220   5.488
    2CHL1    H8   89   3.329   3.119   5.486
    2CHL1   C14   90   3.245   3.258   5.349
    2CHL1   H14   91   3.192   3.358   5.353
    2CHL1   C15   92   3.149   3.163   5.282
    2CHL1  H15A   93   3.170   3.055   5.289
    2CHL1  H15B   94   3.043   3.178   5.311
    2CHL1   C16   95   3.179   3.211   5.145
    2CHL1  H16A   96   3.164   3.135   5.066
    2CHL1  H16B   97   3.109   3.293   5.145
    2CHL1   C17   98   3.294   3.312   5.125
    2CHL1   H17   99   3.255   3.417   5.134
    2CHL1   C13  100   3.363   3.277   5.253
    2CHL1   C18  101   3.431   3.141   5.223
    2CHL1  H18A  102   3.504   3.150   5.141
    2CHL1  H18B  103   3.485   3.103   5.311
    2CHL1  H18C  104   3.359   3.063   5.190
    2CHL1   C12  105   3.452   3.386   5.308
    2CHL1  H12A  106   3.540   3.401   5.243
    2CHL1  H12B  107   3.394   3.481   5.315
    2CHL1   C11  108   3.499   3.348   5.447
    2CHL1  H11A  109   3.563   3.258   5.437
    2CHL1  H11B  110   3.561   3.433   5.481
    2CHL1    C9  111   3.382   3.319   5.546
    2CHL1    H9  112   3.326   3.416   5.555
    2CHL1   C10  113   3.426   3.277   5.688
    2CHL1   C19  114   3.536   3.168   5.677
    2CHL1  H19A  115   3.560   3.120   5.774
    2CHL1  H19B  116   3.509   3.089   5.604
    2CHL1  H19C  117   3.630   3.217   5.643
    2CHL1    C1  118   3.488   3.401   5.757
    2CHL1   H1A  119   3.577   3.434   5.700
    2CHL1   H1B  120   3.414   3.484   5.753
    2CHL1    C2  121   3.524   3.372   5.904
    2CHL1   H2A  122   3.569   3.460   5.953
    2CHL1   H2B  123   3.596   3.288   5.911
    2CHL1   C20  124   3.369   3.302   4.989
    2CHL1   H20  125   3.387   3.194   4.969
    2CHL1   C21  126   3.499   3.378   4.990
    2CHL1  H21A  127   3.478   3.480   5.028
    2CHL1  H21B  128   3.545   3.384   4.889
    2CHL1  H21C  129   3.569   3.324   5.055
    2CHL1   C22  130   3.289   3.355   4.869
    2CHL1  H22A  131   3.226   3.270   4.880
    2CHL1  H22B  132   3.240   3.452   4.889
    2CHL1   C23  133   3.340   3.328   4.726
    2CHL1  H23A  134   3.425   3.395   4.707
    2CHL1  H23B  135   3.368   3.220   4.720
    2CHL1   C24  136   3.246   3.355   4.607
    2CHL1  H24A  137   3.176   3.273   4.606
    2CHL1  H24B  138   3.188   3.449   4.620
    2CHL1   C25  139   3.317   3.356   4.470
    2CHL1   H25  140   3.388   3.441   4.476
    2CHL1   C26  141   3.395   3.230   4.435
    2CHL1  H26A  142   3.446   3.246   4.338
    2CHL1  H26B  143   3.472   3.209   4.512
    2CHL1  H26C  144   3.327   3.142   4.424
    2CHL1   C27  145   3.222   3.383   4.356
    2CHL1  H27A  146   3.149   3.453   4.395
    2CHL1  H27B  147   3.268   3.423   4.265
    2CHL1  H27C  148   3.164   3.294   4.326
    3CHL1    C3  149   3.038   4.009   5.992
    3CHL1    H3  150   3.146   4.000   6.017
    3CHL1    O3  151   2.970   4.044   6.111
    3CHL1   H3'  152   2.987   3.970   6.173
    3CHL1    C4  153   3.014   4.121   5.889
    3CHL1   H4A  154   2.908   4.150   5.897
    3CHL1   H4B  155   3.073   4.209   5.922
    3CHL1    C5  156   3.045   4.086   5.745
    3CHL1    C6  157   3.121   4.167   5.671
    3CHL1    H6  158   3.162   4.258   5.716
    3CHL1    C7  159   3.147   4.146   5.524
    3CHL1   H7A  160   3.125   4.240   5.470
    3CHL1   H7B  161   3.255   4.126   5.509
    3CHL1    C8  162   3.057   4.032   5.468
    3CHL1    H8  163   2.952   4.068   5.464
    3CHL1   C14  164   3.102   3.984   5.332
    3CHL1   H14  165   3.203   3.941   5.350
    3CHL1   C15  166   3.125   4.086   5.219
    3CHL1  H15A  167   3.045   4.163   5.210
    3CHL1  H15B  168   3.223   4.134   5.237
    3CHL1   C16  169   3.128   4.000   5.093
    3CHL1  H16A  170   3.054   4.032   5.018
    3CHL1  H16B  171   3.229   4.009   5.048
    3CHL1   C17  172   3.091   3.855   5.139
    3CHL1   H17  173   3.186   3.798   5.159
    3CHL1   C13  174   3.021   3.870   5.271
    3CHL1   C18  175   2.874   3.912   5.249
    3CHL1  H18A  176   2.865   4.008   5.195
    3CHL1  H18B  177   2.822   3.835   5.190
    3CHL1  H18C  178   2.819   3.921   5.345
    3CHL1   C12  179   3.039   3.748   5.360
    3CHL1  H12A  180   2.977   3.662   5.326
    3CHL1  H12B  181   3.146   3.717   5.361
    3CHL1   C11  182   2.999   3.782   5.502
    3CHL1  H11A  183   2.888   3.788   5.500
    3CHL1  H11B  184   3.030   3.695   5.562
    3CHL1    C9  185   3.058   3.912   5.562
    3CHL1    H9  186   3.166   3.892   5.583
    3CHL1   C10  187   2.992   3.950   5.696
    3CHL1   C19  188   2.837   3.949   5.687
    3CHL1  H19A  189   2.794   4.004   5.773
    3CHL1  H19B  190   2.795   3.990   5.593
    3CHL1  H19C  191   2.798   3.847   5.697
    3CHL1    C1  192   3.039   3.847   5.801
    3CHL1   H1A  193   3.010   3.745   5.770
    3CHL1   H1B  194   3.150   3.848   5.799
    3CHL1    C2  195   2.985   3.875   5.942
    3CHL1   H2A  196   3.014   3.793   6.011
    3CHL1   H2B  197   2.874   3.876   5.939
    3CHL1   C20  198   3.026   3.778   5.028
    3CHL1   H20  199   2.941   3.834   4.983
    3CHL1   C21  200   2.971   3.639   5.067
    3CHL1  H21A  201   2.942   3.584   4.977
    3CHL1  H21B  202   2.877   3.647   5.125
    3CHL1  H21C  203   3.046   3.579   5.123
    3CHL1   C22  204   3.141   3.771   4.930
    3CHL1  H22A  205   3.204   3.859   4.909
    3CHL1  H22B  206   3.201   3.677   4.948
    3CHL1   C23  207   3.088   3.765   4.795
    3CHL1  H23A  208   3.175   3.722   4.740
    3CHL1  H23B  209   3.035   3.673   4.817
    3CHL1   C24  210   2.999   3.887   4.735
    3CHL1  H24A  211   2.910   3.909   4.793
    3CHL1  H24B  212   3.074   3.970   4.724
    3CHL1   C25  213   2.933   3.886   4.590
    3CHL1   H25  214   3.031   3.863   4.541
    3CHL1   C26  215   2.799   3.831   4.536
    3CHL1  H26A  216   2.717   3.843   4.606
    3CHL1  H26B  217   2.756   3.778   4.448
    3CHL1  H26C  218   2.818   3.731   4.510
    3CHL1   C27  219   2.851   3.981   4.532
    3CHL1  H27A  220   2.944   4.012   4.538
    3CHL1  H27B  221   2.858   3.990   4.428
    3CHL1  H27C  222   2.780   4.045   4.579
    4CHL1    C3  223   3.350   4.701   5.986
    4CHL1    H3  224   3.288   4.794   5.979
    4CHL1    O3  225   3.398   4.685   6.119
    4CHL1   H3'  226   3.393   4.590   6.130
    4CHL1    C4  227   3.272   4.574   5.946
    4CHL1   H4A  228   3.334   4.486   5.973
    4CHL1   H4B  229   3.182   4.568   6.013
    4CHL1    C5  230   3.237   4.569   5.798
    4CHL1    C6  231   3.109   4.551   5.765
    4CHL1    H6  232   3.038   4.530   5.846
    4CHL1    C7  233   3.055   4.546   5.624
    4CHL1   H7A  234   2.989   4.458   5.613
    4CHL1   H7B  235   2.991   4.635   5.604
    4CHL1    C8  236   3.171   4.541   5.520
    4CHL1    H8  237   3.205   4.435   5.515
    4CHL1   C14  238   3.118   4.577   5.385
    4CHL1   H14  239   3.073   4.680   5.391
    4CHL1   C15  240   3.009   4.485   5.337
    4CHL1  H15A  241   3.029   4.377   5.340
    4CHL1  H15B  242   2.906   4.505   5.378
    4CHL1   C16  243   3.018   4.529   5.195
    4CHL1  H16A  244   2.993   4.443   5.129
    4CHL1  H16B  245   2.950   4.615   5.210
    4CHL1   C17  246   3.132   4.619   5.151
    4CHL1   H17  247   3.100   4.727   5.161
    4CHL1   C13  248   3.220   4.585   5.268
    4CHL1   C18  249   3.278   4.446   5.233
    4CHL1  H18A  250   3.354   4.465   5.155
    4CHL1  H18B  251   3.323   4.398   5.321
    4CHL1  H18C  252   3.206   4.374   5.188
    4CHL1   C12  253   3.328   4.686   5.303
    4CHL1  H12A  254   3.403   4.689   5.222
    4CHL1  H12B  255   3.280   4.786   5.312
    4CHL1   C11  256   3.392   4.648   5.437
    4CHL1  H11A  257   3.447   4.553   5.419
    4CHL1  H11B  258   3.468   4.724   5.464
    4CHL1    C9  259   3.288   4.633   5.553
    4CHL1    H9  260   3.241   4.735   5.560
    4CHL1   C10  261   3.346   4.601   5.694
    4CHL1   C19  262   3.440   4.478   5.678
    4CHL1  H19A  263   3.521   4.502   5.606
    4CHL1  H19B  264   3.489   4.452   5.773
    4CHL1  H19C  265   3.387   4.387   5.642
    4CHL1    C1  266   3.428   4.723   5.745
    4CHL1   H1A  267   3.518   4.729   5.680
    4CHL1   H1B  268   3.369   4.815   5.730
    4CHL1    C2  269   3.471   4.713   5.894
    4CHL1   H2A  270   3.529   4.801   5.928
    4CHL1   H2B  271   3.533   4.622   5.908
    4CHL1   C20  272   3.173   4.599   5.002
    4CHL1   H20  273   3.213   4.497   4.988
    4CHL1   C21  274   3.277   4.706   4.967
    4CHL1  H21A  275   3.246   4.805   5.005
    4CHL1  H21B  276   3.289   4.715   4.858
    4CHL1  H21C  277   3.375   4.677   5.009
    4CHL1   C22  278   3.062   4.606   4.895
    4CHL1  H22A  279   2.992   4.520   4.903
    4CHL1  H22B  280   3.012   4.702   4.916
    4CHL1   C23  281   3.109   4.605   4.748
    4CHL1  H23A  282   3.147   4.707   4.719
    4CHL1  H23B  283   3.179   4.522   4.732
    4CHL1   C24  284   3.004   4.580   4.642
    4CHL1  H24A  285   2.936   4.497   4.672
    4CHL1  H24B  286   2.960   4.677   4.663
    4CHL1   C25  287   3.040   4.601   4.491
    4CHL1   H25  288   3.084   4.702   4.480
    4CHL1   C26  289   3.105   4.485   4.444
    4CHL1  H26A  290   3.131   4.495   4.336
    4CHL1  H26B  291   3.183   4.460   4.516
    4CHL1  H26C  292   3.018   4.415   4.451
    4CHL1   C27  293   2.940   4.586   4.377
    4CHL1  H27A  294   2.914   4.688   4.387
    4CHL1  H27B  295   2.945   4.599   4.269
    4CHL1  H27C  296   2.858   4.513   4.402
    5CHL1    C3  297   4.179   4.662   5.988
    5CHL1    H3  298   4.081   4.615   5.959
    5CHL1    O3  299   4.206   4.653   6.127
    5CHL1   H3'  300   4.284   4.713   6.130
    5CHL1    C4  301   4.294   4.616   5.897
    5CHL1   H4A  302   4.381   4.675   5.932
    5CHL1   H4B  303   4.305   4.509   5.921
    5CHL1    C5  304   4.275   4.640   5.747
    5CHL1    C6  305   4.261   4.544   5.659
    5CHL1    H6  306   4.293   4.443   5.689
    5CHL1    C7  307   4.245   4.573   5.513
    5CHL1   H7A  308   4.337   4.536   5.472
    5CHL1   H7B  309   4.157   4.520   5.472
    5CHL1    C8  310   4.254   4.718   5.462
    5CHL1    H8  311   4.361   4.749   5.459
    5CHL1   C14  312   4.189   4.735   5.326
    5CHL1   H14  313   4.082   4.703   5.336
    5CHL1   C15  314   4.251   4.650   5.218
    5CHL1  H15A  315   4.359   4.650   5.243
    5CHL1  H15B  316   4.206   4.550   5.222
    5CHL1   C16  317   4.225   4.724   5.087
    5CHL1  H16A  318   4.322   4.756   5.043
    5CHL1  H16B  319   4.169   4.664   5.013
    5CHL1   C17  320   4.147   4.852   5.125
    5CHL1   H17  321   4.039   4.825   5.124
    5CHL1   C13  322   4.190   4.877   5.270
    5CHL1   C18  323   4.333   4.939   5.273
    5CHL1  H18A  324   4.377   4.940   5.374
    5CHL1  H18B  325   4.403   4.884   5.210
    5CHL1  H18C  326   4.329   5.045   5.240
    5CHL1   C12  327   4.099   4.954   5.360
    5CHL1  H12A  328   4.084   5.061   5.335
    5CHL1  H12B  329   3.999   4.906   5.354
    5CHL1   C11  330   4.170   4.946   5.497
    5CHL1  H11A  331   4.258   5.009   5.507
    5CHL1  H11B  332   4.121   5.015   5.558
    5CHL1    C9  333   4.184   4.802   5.559
    5CHL1    H9  334   4.080   4.759   5.561
    5CHL1   C10  335   4.254   4.782   5.701
    5CHL1   C19  336   4.372   4.879   5.707
    5CHL1  H19A  337   4.339   4.986   5.711
    5CHL1  H19B  338   4.429   4.860   5.800
    5CHL1  H19C  339   4.435   4.866   5.617
    5CHL1    C1  340   4.165   4.814   5.815
    5CHL1   H1A  341   4.172   4.922   5.795
    5CHL1   H1B  342   4.069   4.759   5.798
    5CHL1    C2  343   4.174   4.804   5.964
    5CHL1   H2A  344   4.080   4.834   6.018
    5CHL1   H2B  345   4.254   4.875   5.992
    5CHL1   C20  346   4.179   4.964   5.028
    5CHL1   H20  347   4.288   4.981   5.027
    5CHL1   C21  348   4.122   5.094   5.080
    5CHL1  H21A  349   4.171   5.148   5.161
    5CHL1  H21B  350   4.023   5.070   5.122
    5CHL1  H21C  351   4.117   5.159   4.991
    5CHL1   C22  352   4.138   4.936   4.880
    5CHL1  H22A  353   4.167   4.832   4.856
    5CHL1  H22B  354   4.029   4.936   4.861
    5CHL1   C23  355   4.210   5.031   4.782
    5CHL1  H23A  356   4.160   5.123   4.752
    5CHL1  H23B  357   4.301   5.071   4.830
    5CHL1   C24  358   4.237   4.963   4.649
    5CHL1  H24A  359   4.148   4.903   4.619
    5CHL1  H24B  360   4.257   5.037   4.569
    5CHL1   C25  361   4.359   4.878   4.659
    5CHL1   H25  362   4.347   4.798   4.738
    5CHL1   C26  363   4.370   4.812   4.530
    5CHL1  H26A  364   4.470   4.763   4.549
    5CHL1  H26B  365   4.286   4.739   4.517
    5CHL1  H26C  366   4.388   4.861   4.434
    5CHL1   C27  367   4.492   4.951   4.676
    5CHL1  H27A  368   4.577   4.880   4.673
    5CHL1  H27B  369   4.507   5.026   4.595
    5CHL1  H27C  370   4.493   5.002   4.773
    6CHL1    C3  371   3.015   2.661   5.978
    6CHL1    H3  372   3.066   2.758   5.956
    6CHL1    O3  373   3.025   2.637   6.117
    6CHL1   H3'  374   2.967   2.560   6.134
    6CHL1    C4  375   2.867   2.668   5.940
    6CHL1   H4A  376   2.819   2.569   5.955
    6CHL1   H4B  377   2.818   2.739   6.009
    6CHL1    C5  378   2.852   2.709   5.796
    6CHL1    C6  379   2.787   2.820   5.763
    6CHL1    H6  380   2.733   2.879   5.839
    6CHL1    C7  381   2.780   2.866   5.621
    6CHL1   H7A  382   2.678   2.890   5.595
    6CHL1   H7B  383   2.842   2.958   5.607
    6CHL1    C8  384   2.813   2.756   5.519
    6CHL1    H8  385   2.724   2.688   5.515
    6CHL1   C14  386   2.841   2.817   5.386
    6CHL1   H14  387   2.925   2.891   5.398
    6CHL1   C15  388   2.737   2.902   5.336
    6CHL1  H15A  389   2.640   2.850   5.349
    6CHL1  H15B  390   2.743   2.996   5.392
    6CHL1   C16  391   2.773   2.922   5.192
    6CHL1  H16A  392   2.687   2.899   5.130
    6CHL1  H16B  393   2.805   3.026   5.178
    6CHL1   C17  394   2.881   2.827   5.156
    6CHL1   H17  395   2.971   2.891   5.167
    6CHL1   C13  396   2.871   2.728   5.269
    6CHL1   C18  397   2.754   2.632   5.232
    6CHL1  H18A  398   2.724   2.566   5.316
    6CHL1  H18B  399   2.662   2.685   5.196
    6CHL1  H18C  400   2.788   2.568   5.148
    6CHL1   C12  401   3.001   2.663   5.305
    6CHL1  H12A  402   3.026   2.592   5.225
    6CHL1  H12B  403   3.079   2.742   5.307
    6CHL1   C11  404   2.985   2.592   5.440
    6CHL1  H11A  405   2.908   2.514   5.423
    6CHL1  H11B  406   3.078   2.541   5.468
    6CHL1    C9  407   2.938   2.685   5.556
    6CHL1    H9  408   3.013   2.769   5.564
    6CHL1   C10  409   2.929   2.619   5.696
    6CHL1   C19  410   2.846   2.489   5.684
    6CHL1  H19A  411   2.834   2.439   5.782
    6CHL1  H19B  412   2.745   2.511   5.643
    6CHL1  H19C  413   2.897   2.417   5.617
    6CHL1    C1  414   3.072   2.585   5.746
    6CHL1   H1A  415   3.113   2.501   5.687
    6CHL1   H1B  416   3.133   2.676   5.727
    6CHL1    C2  417   3.081   2.550   5.896
    6CHL1   H2A  418   3.187   2.533   5.929
    6CHL1   H2B  419   3.025   2.457   5.916
    6CHL1   C20  420   2.870   2.775   5.015
    6CHL1   H20  421   2.777   2.716   4.994
    6CHL1   C21  422   2.994   2.692   4.982
    6CHL1  H21A  423   3.017   2.687   4.874
    6CHL1  H21B  424   2.975   2.589   5.016
    6CHL1  H21C  425   3.081   2.735   5.035
    6CHL1   C22  426   2.860   2.886   4.920
    6CHL1  H22A  427   2.776   2.950   4.937
    6CHL1  H22B  428   2.949   2.953   4.921
    6CHL1   C23  429   2.828   2.832   4.789
    6CHL1  H23A  430   2.887   2.748   4.747
    6CHL1  H23B  431   2.718   2.822   4.759
    6CHL1   C24  432   2.880   2.943   4.721
    6CHL1  H24A  433   2.799   3.017   4.747
    6CHL1  H24B  434   2.980   2.990   4.726
    6CHL1   C25  435   2.865   2.884   4.597
    6CHL1   H25  436   2.752   2.908   4.599
    6CHL1   C26  437   2.910   2.975   4.534
    6CHL1  H26A  438   3.001   2.997   4.478
    6CHL1  H26B  439   2.899   2.953   4.431
    6CHL1  H26C  440   2.834   3.053   4.539
    6CHL1   C27  441   2.967   2.801   4.512
    6CHL1  H27A  442   2.974   2.811   4.396
    6CHL1  H27B  443   3.071   2.842   4.531
    6CHL1  H27C  444   2.927   2.705   4.518
    7CHL1    C3  445   4.583   2.637   5.992
    7CHL1    H3  446   4.535   2.736   6.007
    7CHL1    O3  447   4.642   2.589   6.113
    7CHL1   H3'  448   4.716   2.649   6.132
    7CHL1    C4  449   4.480   2.534   5.946
    7CHL1   H4A  450   4.523   2.432   5.941
    7CHL1   H4B  451   4.402   2.530   6.026
    7CHL1    C5  452   4.424   2.574   5.813
    7CHL1    C6  453   4.295   2.597   5.799
    7CHL1    H6  454   4.227   2.576   5.883
    7CHL1    C7  455   4.239   2.631   5.666
    7CHL1   H7A  456   4.151   2.566   5.664
    7CHL1   H7B  457   4.214   2.739   5.660
    7CHL1    C8  458   4.322   2.597   5.542
    7CHL1    H8  459   4.321   2.486   5.534
    7CHL1   C14  460   4.276   2.665   5.412
    7CHL1   H14  461   4.270   2.775   5.423
    7CHL1   C15  462   4.146   2.630   5.356
    7CHL1  H15A  463   4.146   2.529   5.400
    7CHL1  H15B  464   4.046   2.670   5.356
    7CHL1   C16  465   4.131   2.677   5.217
    7CHL1  H16A  466   4.057   2.620   5.156
    7CHL1  H16B  467   4.089   2.782   5.217
    7CHL1   C17  468   4.278   2.686   5.181
    7CHL1   H17  469   4.295   2.796   5.184
    7CHL1   C13  470   4.357   2.624   5.291
    7CHL1   C18  471   4.357   2.469   5.267
    7CHL1  H18A  472   4.256   2.430   5.242
    7CHL1  H18B  473   4.422   2.440   5.182
    7CHL1  H18C  474   4.391   2.414   5.356
    7CHL1   C12  475   4.488   2.693   5.313
    7CHL1  H12A  476   4.554   2.686   5.224
    7CHL1  H12B  477   4.469   2.801   5.332
    7CHL1   C11  478   4.549   2.634   5.439
    7CHL1  H11A  479   4.571   2.527   5.419
    7CHL1  H11B  480   4.640   2.692   5.454
    7CHL1    C9  481   4.461   2.648   5.566
    7CHL1    H9  482   4.447   2.758   5.584
    7CHL1   C10  483   4.522   2.592   5.697
    7CHL1   C19  484   4.579   2.451   5.667
    7CHL1  H19A  485   4.622   2.403   5.758
    7CHL1  H19B  486   4.498   2.386   5.629
    7CHL1  H19C  487   4.660   2.450   5.591
    7CHL1    C1  488   4.626   2.695   5.747
    7CHL1   H1A  489   4.696   2.699   5.662
    7CHL1   H1B  490   4.586   2.798   5.755
    7CHL1    C2  491   4.687   2.657   5.883
    7CHL1   H2A  492   4.766   2.728   5.916
    7CHL1   H2B  493   4.726   2.555   5.872
    7CHL1   C20  494   4.299   2.639   5.045
    7CHL1   H20  495   4.258   2.535   5.030
    7CHL1   C21  496   4.435   2.647   4.982
    7CHL1  H21A  497   4.479   2.746   5.006
    7CHL1  H21B  498   4.428   2.639   4.871
    7CHL1  H21C  499   4.492   2.562   5.022
    7CHL1   C22  500   4.222   2.738   4.972
    7CHL1  H22A  501   4.132   2.782   5.020
    7CHL1  H22B  502   4.268   2.829   4.926
    7CHL1   C23  503   4.165   2.633   4.866
    7CHL1  H23A  504   4.236   2.601   4.786
    7CHL1  H23B  505   4.118   2.550   4.919
    7CHL1   C24  506   4.011   2.640   4.833
    7CHL1  H24A  507   3.972   2.728   4.900
    7CHL1  H24B  508   4.094   2.714   4.837
    7CHL1   C25  509   3.951   2.598   4.659
    7CHL1   H25  510   3.870   2.526   4.664
    7CHL1   C26  511   3.856   2.699   4.554
    7CHL1  H26A  512   3.952   2.703   4.517
    7CHL1  H26B  513   3.830   2.695   4.443
    7CHL1  H26C  514   3.836   2.809   4.560
    7CHL1   C27  515   4.076   2.547   4.555
    7CHL1  H27A  516   4.062   2.516   4.447
    7CHL1  H27B  517   4.160   2.619   4.534
    7CHL1  H27C  518   4.129   2.461   4.591
    8CHL1    C3  519   2.260   2.725   5.988
    8CHL1    H3  520   2.363   2.684   5.992
    8CHL1    O3  521   2.193   2.692   6.109
    8CHL1   H3'  522   2.114   2.748   6.107
    8CHL1    C4  523   2.262   2.877   5.979
    8CHL1   H4A  524   2.159   2.918   5.989
    8CHL1   H4B  525   2.317   2.916   6.067
    8CHL1    C5  526   2.326   2.919   5.849
    8CHL1    C6  527   2.435   2.997   5.849
    8CHL1    H6  528   2.479   3.033   5.943
    8CHL1    C7  529   2.497   3.052   5.726
    8CHL1   H7A  530   2.523   3.159   5.737
    8CHL1   H7B  531   2.594   3.005   5.714
    8CHL1    C8  532   2.404   3.027   5.603
    8CHL1    H8  533   2.326   3.104   5.606
    8CHL1   C14  534   2.476   3.035   5.475
    8CHL1   H14  535   2.545   2.952   5.480
    8CHL1   C15  536   2.565   3.149   5.457
    8CHL1  H15A  537   2.524   3.243   5.488
    8CHL1  H15B  538   2.668   3.140   5.501
    8CHL1   C16  539   2.563   3.161   5.307
    8CHL1  H16A  540   2.555   3.262   5.267
    8CHL1  H16B  541   2.655   3.118   5.275
    8CHL1   C17  542   2.490   3.051   5.241
    8CHL1   H17  543   2.542   2.961   5.240
    8CHL1   C13  544   2.395   3.018   5.346
    8CHL1   C18  545   2.291   3.122   5.332
    8CHL1  H18A  546   2.217   3.113   5.411
    8CHL1  H18B  547   2.331   3.220   5.351
    8CHL1  H18C  548   2.247   3.118   5.231
    8CHL1   C12  549   2.339   2.882   5.336
    8CHL1  H12A  550   2.276   2.883   5.246
    8CHL1  H12B  551   2.423   2.810   5.323
    8CHL1   C11  552   2.258   2.863   5.463
    8CHL1  H11A  553   2.169   2.928   5.456
    8CHL1  H11B  554   2.222   2.760   5.463
    8CHL1    C9  555   2.338   2.891   5.596
    8CHL1    H9  556   2.424   2.819   5.590
    8CHL1   C10  557   2.258   2.862   5.723
    8CHL1   C19  558   2.120   2.931   5.712
    8CHL1  H19A  559   2.052   2.876   5.643
    8CHL1  H19B  560   2.066   2.934   5.808
    8CHL1  H19C  561   2.130   3.035   5.676
    8CHL1    C1  562   2.243   2.708   5.735
    8CHL1   H1A  563   2.179   2.672   5.651
    8CHL1   H1B  564   2.343   2.660   5.724
    8CHL1    C2  565   2.184   2.664   5.869
    8CHL1   H2A  566   2.184   2.554   5.877
    8CHL1   H2B  567   2.079   2.702   5.874
    8CHL1   C20  568   2.486   3.046   5.092
    8CHL1   H20  569   2.389   3.099   5.090
    8CHL1   C21  570   2.464   2.915   5.019
    8CHL1  H21A  571   2.435   2.935   4.914
    8CHL1  H21B  572   2.391   2.855   5.072
    8CHL1  H21C  573   2.558   2.860   5.006
    8CHL1   C22  574   2.609   3.108   5.016
    8CHL1  H22A  575   2.619   3.207   5.064
    8CHL1  H22B  576   2.708   3.080   5.036
    8CHL1   C23  577   2.614   3.098   4.855
    8CHL1  H23A  578   2.611   3.002   4.806
    8CHL1  H23B  579   2.517   3.103   4.834
    8CHL1   C24  580   2.668   3.219   4.769
    8CHL1  H24A  581   2.645   3.317   4.805
    8CHL1  H24B  582   2.752   3.210   4.832
    8CHL1   C25  583   2.682   3.225   4.604
    8CHL1   H25  584   2.698   3.118   4.608
    8CHL1   C26  585   2.578   3.202   4.550
    8CHL1  H26A  586   2.594   3.204   4.442
    8CHL1  H26B  587   2.515   3.130   4.607
    8CHL1  H26C  588   2.538   3.299   4.552
    8CHL1   C27  589   2.756   3.341   4.481
    8CHL1  H27A  590   2.739   3.331   4.380
    8CHL1  H27B  591   2.776   3.451   4.476
    8CHL1  H27C  592   2.855   3.378   4.511
    9CHL1    C3  593   5.412   3.981   5.991
    9CHL1    H3  594   5.374   4.083   5.976
    9CHL1    O3  595   5.422   3.942   6.127
    9CHL1   H3'  596   5.330   3.918   6.145
    9CHL1    C4  597   5.317   3.881   5.924
    9CHL1   H4A  598   5.360   3.784   5.956
    9CHL1   H4B  599   5.214   3.892   5.963
    9CHL1    C5  600   5.309   3.880   5.775
    9CHL1    C6  601   5.202   3.853   5.702
    9CHL1    H6  602   5.111   3.829   5.755
    9CHL1    C7  603   5.203   3.827   5.554
    9CHL1   H7A  604   5.134   3.750   5.518
    9CHL1   H7B  605   5.178   3.920   5.504
    9CHL1    C8  606   5.333   3.780   5.493
    9CHL1    H8  607   5.331   3.669   5.499
    9CHL1   C14  608   5.338   3.812   5.347
    9CHL1   H14  609   5.318   3.921   5.341
    9CHL1   C15  610   5.227   3.756   5.271
    9CHL1  H15A  611   5.224   3.654   5.308
    9CHL1  H15B  612   5.136   3.815   5.283
    9CHL1   C16  613   5.271   3.748   5.131
    9CHL1  H16A  614   5.277   3.638   5.125
    9CHL1  H16B  615   5.195   3.780   5.059
    9CHL1   C17  616   5.404   3.826   5.130
    9CHL1   H17  617   5.384   3.933   5.124
    9CHL1   C13  618   5.460   3.796   5.262
    9CHL1   C18  619   5.503   3.655   5.241
    9CHL1  H18A  620   5.587   3.621   5.180
    9CHL1  H18B  621   5.580   3.666   5.311
    9CHL1  H18C  622   5.430   3.572   5.255
    9CHL1   C12  623   5.560   3.890   5.325
    9CHL1  H12A  624   5.660   3.882   5.278
    9CHL1  H12B  625   5.525   3.993   5.309
    9CHL1   C11  626   5.560   3.866   5.477
    9CHL1  H11A  627   5.648   3.805   5.506
    9CHL1  H11B  628   5.581   3.961   5.526
    9CHL1    C9  629   5.433   3.870   5.557
    9CHL1    H9  630   5.392   3.972   5.533
    9CHL1   C10  631   5.439   3.889   5.712
    9CHL1   C19  632   5.503   3.775   5.759
    9CHL1  H19A  633   5.589   3.762   5.691
    9CHL1  H19B  634   5.542   3.763   5.857
    9CHL1  H19C  635   5.432   3.691   5.762
    9CHL1    C1  636   5.533   3.989   5.779
    9CHL1   H1A  637   5.631   3.959   5.748
    9CHL1   H1B  638   5.511   4.088   5.743
    9CHL1    C2  639   5.549   3.977   5.932
    9CHL1   H2A  640   5.618   4.055   5.966
    9CHL1   H2B  641   5.600   3.885   5.972
    9CHL1   C20  642   5.487   3.802   5.011
    9CHL1   H20  643   5.516   3.696   5.016
    9CHL1   C21  644   5.628   3.848   5.016
    9CHL1  H21A  645   5.672   3.763   5.074
    9CHL1  H21B  646   5.648   3.944   5.063
    9CHL1  H21C  647   5.669   3.850   4.915
    9CHL1   C22  648   5.403   3.850   4.886
    9CHL1  H22A  649   5.295   3.836   4.902
    9CHL1  H22B  650   5.444   3.947   4.859
    9CHL1   C23  651   5.405   3.765   4.761
    9CHL1  H23A  652   5.504   3.749   4.801
    9CHL1  H23B  653   5.340   3.679   4.772
    9CHL1   C24  654   5.378   3.780   4.603
    9CHL1  H24A  655   5.283   3.715   4.602
    9CHL1  H24B  656   5.347   3.882   4.616
    9CHL1   C25  657   5.469   3.732   4.462
    9CHL1   H25  658   5.528   3.643   4.488
    9CHL1   C26  659   5.383   3.751   4.341
    9CHL1  H26A  660   5.280   3.716   4.357
    9CHL1  H26B  661   5.377   3.859   4.327
    9CHL1  H26C  662   5.432   3.695   4.256
    9CHL1   C27  663   5.606   3.747   4.376
    9CHL1  H27A  664   5.585   3.847   4.346
    9CHL1  H27B  665   5.705   3.745   4.420
    9CHL1  H27C  666   5.641   3.687   4.292
   10CHL1    C3  667   4.586   5.352   5.991
   10CHL1    H3  668   4.621   5.253   5.957
   10CHL1    O3  669   4.519   5.335   6.114
   10CHL1   H3'  670   4.585   5.295   6.174
   10CHL1    C4  671   4.705   5.443   6.013
   10CHL1   H4A  672   4.678   5.533   6.071
   10CHL1   H4B  673   4.778   5.385   6.077
   10CHL1    C5  674   4.762   5.499   5.885
   10CHL1    C6  675   4.887   5.504   5.869
   10CHL1    H6  676   4.932   5.434   5.943
   10CHL1    C7  677   4.957   5.552   5.740
   10CHL1   H7A  678   5.060   5.577   5.743
   10CHL1   H7B  679   4.974   5.481   5.659
   10CHL1    C8  680   4.884   5.620   5.637
   10CHL1    H8  681   4.885   5.719   5.682
   10CHL1   C14  682   4.957   5.628   5.503
   10CHL1   H14  683   4.923   5.547   5.451
   10CHL1   C15  684   5.111   5.621   5.483
   10CHL1  H15A  685   5.136   5.689   5.563
   10CHL1  H15B  686   5.181   5.534   5.499
   10CHL1   C16  687   5.111   5.659   5.335
   10CHL1  H16A  688   5.134   5.762   5.325
   10CHL1  H16B  689   5.180   5.605   5.269
   10CHL1   C17  690   4.967   5.666   5.273
   10CHL1   H17  691   4.928   5.575   5.225
   10CHL1   C13  692   4.885   5.699   5.394
   10CHL1   C18  693   4.901   5.840   5.438
   10CHL1  H18A  694   4.857   5.902   5.360
   10CHL1  H18B  695   4.852   5.850   5.536
   10CHL1  H18C  696   5.007   5.861   5.457
   10CHL1   C12  697   4.740   5.647   5.388
   10CHL1  H12A  698   4.686   5.722   5.328
   10CHL1  H12B  699   4.736   5.547   5.338
   10CHL1   C11  700   4.674   5.639   5.526
   10CHL1  H11A  701   4.680   5.740   5.570
   10CHL1  H11B  702   4.569   5.609   5.520
   10CHL1    C9  703   4.749   5.553   5.628
   10CHL1    H9  704   4.754   5.448   5.587
   10CHL1   C10  705   4.681   5.541   5.768
   10CHL1   C19  706   4.644   5.682   5.818
   10CHL1  H19A  707   4.731   5.751   5.811
   10CHL1  H19B  708   4.564   5.716   5.751
   10CHL1  H19C  709   4.609   5.686   5.923
   10CHL1    C1  710   4.566   5.440   5.754
   10CHL1   H1A  711   4.496   5.481   5.679
   10CHL1   H1B  712   4.606   5.343   5.715
   10CHL1    C2  713   4.492   5.410   5.885
   10CHL1   H2A  714   4.412   5.336   5.865
   10CHL1   H2B  715   4.446   5.504   5.922
   10CHL1   C20  716   4.966   5.738   5.145
   10CHL1   H20  717   5.013   5.834   5.175
   10CHL1   C21  718   4.837   5.774   5.084
   10CHL1  H21A  719   4.787   5.681   5.051
   10CHL1  H21B  720   4.865   5.837   4.996
   10CHL1  H21C  721   4.782   5.830   5.161
   10CHL1   C22  722   5.037   5.655   5.033
   10CHL1  H22A  723   5.048   5.735   4.959
   10CHL1  H22B  724   5.135   5.623   5.067
   10CHL1   C23  725   4.975   5.545   4.952
   10CHL1  H23A  726   4.947   5.467   5.024
   10CHL1  H23B  727   4.894   5.599   4.901
   10CHL1   C24  728   5.050   5.480   4.836
   10CHL1  H24A  729   5.135   5.425   4.875
   10CHL1  H24B  730   4.984   5.407   4.787
   10CHL1   C25  731   5.104   5.572   4.729
   10CHL1   H25  732   5.200   5.602   4.777
   10CHL1   C26  733   5.162   5.506   4.609
   10CHL1  H26A  734   5.229   5.454   4.678
   10CHL1  H26B  735   5.098   5.442   4.548
   10CHL1  H26C  736   5.243   5.548   4.547
   10CHL1   C27  737   5.016   5.681   4.676
   10CHL1  H27A  738   5.002   5.759   4.754
   10CHL1  H27B  739   5.059   5.727   4.586
   10CHL1  H27C  740   4.924   5.638   4.634
   11CHL1    C3  741   2.645   1.975   5.986
   11CHL1    H3  742   2.561   1.900   5.979
   11CHL1    O3  743   2.677   1.986   6.123
   11CHL1   H3'  744   2.590   1.988   6.164
   11CHL1    C4  745   2.766   1.923   5.906
   11CHL1   H4A  746   2.852   1.992   5.921
   11CHL1   H4B  747   2.797   1.826   5.950
   11CHL1    C5  748   2.733   1.910   5.758
   11CHL1    C6  749   2.751   1.793   5.694
   11CHL1    H6  750   2.804   1.709   5.743
   11CHL1    C7  751   2.706   1.773   5.552
   11CHL1   H7A  752   2.766   1.697   5.499
   11CHL1   H7B  753   2.600   1.737   5.557
   11CHL1    C8  754   2.700   1.907   5.475
   11CHL1    H8  755   2.801   1.952   5.469
   11CHL1   C14  756   2.655   1.888   5.332
   11CHL1   H14  757   2.556   1.838   5.337
   11CHL1   C15  758   2.744   1.801   5.244
   11CHL1  H15A  759   2.851   1.821   5.253
   11CHL1  H15B  760   2.740   1.693   5.269
   11CHL1   C16  761   2.695   1.847   5.105
   11CHL1  H16A  762   2.764   1.843   5.021
   11CHL1  H16B  763   2.614   1.787   5.077
   11CHL1   C17  764   2.600   1.967   5.115
   11CHL1   H17  765   2.498   1.935   5.126
   11CHL1   C13  766   2.636   2.018   5.251
   11CHL1   C18  767   2.767   2.094   5.226
   11CHL1  H18A  768   2.832   2.045   5.150
   11CHL1  H18B  769   2.738   2.193   5.187
   11CHL1  H18C  770   2.826   2.107   5.318
   11CHL1   C12  771   2.530   2.101   5.320
   11CHL1  H12A  772   2.507   2.191   5.263
   11CHL1  H12B  773   2.435   2.055   5.312
   11CHL1   C11  774   2.567   2.127   5.466
   11CHL1  H11A  775   2.655   2.194   5.456
   11CHL1  H11B  776   2.485   2.181   5.517
   11CHL1    C9  777   2.607   2.003   5.551
   11CHL1    H9  778   2.511   1.949   5.566
   11CHL1   C10  779   2.667   2.034   5.692
   11CHL1   C19  780   2.780   2.138   5.675
   11CHL1  H19A  781   2.825   2.164   5.773
   11CHL1  H19B  782   2.859   2.106   5.605
   11CHL1  H19C  783   2.736   2.233   5.638
   11CHL1    C1  784   2.561   2.097   5.786
   11CHL1   H1A  785   2.520   2.191   5.743
   11CHL1   H1B  786   2.482   2.026   5.795
   11CHL1    C2  787   2.593   2.110   5.935
   11CHL1   H2A  788   2.498   2.133   5.990
   11CHL1   H2B  789   2.662   2.194   5.951
   11CHL1   C20  790   2.592   2.046   4.985
   11CHL1   H20  791   2.698   2.067   4.960
   11CHL1   C21  792   2.509   2.172   5.002
   11CHL1  H21A  793   2.411   2.150   5.049
   11CHL1  H21B  794   2.493   2.215   4.901
   11CHL1  H21C  795   2.564   2.247   5.062
   11CHL1   C22  796   2.532   1.968   4.865
   11CHL1  H22A  797   2.573   1.870   4.870
   11CHL1  H22B  798   2.422   1.955   4.874
   11CHL1   C23  799   2.572   2.022   4.725
   11CHL1  H23A  800   2.513   2.113   4.707
   11CHL1  H23B  801   2.681   2.046   4.726
   11CHL1   C24  802   2.550   1.920   4.612
   11CHL1  H24A  803   2.620   1.836   4.625
   11CHL1  H24B  804   2.444   1.890   4.624
   11CHL1   C25  805   2.567   1.960   4.464
   11CHL1   H25  806   2.507   2.053   4.452
   11CHL1   C26  807   2.710   1.991   4.428
   11CHL1  H26A  808   2.776   1.902   4.442
   11CHL1  H26B  809   2.713   2.019   4.320
   11CHL1  H26C  810   2.744   2.073   4.493
   11CHL1   C27  811   2.519   1.854   4.363
   11CHL1  H27A  812   2.597   1.781   4.337
   11CHL1  H27B  813   2.430   1.802   4.403
   11CHL1  H27C  814   2.490   1.900   4.267
   12CHL1    C3  815   5.042   1.944   5.981
   12CHL1    H3  816   5.000   2.043   5.964
   12CHL1    O3  817   5.039   1.923   6.121
   12CHL1   H3'  818   5.063   2.005   6.164
   12CHL1    C4  819   4.941   1.857   5.906
   12CHL1   H4A  820   4.948   1.753   5.944
   12CHL1   H4B  821   4.843   1.898   5.940
   12CHL1    C5  822   4.953   1.854   5.755
   12CHL1    C6  823   4.846   1.858   5.675
   12CHL1    H6  824   4.748   1.861   5.724
   12CHL1    C7  825   4.850   1.845   5.524
   12CHL1   H7A  826   4.775   1.772   5.486
   12CHL1   H7B  827   4.825   1.943   5.478
   12CHL1    C8  828   4.988   1.803   5.470
   12CHL1    H8  829   4.997   1.693   5.488
   12CHL1   C14  830   4.994   1.840   5.320
   12CHL1   H14  831   4.986   1.950   5.313
   12CHL1   C15  832   4.888   1.781   5.223
   12CHL1  H15A  833   4.860   1.675   5.243
   12CHL1  H15B  834   4.798   1.844   5.226
   12CHL1   C16  835   4.954   1.787   5.084
   12CHL1  H16A  836   4.952   1.685   5.037
   12CHL1  H16B  837   4.905   1.858   5.016
   12CHL1   C17  838   5.101   1.834   5.105
   12CHL1   H17  839   5.106   1.944   5.094
   12CHL1   C13  840   5.124   1.812   5.253
   12CHL1   C18  841   5.120   1.670   5.268
   12CHL1  H18A  842   5.181   1.625   5.199
   12CHL1  H18B  843   5.176   1.673   5.358
   12CHL1  H18C  844   5.037   1.600   5.284
   12CHL1   C12  845   5.244   1.878   5.329
   12CHL1  H12A  846   5.343   1.845   5.291
   12CHL1  H12B  847   5.235   1.987   5.311
   12CHL1   C11  848   5.243   1.853   5.483
   12CHL1  H11A  849   5.278   1.750   5.504
   12CHL1  H11B  850   5.318   1.918   5.530
   12CHL1    C9  851   5.102   1.874   5.546
   12CHL1    H9  852   5.083   1.983   5.532
   12CHL1   C10  853   5.095   1.852   5.700
   12CHL1   C19  854   5.151   1.723   5.734
   12CHL1  H19A  855   5.262   1.717   5.728
   12CHL1  H19B  856   5.119   1.682   5.832
   12CHL1  H19C  857   5.113   1.660   5.656
   12CHL1    C1  858   5.189   1.943   5.775
   12CHL1   H1A  859   5.293   1.929   5.738
   12CHL1   H1B  860   5.146   2.037   5.743
   12CHL1    C2  861   5.184   1.927   5.928
   12CHL1   H2A  862   5.252   2.000   5.978
   12CHL1   H2B  863   5.222   1.827   5.957
   12CHL1   C20  864   5.189   1.773   4.995
   12CHL1   H20  865   5.170   1.663   4.984
   12CHL1   C21  866   5.339   1.786   5.024
   12CHL1  H21A  867   5.373   1.891   5.035
   12CHL1  H21B  868   5.399   1.734   4.945
   12CHL1  H21C  869   5.360   1.735   5.120
   12CHL1   C22  870   5.147   1.841   4.865
   12CHL1  H22A  871   5.049   1.799   4.833
   12CHL1  H22B  872   5.130   1.950   4.883
   12CHL1   C23  873   5.249   1.828   4.754
   12CHL1  H23A  874   5.338   1.891   4.773
   12CHL1  H23B  875   5.276   1.721   4.737
   12CHL1   C24  876   5.193   1.884   4.632
   12CHL1  H24A  877   5.154   1.987   4.656
   12CHL1  H24B  878   5.266   1.899   4.548
   12CHL1   C25  879   5.081   1.799   4.582
   12CHL1   H25  880   5.005   1.750   4.647
   12CHL1   C26  881   4.991   1.924   4.544
   12CHL1  H26A  882   5.080   1.961   4.481
   12CHL1  H26B  883   4.923   1.850   4.501
   12CHL1  H26C  884   4.971   2.007   4.474
   12CHL1   C27  885   5.142   1.674   4.502
   12CHL1  H27A  886   5.239   1.701   4.455
   12CHL1  H27B  887   5.167   1.589   4.570
   12CHL1  H27C  888   5.081   1.628   4.421
   13CHL1    C3  889   3.838   1.180   5.986
   13CHL1    H3  890   3.761   1.248   5.941
   13CHL1    O3  891   3.868   1.221   6.118
   13CHL1   H3'  892   3.925   1.300   6.109
   13CHL1    C4  893   3.782   1.038   5.993
   13CHL1   H4A  894   3.850   0.972   6.051
   13CHL1   H4B  895   3.689   1.047   6.051
   13CHL1    C5  896   3.765   0.980   5.854
   13CHL1    C6  897   3.657   0.921   5.810
   13CHL1    H6  898   3.578   0.908   5.882
   13CHL1    C7  899   3.629   0.872   5.671
   13CHL1   H7A  900   3.560   0.786   5.674
   13CHL1   H7B  901   3.585   0.951   5.603
   13CHL1    C8  902   3.748   0.845   5.592
   13CHL1    H8  903   3.787   0.753   5.640
   13CHL1   C14  904   3.706   0.824   5.448
   13CHL1   H14  905   3.662   0.921   5.410
   13CHL1   C15  906   3.602   0.715   5.410
   13CHL1  H15A  907   3.592   0.633   5.483
   13CHL1  H15B  908   3.502   0.760   5.397
   13CHL1   C16  909   3.654   0.662   5.275
   13CHL1  H16A  910   3.685   0.556   5.282
   13CHL1  H16B  911   3.575   0.665   5.203
   13CHL1   C17  912   3.768   0.758   5.230
   13CHL1   H17  913   3.715   0.848   5.191
   13CHL1   C13  914   3.829   0.800   5.365
   13CHL1   C18  915   3.903   0.677   5.425
   13CHL1  H18A  916   3.989   0.652   5.363
   13CHL1  H18B  917   3.941   0.696   5.528
   13CHL1  H18C  918   3.835   0.589   5.433
   13CHL1   C12  919   3.913   0.929   5.371
   13CHL1  H12A  920   4.006   0.914   5.316
   13CHL1  H12B  921   3.856   1.013   5.324
   13CHL1   C11  922   3.955   0.969   5.513
   13CHL1  H11A  923   4.031   0.898   5.548
   13CHL1  H11B  924   4.003   1.069   5.510
   13CHL1    C9  925   3.837   0.967   5.610
   13CHL1    H9  926   3.775   1.058   5.582
   13CHL1   C10  927   3.877   0.987   5.758
   13CHL1   C19  928   3.959   0.866   5.809
   13CHL1  H19A  929   3.898   0.773   5.820
   13CHL1  H19B  930   4.041   0.843   5.740
   13CHL1  H19C  931   4.002   0.891   5.908
   13CHL1    C1  932   3.950   1.121   5.768
   13CHL1   H1A  933   4.052   1.105   5.728
   13CHL1   H1B  934   3.894   1.194   5.706
   13CHL1    C2  935   3.967   1.180   5.907
   13CHL1   H2A  936   4.005   1.283   5.893
   13CHL1   H2B  937   4.041   1.118   5.961
   13CHL1   C20  938   3.859   0.704   5.118
   13CHL1   H20  939   3.913   0.614   5.155
   13CHL1   C21  940   3.965   0.809   5.077
   13CHL1  H21A  941   4.040   0.818   5.157
   13CHL1  H21B  942   3.916   0.907   5.058
   13CHL1  H21C  943   4.022   0.780   4.986
   13CHL1   C22  944   3.788   0.660   4.988
   13CHL1  H22A  945   3.866   0.638   4.911
   13CHL1  H22B  946   3.737   0.565   5.011
   13CHL1   C23  947   3.688   0.761   4.928
   13CHL1  H23A  948   3.606   0.769   5.002
   13CHL1  H23B  949   3.731   0.862   4.919
   13CHL1   C24  950   3.635   0.725   4.786
   13CHL1  H24A  951   3.719   0.702   4.717
   13CHL1  H24B  952   3.585   0.627   4.799
   13CHL1   C25  953   3.548   0.841   4.722
   13CHL1   H25  954   3.606   0.931   4.707
   13CHL1   C26  955   3.504   0.816   4.574
   13CHL1  H26A  956   3.403   0.848   4.536
   13CHL1  H26B  957   3.564   0.750   4.510
   13CHL1  H26C  958   3.457   0.733   4.603
   13CHL1   C27  959   3.441   0.893   4.819
   13CHL1  H27A  960   3.363   0.822   4.818
   13CHL1  H27B  961   3.458   0.898   4.928
   13CHL1  H27C  962   3.355   0.941   4.787
   14CHL1    C3  963   2.656   6.312   5.984
   14CHL1    H3  964   2.732   6.233   5.964
   14CHL1    O3  965   2.640   6.329   6.123
   14CHL1   H3'  966   2.727   6.352   6.156
   14CHL1    C4  967   2.704   6.441   5.921
   14CHL1   H4A  968   2.636   6.522   5.959
   14CHL1   H4B  969   2.805   6.471   5.958
   14CHL1    C5  970   2.700   6.425   5.768
   14CHL1    C6  971   2.805   6.447   5.686
   14CHL1    H6  972   2.894   6.489   5.733
   14CHL1    C7  973   2.794   6.463   5.535
   14CHL1   H7A  974   2.866   6.534   5.489
   14CHL1   H7B  975   2.824   6.374   5.481
   14CHL1    C8  976   2.649   6.499   5.495
   14CHL1    H8  977   2.608   6.598   5.530
   14CHL1   C14  978   2.646   6.500   5.345
   14CHL1   H14  979   2.691   6.403   5.314
   14CHL1   C15  980   2.722   6.609   5.267
   14CHL1  H15A  981   2.698   6.709   5.310
   14CHL1  H15B  982   2.830   6.588   5.261
   14CHL1   C16  983   2.666   6.602   5.129
   14CHL1  H16A  984   2.620   6.700   5.099
   14CHL1  H16B  985   2.738   6.569   5.051
   14CHL1   C17  986   2.555   6.499   5.144
   14CHL1   H17  987   2.589   6.395   5.121
   14CHL1   C13  988   2.510   6.493   5.289
   14CHL1   C18  989   2.427   6.618   5.324
   14CHL1  H18A  990   2.467   6.706   5.273
   14CHL1  H18B  991   2.323   6.611   5.288
   14CHL1  H18C  992   2.424   6.636   5.433
   14CHL1   C12  993   2.453   6.361   5.344
   14CHL1  H12A  994   2.355   6.345   5.307
   14CHL1  H12B  995   2.509   6.275   5.306
   14CHL1   C11  996   2.435   6.362   5.492
   14CHL1  H11A  997   2.366   6.445   5.517
   14CHL1  H11B  998   2.388   6.267   5.524
   14CHL1    C9  999   2.568   6.386   5.557
   14CHL1    H9 1000   2.626   6.295   5.535
   14CHL1   C10 1001   2.563   6.396   5.709
   14CHL1   C19 1002   2.454   6.494   5.738
   14CHL1  H19A 1003   2.450   6.569   5.659
   14CHL1  H19B 1004   2.352   6.451   5.723
   14CHL1  H19C 1005   2.458   6.540   5.838
   14CHL1    C1 1006   2.516   6.267   5.773
   14CHL1   H1A 1007   2.412   6.247   5.740
   14CHL1   H1B 1008   2.582   6.188   5.732
   14CHL1    C2 1009   2.520   6.275   5.926
   14CHL1   H2A 1010   2.491   6.177   5.966
   14CHL1   H2B 1011   2.447   6.353   5.960
   14CHL1   C20 1012   2.458   6.534   5.047
   14CHL1   H20 1013   2.410   6.633   5.065
   14CHL1   C21 1014   2.370   6.415   5.087
   14CHL1  H21A 1015   2.381   6.305   5.081
   14CHL1  H21B 1016   2.311   6.368   5.020
   14CHL1  H21C 1017   2.281   6.463   5.127
   14CHL1   C22 1018   2.521   6.556   4.906
   14CHL1  H22A 1019   2.625   6.580   4.889
   14CHL1  H22B 1020   2.537   6.446   4.895
   14CHL1   C23 1021   2.447   6.644   4.794
   14CHL1  H23A 1022   2.339   6.650   4.783
   14CHL1  H23B 1023   2.469   6.748   4.788
   14CHL1   C24 1024   2.475   6.591   4.655
   14CHL1  H24A 1025   2.574   6.622   4.621
   14CHL1  H24B 1026   2.521   6.492   4.671
   14CHL1   C25 1027   2.362   6.592   4.545
   14CHL1   H25 1028   2.348   6.695   4.527
   14CHL1   C26 1029   2.481   6.537   4.424
   14CHL1  H26A 1030   2.501   6.431   4.397
   14CHL1  H26B 1031   2.452   6.520   4.320
   14CHL1  H26C 1032   2.575   6.589   4.415
   14CHL1   C27 1033   2.175   6.576   4.566
   14CHL1  H27A 1034   2.156   6.472   4.544
   14CHL1  H27B 1035   2.107   6.534   4.641
   14CHL1  H27C 1036   2.094   6.562   4.492
   15CHL1    C3 1037   1.402   5.557   5.984
   15CHL1    H3 1038   1.301   5.603   5.975
   15CHL1    O3 1039   1.427   5.538   6.122
   15CHL1   H3' 1040   1.356   5.592   6.162
   15CHL1    C4 1041   1.405   5.421   5.916
   15CHL1   H4A 1042   1.508   5.381   5.929
   15CHL1   H4B 1043   1.335   5.354   5.971
   15CHL1    C5 1044   1.371   5.433   5.769
   15CHL1    C6 1045   1.266   5.369   5.713
   15CHL1    H6 1046   1.203   5.301   5.773
   15CHL1    C7 1047   1.235   5.374   5.566
   15CHL1   H7A 1048   1.228   5.271   5.528
   15CHL1   H7B 1049   1.137   5.423   5.546
   15CHL1    C8 1050   1.349   5.439   5.483
   15CHL1    H8 1051   1.427   5.359   5.470
   15CHL1   C14 1052   1.296   5.491   5.350
   15CHL1   H14 1053   1.221   5.570   5.374
   15CHL1   C15 1054   1.218   5.396   5.264
   15CHL1  H15A 1055   1.292   5.319   5.284
   15CHL1  H15B 1056   1.119   5.363   5.300
   15CHL1   C16 1057   1.224   5.451   5.121
   15CHL1  H16A 1058   1.255   5.382   5.041
   15CHL1  H16B 1059   1.124   5.486   5.093
   15CHL1   C17 1060   1.326   5.566   5.124
   15CHL1   H17 1061   1.259   5.654   5.138
   15CHL1   C13 1062   1.403   5.547   5.256
   15CHL1   C18 1063   1.517   5.444   5.228
   15CHL1  H18A 1064   1.588   5.490   5.156
   15CHL1  H18B 1065   1.575   5.416   5.317
   15CHL1  H18C 1066   1.479   5.350   5.183
   15CHL1   C12 1067   1.450   5.675   5.326
   15CHL1  H12A 1068   1.529   5.728   5.270
   15CHL1  H12B 1069   1.363   5.742   5.341
   15CHL1   C11 1070   1.506   5.640   5.463
   15CHL1  H11A 1071   1.595   5.578   5.440
   15CHL1  H11B 1072   1.542   5.732   5.513
   15CHL1    C9 1073   1.407   5.560   5.553
   15CHL1    H9 1074   1.318   5.625   5.568
   15CHL1   C10 1075   1.464   5.530   5.692
   15CHL1   C19 1076   1.606   5.469   5.675
   15CHL1  H19A 1077   1.605   5.372   5.623
   15CHL1  H19B 1078   1.674   5.535   5.617
   15CHL1  H19C 1079   1.653   5.457   5.775
   15CHL1    C1 1080   1.474   5.666   5.770
   15CHL1   H1A 1081   1.553   5.730   5.725
   15CHL1   H1B 1082   1.377   5.719   5.758
   15CHL1    C2 1083   1.503   5.655   5.921
   15CHL1   H2A 1084   1.489   5.754   5.969
   15CHL1   H2B 1085   1.609   5.625   5.936
   15CHL1   C20 1086   1.404   5.585   4.993
   15CHL1   H20 1087   1.481   5.505   4.979
   15CHL1   C21 1088   1.479   5.721   4.995
   15CHL1  H21A 1089   1.561   5.719   5.070
   15CHL1  H21B 1090   1.408   5.802   5.019
   15CHL1  H21C 1091   1.525   5.743   4.897
   15CHL1   C22 1092   1.315   5.578   4.867
   15CHL1  H22A 1093   1.241   5.496   4.874
   15CHL1  H22B 1094   1.259   5.673   4.854
   15CHL1   C23 1095   1.399   5.553   4.741
   15CHL1  H23A 1096   1.463   5.642   4.724
   15CHL1  H23B 1097   1.464   5.465   4.759
   15CHL1   C24 1098   1.314   5.530   4.616
   15CHL1  H24A 1099   1.265   5.433   4.630
   15CHL1  H24B 1100   1.234   5.607   4.608
   15CHL1   C25 1101   1.396   5.522   4.487
   15CHL1   H25 1102   1.488   5.462   4.507
   15CHL1   C26 1103   1.321   5.458   4.369
   15CHL1  H26A 1104   1.257   5.371   4.397
   15CHL1  H26B 1105   1.256   5.535   4.322
   15CHL1  H26C 1106   1.396   5.425   4.294
   15CHL1   C27 1107   1.428   5.664   4.441
   15CHL1  H27A 1108   1.331   5.715   4.426
   15CHL1  H27B 1109   1.486   5.721   4.517
   15CHL1  H27C 1110   1.482   5.664   4.344
   16CHL1    C3 1111   1.063   2.071   5.977
   16CHL1    H3 1112   1.166   2.051   5.941
   16CHL1    O3 1113   1.062   2.053   6.118
   16CHL1   H3' 1114   1.133   2.110   6.149
   16CHL1    C4 1115   1.014   2.209   5.945
   16CHL1   H4A 1116   0.912   2.215   5.986
   16CHL1   H4B 1117   1.077   2.283   5.997
   16CHL1    C5 1118   1.014   2.225   5.794
   16CHL1    C6 1119   1.090   2.320   5.740
   16CHL1    H6 1120   1.137   2.392   5.808
   16CHL1    C7 1121   1.080   2.356   5.595
   16CHL1   H7A 1122   1.061   2.465   5.581
   16CHL1   H7B 1123   1.175   2.335   5.545
   16CHL1    C8 1124   0.966   2.278   5.522
   16CHL1    H8 1125   0.870   2.307   5.566
   16CHL1   C14 1126   0.983   2.299   5.372
   16CHL1   H14 1127   1.079   2.245   5.356
   16CHL1   C15 1128   1.010   2.439   5.309
   16CHL1  H15A 1129   0.964   2.526   5.353
   16CHL1  H15B 1130   1.114   2.472   5.318
   16CHL1   C16 1131   0.957   2.428   5.167
   16CHL1  H16A 1132   0.860   2.481   5.154
   16CHL1  H16B 1133   1.031   2.469   5.096
   16CHL1   C17 1134   0.932   2.279   5.142
   16CHL1   H17 1135   1.029   2.233   5.116
   16CHL1   C13 1136   0.886   2.227   5.279
   16CHL1   C18 1137   0.745   2.279   5.297
   16CHL1  H18A 1138   0.716   2.249   5.397
   16CHL1  H18B 1139   0.727   2.387   5.278
   16CHL1  H18C 1140   0.673   2.231   5.235
   16CHL1   C12 1141   0.887   2.078   5.313
   16CHL1  H12A 1142   0.805   2.025   5.261
   16CHL1  H12B 1143   0.981   2.033   5.278
   16CHL1   C11 1144   0.866   2.052   5.464
   16CHL1  H11A 1145   0.762   2.077   5.482
   16CHL1  H11B 1146   0.873   1.944   5.484
   16CHL1    C9 1147   0.957   2.134   5.560
   16CHL1    H9 1148   1.059   2.096   5.546
   16CHL1   C10 1149   0.927   2.125   5.712
   16CHL1   C19 1150   0.776   2.137   5.744
   16CHL1  H19A 1151   0.727   2.050   5.697
   16CHL1  H19B 1152   0.750   2.138   5.852
   16CHL1  H19C 1153   0.726   2.221   5.699
   16CHL1    C1 1154   0.968   1.986   5.754
   16CHL1   H1A 1155   0.905   1.908   5.706
   16CHL1   H1B 1156   1.072   1.968   5.719
   16CHL1    C2 1157   0.972   1.974   5.905
   16CHL1   H2A 1158   1.040   1.888   5.910
   16CHL1   H2B 1159   0.871   1.962   5.952
   16CHL1   C20 1160   0.840   2.256   5.026
   16CHL1   H20 1161   0.738   2.296   5.051
   16CHL1   C21 1162   0.841   2.107   4.999
   16CHL1  H21A 1163   0.780   2.076   5.083
   16CHL1  H21B 1164   0.923   2.039   5.021
   16CHL1  H21C 1165   0.792   2.082   4.901
   16CHL1   C22 1166   0.876   2.323   4.896
   16CHL1  H22A 1167   0.914   2.421   4.920
   16CHL1  H22B 1168   0.960   2.270   4.848
   16CHL1   C23 1169   0.753   2.339   4.809
   16CHL1  H23A 1170   0.740   2.240   4.758
   16CHL1  H23B 1171   0.662   2.376   4.860
   16CHL1   C24 1172   0.764   2.446   4.704
   16CHL1  H24A 1173   0.769   2.544   4.741
   16CHL1  H24B 1174   0.863   2.414   4.665
   16CHL1   C25 1175   0.639   2.495   4.625
   16CHL1   H25 1176   0.554   2.522   4.689
   16CHL1   C26 1177   0.637   2.595   4.506
   16CHL1  H26A 1178   0.659   2.687   4.552
   16CHL1  H26B 1179   0.708   2.580   4.423
   16CHL1  H26C 1180   0.554   2.606   4.434
   16CHL1   C27 1181   0.591   2.377   4.590
   16CHL1  H27A 1182   0.502   2.393   4.539
   16CHL1  H27B 1183   0.635   2.320   4.522
   16CHL1  H27C 1184   0.594   2.295   4.656
   17CHL1    C3 1185   1.860   6.309   5.988
   17CHL1    H3 1186   1.957   6.364   5.992
   17CHL1    O3 1187   1.831   6.264   6.118
   17CHL1   H3' 1188   1.912   6.216   6.145
   17CHL1    C4 1189   1.748   6.406   5.945
   17CHL1   H4A 1190   1.648   6.363   5.969
   17CHL1   H4B 1191   1.758   6.496   6.010
   17CHL1    C5 1192   1.749   6.442   5.799
   17CHL1    C6 1193   1.750   6.569   5.757
   17CHL1    H6 1194   1.753   6.650   5.831
   17CHL1    C7 1195   1.741   6.608   5.612
   17CHL1   H7A 1196   1.670   6.691   5.597
   17CHL1   H7B 1197   1.837   6.651   5.583
   17CHL1    C8 1198   1.704   6.490   5.515
   17CHL1    H8 1199   1.595   6.473   5.524
   17CHL1   C14 1200   1.729   6.521   5.367
   17CHL1   H14 1201   1.836   6.539   5.354
   17CHL1   C15 1202   1.672   6.650   5.310
   17CHL1  H15A 1203   1.566   6.664   5.335
   17CHL1  H15B 1204   1.727   6.729   5.361
   17CHL1   C16 1205   1.686   6.639   5.158
   17CHL1  H16A 1206   1.592   6.670   5.111
   17CHL1  H16B 1207   1.767   6.700   5.117
   17CHL1   C17 1208   1.720   6.490   5.133
   17CHL1   H17 1209   1.824   6.495   5.150
   17CHL1   C13 1210   1.699   6.413   5.265
   17CHL1   C18 1211   1.558   6.368   5.260
   17CHL1  H18A 1212   1.494   6.451   5.225
   17CHL1  H18B 1213   1.555   6.284   5.188
   17CHL1  H18C 1214   1.527   6.332   5.360
   17CHL1   C12 1215   1.792   6.297   5.300
   17CHL1  H12A 1216   1.781   6.216   5.228
   17CHL1  H12B 1217   1.890   6.336   5.285
   17CHL1   C11 1218   1.776   6.251   5.448
   17CHL1  H11A 1219   1.676   6.206   5.451
   17CHL1  H11B 1220   1.853   6.175   5.471
   17CHL1    C9 1221   1.774   6.361   5.559
   17CHL1    H9 1222   1.878   6.378   5.583
   17CHL1   C10 1223   1.754   6.320   5.706
   17CHL1   C19 1224   1.624   6.242   5.712
   17CHL1  H19A 1225   1.602   6.213   5.816
   17CHL1  H19B 1226   1.543   6.304   5.669
   17CHL1  H19C 1227   1.636   6.148   5.654
   17CHL1    C1 1228   1.875   6.231   5.749
   17CHL1   H1A 1229   1.877   6.143   5.682
   17CHL1   H1B 1230   1.971   6.283   5.735
   17CHL1    C2 1231   1.876   6.188   5.895
   17CHL1   H2A 1232   1.971   6.134   5.915
   17CHL1   H2B 1233   1.793   6.116   5.910
   17CHL1   C20 1234   1.703   6.438   4.988
   17CHL1   H20 1235   1.757   6.510   4.920
   17CHL1   C21 1236   1.556   6.443   4.943
   17CHL1  H21A 1237   1.513   6.543   4.960
   17CHL1  H21B 1238   1.497   6.367   4.997
   17CHL1  H21C 1239   1.550   6.422   4.834
   17CHL1   C22 1240   1.764   6.300   4.957
   17CHL1  H22A 1241   1.871   6.294   4.978
   17CHL1  H22B 1242   1.714   6.222   5.018
   17CHL1   C23 1243   1.761   6.262   4.809
   17CHL1  H23A 1244   1.802   6.158   4.806
   17CHL1  H23B 1245   1.658   6.262   4.769
   17CHL1   C24 1246   1.849   6.344   4.716
   17CHL1  H24A 1247   1.827   6.452   4.709
   17CHL1  H24B 1248   1.949   6.332   4.753
   17CHL1   C25 1249   1.858   6.273   4.581
   17CHL1   H25 1250   1.886   6.166   4.599
   17CHL1   C26 1251   1.739   6.288   4.493
   17CHL1  H26A 1252   1.731   6.394   4.460
   17CHL1  H26B 1253   1.755   6.220   4.406
   17CHL1  H26C 1254   1.652   6.259   4.554
   17CHL1   C27 1255   1.966   6.329   4.501
   17CHL1  H27A 1256   1.991   6.274   4.408
   17CHL1  H27B 1257   1.945   6.436   4.478
   17CHL1  H27C 1258   2.048   6.315   4.572
   18CHL1    C3 1259   4.271   0.516   5.978
   18CHL1    H3 1260   4.175   0.465   5.955
   18CHL1    O3 1261   4.275   0.534   6.118
   18CHL1   H3' 1262   4.202   0.596   6.135
   18CHL1    C4 1263   4.387   0.426   5.931
   18CHL1   H4A 1264   4.483   0.452   5.979
   18CHL1   H4B 1265   4.361   0.326   5.972
   18CHL1    C5 1266   4.405   0.423   5.780
   18CHL1    C6 1267   4.433   0.309   5.715
   18CHL1    H6 1268   4.443   0.214   5.770
   18CHL1    C7 1269   4.461   0.304   5.568
   18CHL1   H7A 1270   4.563   0.262   5.550
   18CHL1   H7B 1271   4.388   0.238   5.519
   18CHL1    C8 1272   4.455   0.437   5.491
   18CHL1    H8 1273   4.559   0.480   5.500
   18CHL1   C14 1274   4.405   0.406   5.349
   18CHL1   H14 1275   4.298   0.382   5.354
   18CHL1   C15 1276   4.473   0.289   5.271
   18CHL1  H15A 1277   4.580   0.275   5.302
   18CHL1  H15B 1278   4.418   0.195   5.291
   18CHL1   C16 1279   4.469   0.331   5.123
   18CHL1  H16A 1280   4.576   0.340   5.106
   18CHL1  H16B 1281   4.429   0.257   5.052
   18CHL1   C17 1282   4.400   0.472   5.111
   18CHL1   H17 1283   4.293   0.452   5.094
   18CHL1   C13 1284   4.400   0.526   5.259
   18CHL1   C18 1285   4.524   0.577   5.287
   18CHL1  H18A 1286   4.594   0.491   5.294
   18CHL1  H18B 1287   4.539   0.639   5.203
   18CHL1  H18C 1288   4.551   0.641   5.371
   18CHL1   C12 1289   4.315   0.640   5.311
   18CHL1  H12A 1290   4.338   0.733   5.253
   18CHL1  H12B 1291   4.213   0.607   5.293
   18CHL1   C11 1292   4.341   0.667   5.463
   18CHL1  H11A 1293   4.431   0.731   5.476
   18CHL1  H11B 1294   4.259   0.732   5.497
   18CHL1    C9 1295   4.357   0.537   5.551
   18CHL1    H9 1296   4.257   0.488   5.543
   18CHL1   C10 1297   4.383   0.556   5.703
   18CHL1   C19 1298   4.512   0.637   5.724
   18CHL1  H19A 1299   4.602   0.578   5.698
   18CHL1  H19B 1300   4.510   0.727   5.660
   18CHL1  H19C 1301   4.522   0.674   5.828
   18CHL1    C1 1302   4.263   0.636   5.759
   18CHL1   H1A 1303   4.265   0.736   5.710
   18CHL1   H1B 1304   4.168   0.586   5.729
   18CHL1    C2 1305   4.267   0.654   5.911
   18CHL1   H2A 1306   4.175   0.709   5.941
   18CHL1   H2B 1307   4.354   0.714   5.944
   18CHL1   C20 1308   4.449   0.553   4.985
   18CHL1   H20 1309   4.559   0.567   4.982
   18CHL1   C21 1310   4.390   0.695   4.977
   18CHL1  H21A 1311   4.420   0.744   4.882
   18CHL1  H21B 1312   4.427   0.757   5.060
   18CHL1  H21C 1313   4.279   0.689   4.981
   18CHL1   C22 1314   4.420   0.485   4.850
   18CHL1  H22A 1315   4.425   0.374   4.858
   18CHL1  H22B 1316   4.318   0.513   4.819
   18CHL1   C23 1317   4.516   0.524   4.736
   18CHL1  H23A 1318   4.550   0.630   4.736
   18CHL1  H23B 1319   4.605   0.463   4.753
   18CHL1   C24 1320   4.457   0.480   4.602
   18CHL1  H24A 1321   4.429   0.373   4.617
   18CHL1  H24B 1322   4.369   0.541   4.576
   18CHL1   C25 1323   4.552   0.481   4.483
   18CHL1   H25 1324   4.593   0.584   4.475
   18CHL1   C26 1325   4.657   0.377   4.512
   18CHL1  H26A 1326   4.720   0.352   4.423
   18CHL1  H26B 1327   4.722   0.413   4.593
   18CHL1  H26C 1328   4.621   0.293   4.565
   18CHL1   C27 1329   4.489   0.450   4.348
   18CHL1  H27A 1330   4.409   0.522   4.324
   18CHL1  H27B 1331   4.564   0.457   4.267
   18CHL1  H27C 1332   4.450   0.346   4.350
   19CHL1    C3 1333   2.663   0.457   5.980
   19CHL1    H3 1334   2.610   0.553   5.959
   19CHL1    O3 1335   2.675   0.437   6.120
   19CHL1   H3' 1336   2.587   0.408   6.148
   19CHL1    C4 1337   2.584   0.340   5.921
   19CHL1   H4A 1338   2.646   0.248   5.938
   19CHL1   H4B 1339   2.489   0.321   5.975
   19CHL1    C5 1340   2.559   0.379   5.777
   19CHL1    C6 1341   2.439   0.377   5.722
   19CHL1    H6 1342   2.351   0.346   5.780
   19CHL1    C7 1343   2.422   0.420   5.580
   19CHL1   H7A 1344   2.347   0.365   5.531
   19CHL1   H7B 1345   2.390   0.525   5.581
   19CHL1    C8 1346   2.542   0.401   5.485
   19CHL1    H8 1347   2.558   0.291   5.469
   19CHL1   C14 1348   2.515   0.461   5.349
   19CHL1   H14 1349   2.478   0.565   5.368
   19CHL1   C15 1350   2.407   0.397   5.273
   19CHL1  H15A 1351   2.423   0.286   5.278
   19CHL1  H15B 1352   2.317   0.440   5.320
   19CHL1   C16 1353   2.414   0.438   5.129
   19CHL1  H16A 1354   2.419   0.347   5.066
   19CHL1  H16B 1355   2.323   0.498   5.103
   19CHL1   C17 1356   2.547   0.512   5.124
   19CHL1   H17 1357   2.519   0.617   5.145
   19CHL1   C13 1358   2.625   0.460   5.247
   19CHL1   C18 1359   2.682   0.318   5.220
   19CHL1  H18A 1360   2.614   0.246   5.170
   19CHL1  H18B 1361   2.777   0.323   5.164
   19CHL1  H18C 1362   2.707   0.276   5.319
   19CHL1   C12 1363   2.731   0.548   5.309
   19CHL1  H12A 1364   2.817   0.543   5.239
   19CHL1  H12B 1365   2.692   0.651   5.315
   19CHL1   C11 1366   2.772   0.498   5.450
   19CHL1  H11A 1367   2.825   0.401   5.437
   19CHL1  H11B 1368   2.842   0.571   5.494
   19CHL1    C9 1369   2.652   0.479   5.549
   19CHL1    H9 1370   2.610   0.579   5.570
   19CHL1   C10 1371   2.680   0.431   5.692
   19CHL1   C19 1372   2.736   0.307   5.663
   19CHL1  H19A 1373   2.662   0.237   5.618
   19CHL1  H19B 1374   2.835   0.305   5.611
   19CHL1  H19C 1375   2.760   0.266   5.759
   19CHL1    C1 1376   2.797   0.498   5.766
   19CHL1   H1A 1377   2.895   0.472   5.717
   19CHL1   H1B 1378   2.780   0.605   5.754
   19CHL1    C2 1379   2.804   0.463   5.916
   19CHL1   H2A 1380   2.865   0.542   5.963
   19CHL1   H2B 1381   2.851   0.363   5.933
   19CHL1   C20 1382   2.605   0.509   4.984
   19CHL1   H20 1383   2.639   0.406   4.958
   19CHL1   C21 1384   2.724   0.605   4.969
   19CHL1  H21A 1385   2.693   0.709   4.994
   19CHL1  H21B 1386   2.760   0.605   4.865
   19CHL1  H21C 1387   2.811   0.574   5.030
   19CHL1   C22 1388   2.491   0.551   4.887
   19CHL1  H22A 1389   2.417   0.471   4.881
   19CHL1  H22B 1390   2.432   0.634   4.932
   19CHL1   C23 1391   2.534   0.594   4.746
   19CHL1  H23A 1392   2.438   0.610   4.690
   19CHL1  H23B 1393   2.583   0.692   4.752
   19CHL1   C24 1394   2.630   0.491   4.677
   19CHL1  H24A 1395   2.706   0.452   4.745
   19CHL1  H24B 1396   2.604   0.386   4.682
   19CHL1   C25 1397   2.657   0.503   4.523
   19CHL1   H25 1398   2.737   0.579   4.524
   19CHL1   C26 1399   2.713   0.369   4.470
   19CHL1  H26A 1400   2.637   0.288   4.464
   19CHL1  H26B 1401   2.754   0.386   4.369
   19CHL1  H26C 1402   2.794   0.333   4.538
   19CHL1   C27 1403   2.549   0.555   4.422
   19CHL1  H27A 1404   2.458   0.497   4.404
   19CHL1  H27B 1405   2.511   0.655   4.448
   19CHL1  H27C 1406   2.589   0.549   4.319
   20CHL1    C3 1407   1.917   0.683   5.978
   20CHL1    H3 1408   1.929   0.794   5.977
   20CHL1    O3 1409   1.924   0.640   6.113
   20CHL1   H3' 1410   2.020   0.640   6.133
   20CHL1    C4 1411   1.783   0.647   5.914
   20CHL1   H4A 1412   1.763   0.538   5.925
   20CHL1   H4B 1413   1.704   0.700   5.972
   20CHL1    C5 1414   1.775   0.684   5.768
   20CHL1    C6 1415   1.674   0.755   5.717
   20CHL1    H6 1416   1.603   0.802   5.786
   20CHL1    C7 1417   1.644   0.771   5.571
   20CHL1   H7A 1418   1.540   0.771   5.536
   20CHL1   H7B 1419   1.647   0.876   5.556
   20CHL1    C8 1420   1.737   0.685   5.481
   20CHL1    H8 1421   1.689   0.587   5.475
   20CHL1   C14 1422   1.736   0.732   5.336
   20CHL1   H14 1423   1.790   0.808   5.386
   20CHL1   C15 1424   1.610   0.786   5.256
   20CHL1  H15A 1425   1.523   0.726   5.283
   20CHL1  H15B 1426   1.573   0.891   5.260
   20CHL1   C16 1427   1.644   0.774   5.107
   20CHL1  H16A 1428   1.574   0.714   5.049
   20CHL1  H16B 1429   1.619   0.876   5.065
   20CHL1   C17 1430   1.792   0.715   5.099
   20CHL1   H17 1431   1.881   0.770   5.117
   20CHL1   C13 1432   1.827   0.660   5.237
   20CHL1   C18 1433   1.757   0.535   5.217
   20CHL1  H18A 1434   1.812   0.478   5.138
   20CHL1  H18B 1435   1.766   0.494   5.318
   20CHL1  H18C 1436   1.650   0.541   5.193
   20CHL1   C12 1437   1.978   0.657   5.287
   20CHL1  H12A 1438   2.043   0.594   5.222
   20CHL1  H12B 1439   2.033   0.753   5.284
   20CHL1   C11 1440   1.987   0.615   5.435
   20CHL1  H11A 1441   1.955   0.511   5.430
   20CHL1  H11B 1442   2.093   0.624   5.469
   20CHL1    C9 1443   1.886   0.680   5.536
   20CHL1    H9 1444   1.934   0.779   5.548
   20CHL1   C10 1445   1.888   0.630   5.683
   20CHL1   C19 1446   1.857   0.489   5.678
   20CHL1  H19A 1447   1.843   0.430   5.771
   20CHL1  H19B 1448   1.769   0.475   5.614
   20CHL1  H19C 1449   1.944   0.447   5.626
   20CHL1    C1 1450   2.026   0.646   5.750
   20CHL1   H1A 1451   2.100   0.578   5.702
   20CHL1   H1B 1452   2.054   0.751   5.731
   20CHL1    C2 1453   2.032   0.618   5.901
   20CHL1   H2A 1454   2.128   0.662   5.938
   20CHL1   H2B 1455   2.032   0.508   5.917
   20CHL1   C20 1456   1.843   0.675   4.958
   20CHL1   H20 1457   1.783   0.588   4.932
   20CHL1   C21 1458   1.997   0.650   4.964
   20CHL1  H21A 1459   2.054   0.728   5.021
   20CHL1  H21B 1460   2.046   0.643   4.865
   20CHL1  H21C 1461   2.013   0.553   5.015
   20CHL1   C22 1462   1.807   0.783   4.852
   20CHL1  H22A 1463   1.701   0.815   4.860
   20CHL1  H22B 1464   1.877   0.858   4.887
   20CHL1   C23 1465   1.833   0.755   4.704
   20CHL1  H23A 1466   1.943   0.751   4.685
   20CHL1  H23B 1467   1.787   0.656   4.690
   20CHL1   C24 1468   1.767   0.851   4.601
   20CHL1  H24A 1469   1.661   0.872   4.626
   20CHL1  H24B 1470   1.824   0.945   4.598
   20CHL1   C25 1471   1.771   0.801   4.456
   20CHL1   H25 1472   1.706   0.711   4.446
   20CHL1   C26 1473   1.729   0.907   4.354
   20CHL1  H26A 1474   1.629   0.946   4.380
   20CHL1  H26B 1475   1.802   0.991   4.355
   20CHL1  H26C 1476   1.726   0.864   4.251
   20CHL1   C27 1477   1.910   0.765   4.420
   20CHL1  H27A 1478   1.949   0.679   4.479
   20CHL1  H27B 1479   1.912   0.738   4.312
   20CHL1  H27C 1480   1.980   0.851   4.435
   21CHL1    C3 1481   7.181   2.720   5.988
   21CHL1    H3 1482   7.096   2.781   5.947
   21CHL1    O3 1483   7.165   2.697   6.126
   21CHL1   H3' 1484   7.168   2.786   6.165
   21CHL1    C4 1485   7.182   2.585   5.917
   21CHL1   H4A 1486   7.263   2.523   5.961
   21CHL1   H4B 1487   7.085   2.537   5.938
   21CHL1    C5 1488   7.201   2.595   5.768
   21CHL1    C6 1489   7.112   2.543   5.684
   21CHL1    H6 1490   7.028   2.493   5.725
   21CHL1    C7 1491   7.116   2.543   5.535
   21CHL1   H7A 1492   7.105   2.442   5.492
   21CHL1   H7B 1493   7.039   2.612   5.492
   21CHL1    C8 1494   7.248   2.592   5.490
   21CHL1    H8 1495   7.328   2.516   5.506
   21CHL1   C14 1496   7.235   2.628   5.341
   21CHL1   H14 1497   7.167   2.718   5.337
   21CHL1   C15 1498   7.184   2.524   5.246
   21CHL1  H15A 1499   7.237   2.430   5.272
   21CHL1  H15B 1500   7.075   2.513   5.256
   21CHL1   C16 1501   7.227   2.576   5.107
   21CHL1  H16A 1502   7.285   2.495   5.057
   21CHL1  H16B 1503   7.139   2.601   5.047
   21CHL1   C17 1504   7.319   2.701   5.130
   21CHL1   H17 1505   7.260   2.795   5.135
   21CHL1   C13 1506   7.363   2.666   5.274
   21CHL1   C18 1507   7.464   2.546   5.293
   21CHL1  H18A 1508   7.563   2.550   5.249
   21CHL1  H18B 1509   7.495   2.533   5.399
   21CHL1  H18C 1510   7.434   2.454   5.244
   21CHL1   C12 1511   7.375   2.782   5.357
   21CHL1  H12A 1512   7.471   2.812   5.353
   21CHL1  H12B 1513   7.325   2.872   5.318
   21CHL1   C11 1514   7.390   2.757   5.503
   21CHL1  H11A 1515   7.481   2.709   5.541
   21CHL1  H11B 1516   7.380   2.861   5.518
   21CHL1    C9 1517   7.281   2.709   5.576
   21CHL1    H9 1518   7.206   2.792   5.568
   21CHL1   C10 1519   7.314   2.682   5.725
   21CHL1   C19 1520   7.451   2.613   5.752
   21CHL1  H19A 1521   7.535   2.685   5.740
   21CHL1  H19B 1522   7.454   2.575   5.855
   21CHL1  H19C 1523   7.472   2.531   5.681
   21CHL1    C1 1524   7.306   2.811   5.809
   21CHL1   H1A 1525   7.398   2.863   5.807
   21CHL1   H1B 1526   7.230   2.883   5.773
   21CHL1    C2 1527   7.309   2.794   5.960
   21CHL1   H2A 1528   7.320   2.896   6.004
   21CHL1   H2B 1529   7.398   2.736   5.993
   21CHL1   C20 1530   7.410   2.737   5.010
   21CHL1   H20 1531   7.461   2.638   5.010
   21CHL1   C21 1532   7.504   2.879   5.009
   21CHL1  H21A 1533   7.595   2.923   5.063
   21CHL1  H21B 1534   7.435   2.955   5.013
   21CHL1  H21C 1535   7.586   2.892   4.938
   21CHL1   C22 1536   7.343   2.706   4.875
   21CHL1  H22A 1537   7.286   2.613   4.873
   21CHL1  H22B 1538   7.282   2.797   4.876
   21CHL1   C23 1539   7.432   2.681   4.751
   21CHL1  H23A 1540   7.489   2.767   4.774
   21CHL1  H23B 1541   7.504   2.596   4.754
   21CHL1   C24 1542   7.356   2.693   4.615
   21CHL1  H24A 1543   7.304   2.599   4.601
   21CHL1  H24B 1544   7.282   2.773   4.634
   21CHL1   C25 1545   7.427   2.725   4.478
   21CHL1   H25 1546   7.518   2.663   4.463
   21CHL1   C26 1547   7.353   2.750   4.349
   21CHL1  H26A 1548   7.271   2.826   4.360
   21CHL1  H26B 1549   7.423   2.791   4.270
   21CHL1  H26C 1550   7.319   2.652   4.325
   21CHL1   C27 1551   7.461   2.860   4.471
   21CHL1  H27A 1552   7.368   2.920   4.479
   21CHL1  H27B 1553   7.523   2.884   4.558
   21CHL1  H27C 1554   7.518   2.901   4.388
   22CHL1    C3 1555   0.460   5.402   5.988
   22CHL1    H3 1556   0.505   5.499   5.960
   22CHL1    O3 1557   0.437   5.384   6.125
   22CHL1   H3' 1558   0.393   5.298   6.131
   22CHL1    C4 1559   0.331   5.385   5.917
   22CHL1   H4A 1560   0.301   5.285   5.956
   22CHL1   H4B 1561   0.254   5.457   5.951
   22CHL1    C5 1562   0.340   5.384   5.765
   22CHL1    C6 1563   0.263   5.463   5.689
   22CHL1    H6 1564   0.195   5.532   5.740
   22CHL1    C7 1565   0.256   5.451   5.539
   22CHL1   H7A 1566   0.151   5.454   5.502
   22CHL1   H7B 1567   0.310   5.537   5.496
   22CHL1    C8 1568   0.324   5.322   5.485
   22CHL1    H8 1569   0.268   5.233   5.500
   22CHL1   C14 1570   0.347   5.325   5.335
   22CHL1   H14 1571   0.409   5.413   5.317
   22CHL1   C15 1572   0.227   5.355   5.248
   22CHL1  H15A 1573   0.182   5.269   5.289
   22CHL1  H15B 1574   0.160   5.438   5.272
   22CHL1   C16 1575   0.266   5.323   5.105
   22CHL1  H16A 1576   0.195   5.265   5.043
   22CHL1  H16B 1577   0.275   5.420   5.054
   22CHL1   C17 1578   0.401   5.247   5.120
   22CHL1   H17 1579   0.476   5.327   5.109
   22CHL1   C13 1580   0.420   5.208   5.268
   22CHL1   C18 1581   0.373   5.068   5.286
   22CHL1  H18A 1582   0.338   5.045   5.388
   22CHL1  H18B 1583   0.300   5.065   5.204
   22CHL1  H18C 1584   0.433   4.981   5.265
   22CHL1   C12 1585   0.553   5.203   5.331
   22CHL1  H12A 1586   0.608   5.115   5.289
   22CHL1  H12B 1587   0.603   5.298   5.307
   22CHL1   C11 1588   0.533   5.190   5.483
   22CHL1  H11A 1589   0.501   5.086   5.508
   22CHL1  H11B 1590   0.632   5.209   5.521
   22CHL1    C9 1591   0.452   5.298   5.557
   22CHL1    H9 1592   0.508   5.392   5.544
   22CHL1   C10 1593   0.433   5.278   5.710
   22CHL1   C19 1594   0.398   5.130   5.733
   22CHL1  H19A 1595   0.321   5.102   5.661
   22CHL1  H19B 1596   0.481   5.060   5.710
   22CHL1  H19C 1597   0.367   5.110   5.838
   22CHL1    C1 1598   0.555   5.300   5.797
   22CHL1   H1A 1599   0.590   5.196   5.798
   22CHL1   H1B 1600   0.626   5.373   5.753
   22CHL1    C2 1601   0.550   5.292   5.949
   22CHL1   H2A 1602   0.650   5.302   5.996
   22CHL1   H2B 1603   0.514   5.190   5.981
   22CHL1   C20 1604   0.418   5.146   5.006
   22CHL1   H20 1605   0.326   5.084   4.990
   22CHL1   C21 1606   0.539   5.053   5.029
   22CHL1  H21A 1607   0.625   5.114   5.062
   22CHL1  H21B 1608   0.567   4.995   4.940
   22CHL1  H21C 1609   0.521   4.973   5.103
   22CHL1   C22 1610   0.440   5.229   4.880
   22CHL1  H22A 1611   0.349   5.284   4.848
   22CHL1  H22B 1612   0.521   5.303   4.902
   22CHL1   C23 1613   0.489   5.145   4.767
   22CHL1  H23A 1614   0.597   5.127   4.783
   22CHL1  H23B 1615   0.439   5.045   4.762
   22CHL1   C24 1616   0.468   5.218   4.638
   22CHL1  H24A 1617   0.363   5.222   4.606
   22CHL1  H24B 1618   0.513   5.319   4.635
   22CHL1   C25 1619   0.540   5.143   4.537
   22CHL1   H25 1620   0.511   5.034   4.533
   22CHL1   C26 1621   0.508   5.203   4.407
   22CHL1  H26A 1622   0.564   5.296   4.383
   22CHL1  H26B 1623   0.560   5.117   4.366
   22CHL1  H26C 1624   0.403   5.201   4.375
   22CHL1   C27 1625   0.688   5.160   4.555
   22CHL1  H27A 1626   0.723   5.263   4.538
   22CHL1  H27B 1627   0.741   5.125   4.643
   22CHL1  H27C 1628   0.732   5.081   4.488
   23CHL1    C3 1629   0.284   2.073   5.980
   23CHL1    H3 1630   0.250   2.176   5.957
   23CHL1    O3 1631   0.267   2.050   6.119
   23CHL1   H3' 1632   0.191   2.102   6.145
   23CHL1    C4 1633   0.202   1.973   5.898
   23CHL1   H4A 1634   0.238   1.869   5.918
   23CHL1   H4B 1635   0.096   1.970   5.929
   23CHL1    C5 1636   0.218   2.016   5.753
   23CHL1    C6 1637   0.116   2.063   5.681
   23CHL1    H6 1638   0.018   2.073   5.728
   23CHL1    C7 1639   0.130   2.099   5.536
   23CHL1   H7A 1640   0.040   2.066   5.480
   23CHL1   H7B 1641   0.138   2.209   5.527
   23CHL1    C8 1642   0.255   2.036   5.471
   23CHL1    H8 1643   0.240   1.926   5.465
   23CHL1   C14 1644   0.273   2.091   5.331
   23CHL1   H14 1645   0.295   2.200   5.347
   23CHL1   C15 1646   0.152   2.090   5.237
   23CHL1  H15A 1647   0.097   1.993   5.241
   23CHL1  H15B 1648   0.084   2.176   5.256
   23CHL1   C16 1649   0.210   2.100   5.098
   23CHL1  H16A 1650   0.188   2.007   5.042
   23CHL1  H16B 1651   0.172   2.188   5.042
   23CHL1   C17 1652   0.361   2.105   5.118
   23CHL1   H17 1653   0.385   2.214   5.130
   23CHL1   C13 1654   0.392   2.037   5.255
   23CHL1   C18 1655   0.393   1.885   5.232
   23CHL1  H18A 1656   0.321   1.857   5.153
   23CHL1  H18B 1657   0.495   1.854   5.199
   23CHL1  H18C 1658   0.372   1.830   5.326
   23CHL1   C12 1659   0.514   2.079   5.338
   23CHL1  H12A 1660   0.610   2.043   5.296
   23CHL1  H12B 1661   0.510   2.190   5.339
   23CHL1   C11 1662   0.511   2.032   5.484
   23CHL1  H11A 1663   0.542   1.925   5.482
   23CHL1  H11B 1664   0.586   2.086   5.544
   23CHL1    C9 1665   0.378   2.066   5.555
   23CHL1    H9 1666   0.384   2.177   5.565
   23CHL1   C10 1667   0.359   2.013   5.697
   23CHL1   C19 1668   0.391   1.866   5.686
   23CHL1  H19A 1669   0.338   1.811   5.606
   23CHL1  H19B 1670   0.496   1.863   5.658
   23CHL1  H19C 1671   0.376   1.814   5.782
   23CHL1    C1 1672   0.455   2.085   5.795
   23CHL1   H1A 1673   0.554   2.044   5.775
   23CHL1   H1B 1674   0.459   2.195   5.774
   23CHL1    C2 1675   0.432   2.057   5.944
   23CHL1   H2A 1676   0.497   2.119   6.008
   23CHL1   H2B 1677   0.459   1.950   5.961
   23CHL1   C20 1678   0.429   2.057   4.993
   23CHL1   H20 1679   0.428   1.948   4.970
   23CHL1   C21 1680   0.563   2.088   5.025
   23CHL1  H21A 1681   0.612   1.996   5.067
   23CHL1  H21B 1682   0.579   2.174   5.091
   23CHL1  H21C 1683   0.611   2.122   4.933
   23CHL1   C22 1684   0.392   2.140   4.870
   23CHL1  H22A 1685   0.286   2.119   4.850
   23CHL1  H22B 1686   0.410   2.249   4.892
   23CHL1   C23 1687   0.459   2.105   4.738
   23CHL1  H23A 1688   0.567   2.131   4.746
   23CHL1  H23B 1689   0.453   1.999   4.711
   23CHL1   C24 1690   0.389   2.186   4.628
   23CHL1  H24A 1691   0.281   2.190   4.615
   23CHL1  H24B 1692   0.402   2.288   4.671
   23CHL1   C25 1693   0.443   2.159   4.486
   23CHL1   H25 1694   0.405   2.068   4.436
   23CHL1   C26 1695   0.373   2.274   4.391
   23CHL1  H26A 1696   0.374   2.380   4.425
   23CHL1  H26B 1697   0.411   2.280   4.289
   23CHL1  H26C 1698   0.265   2.269   4.373
   23CHL1   C27 1699   0.599   2.107   4.501
   23CHL1  H27A 1700   0.683   2.155   4.549
   23CHL1  H27B 1701   0.635   2.031   4.573
   23CHL1  H27C 1702   0.650   2.123   4.407
   24CHL1    C3 1703   1.165   6.735   5.990
   24CHL1    H3 1704   1.056   6.732   5.965
   24CHL1    O3 1705   1.189   6.676   6.115
   24CHL1   H3' 1706   1.285   6.686   6.124
   24CHL1    C4 1707   1.247   6.659   5.884
   24CHL1   H4A 1708   1.353   6.663   5.915
   24CHL1   H4B 1709   1.216   6.553   5.885
   24CHL1    C5 1710   1.231   6.716   5.745
   24CHL1    C6 1711   1.184   6.641   5.644
   24CHL1    H6 1712   1.167   6.533   5.662
   24CHL1    C7 1713   1.154   6.693   5.505
   24CHL1   H7A 1714   1.203   6.630   5.428
   24CHL1   H7B 1715   1.045   6.686   5.488
   24CHL1    C8 1716   1.204   6.839   5.482
   24CHL1    H8 1717   1.313   6.838   5.471
   24CHL1   C14 1718   1.142   6.904   5.357
   24CHL1   H14 1719   1.038   6.922   5.377
   24CHL1   C15 1720   1.131   6.828   5.222
   24CHL1  H15A 1721   1.228   6.783   5.196
   24CHL1  H15B 1722   1.052   6.750   5.224
   24CHL1   C16 1723   1.093   6.938   5.122
   24CHL1  H16A 1724   1.167   6.942   5.040
   24CHL1  H16B 1725   0.994   6.919   5.074
   24CHL1   C17 1726   1.092   7.073   5.201
   24CHL1   H17 1727   0.986   7.089   5.235
   24CHL1   C13 1728   1.173   7.049   5.331
   24CHL1   C18 1729   1.323   7.063   5.313
   24CHL1  H18A 1730   1.344   7.166   5.281
   24CHL1  H18B 1731   1.377   7.049   5.409
   24CHL1  H18C 1732   1.359   6.989   5.239
   24CHL1   C12 1733   1.126   7.132   5.452
   24CHL1  H12A 1734   1.155   7.238   5.443
   24CHL1  H12B 1735   1.015   7.130   5.448
   24CHL1   C11 1736   1.185   7.078   5.585
   24CHL1  H11A 1737   1.291   7.106   5.588
   24CHL1  H11B 1738   1.134   7.131   5.668
   24CHL1    C9 1739   1.178   6.923   5.608
   24CHL1    H9 1740   1.074   6.897   5.631
   24CHL1   C10 1741   1.251   6.868   5.734
   24CHL1   C19 1742   1.398   6.906   5.736
   24CHL1  H19A 1743   1.408   7.017   5.745
   24CHL1  H19B 1744   1.444   6.861   5.826
   24CHL1  H19C 1745   1.447   6.870   5.644
   24CHL1    C1 1746   1.192   6.934   5.856
   24CHL1   H1A 1747   1.209   7.044   5.856
   24CHL1   H1B 1748   1.086   6.905   5.836
   24CHL1    C2 1749   1.210   6.880   5.997
   24CHL1   H2A 1750   1.148   6.940   6.068
   24CHL1   H2B 1751   1.315   6.889   6.029
   24CHL1   C20 1752   1.131   7.186   5.108
   24CHL1   H20 1753   1.229   7.163   5.063
   24CHL1   C21 1754   1.151   7.319   5.177
   24CHL1  H21A 1755   1.225   7.321   5.258
   24CHL1  H21B 1756   1.054   7.346   5.221
   24CHL1  H21C 1757   1.186   7.397   5.106
   24CHL1   C22 1758   1.030   7.196   4.991
   24CHL1  H22A 1759   0.960   7.111   4.989
   24CHL1  H22B 1760   0.959   7.278   5.011
   24CHL1   C23 1761   1.101   7.203   4.855
   24CHL1  H23A 1762   1.171   7.291   4.851
   24CHL1  H23B 1763   1.166   7.114   4.842
   24CHL1   C24 1764   0.996   7.201   4.743
   24CHL1  H24A 1765   0.968   7.100   4.711
   24CHL1  H24B 1766   0.910   7.266   4.772
   24CHL1   C25 1767   1.051   7.246   4.612
   24CHL1   H25 1768   1.076   7.343   4.663
   24CHL1   C26 1769   1.182   7.156   4.566
   24CHL1  H26A 1770   1.170   7.049   4.568
   24CHL1  H26B 1771   1.221   7.174   4.463
   24CHL1  H26C 1772   1.279   7.186   4.615
   24CHL1   C27 1773   0.949   7.298   4.501
   24CHL1  H27A 1774   0.906   7.219   4.443
   24CHL1  H27B 1775   0.868   7.361   4.538
   24CHL1  H27C 1776   0.990   7.367   4.424
   25CHL1    C3 1777   7.232   1.343   5.988
   25CHL1    H3 1778   7.294   1.254   6.010
   25CHL1    O3 1779   7.204   1.405   6.112
   25CHL1   H3' 1780   7.188   1.338   6.179
   25CHL1    C4 1781   7.309   1.439   5.895
   25CHL1   H4A 1782   7.259   1.538   5.897
   25CHL1   H4B 1783   7.410   1.459   5.938
   25CHL1    C5 1784   7.316   1.388   5.752
   25CHL1    C6 1785   7.432   1.386   5.692
   25CHL1    H6 1786   7.510   1.416   5.757
   25CHL1    C7 1787   7.463   1.356   5.549
   25CHL1   H7A 1788   7.507   1.446   5.500
   25CHL1   H7B 1789   7.536   1.272   5.541
   25CHL1    C8 1790   7.333   1.332   5.470
   25CHL1    H8 1791   7.296   1.434   5.448
   25CHL1   C14 1792   7.362   1.258   5.342
   25CHL1   H14 1793   7.392   1.154   5.372
   25CHL1   C15 1794   7.482   1.308   5.260
   25CHL1  H15A 1795   7.486   1.419   5.259
   25CHL1  H15B 1796   7.575   1.267   5.305
   25CHL1   C16 1797   7.455   1.254   5.120
   25CHL1  H16A 1798   7.439   1.341   5.052
   25CHL1  H16B 1799   7.537   1.190   5.083
   25CHL1   C17 1800   7.320   1.180   5.126
   25CHL1   H17 1801   7.342   1.073   5.152
   25CHL1   C13 1802   7.244   1.238   5.249
   25CHL1   C18 1803   7.181   1.375   5.211
   25CHL1  H18A 1804   7.258   1.440   5.167
   25CHL1  H18B 1805   7.095   1.368   5.142
   25CHL1  H18C 1806   7.142   1.423   5.303
   25CHL1   C12 1807   7.143   1.151   5.328
   25CHL1  H12A 1808   7.049   1.142   5.269
   25CHL1  H12B 1809   7.183   1.049   5.346
   25CHL1   C11 1810   7.108   1.210   5.466
   25CHL1  H11A 1811   7.040   1.295   5.449
   25CHL1  H11B 1812   7.053   1.133   5.524
   25CHL1    C9 1813   7.230   1.254   5.552
   25CHL1    H9 1814   7.281   1.158   5.580
   25CHL1   C10 1815   7.192   1.331   5.683
   25CHL1   C19 1816   7.101   1.451   5.648
   25CHL1  H19A 1817   7.120   1.540   5.711
   25CHL1  H19B 1818   7.108   1.480   5.542
   25CHL1  H19C 1819   6.996   1.422   5.668
   25CHL1    C1 1820   7.118   1.240   5.785
   25CHL1   H1A 1821   7.020   1.216   5.738
   25CHL1   H1B 1822   7.171   1.144   5.799
   25CHL1    C2 1823   7.098   1.307   5.923
   25CHL1   H2A 1824   7.039   1.242   5.990
   25CHL1   H2B 1825   7.043   1.403   5.912
   25CHL1   C20 1826   7.254   1.186   4.990
   25CHL1   H20 1827   7.189   1.275   4.974
   25CHL1   C21 1828   7.167   1.074   5.001
   25CHL1  H21A 1829   7.105   1.087   5.091
   25CHL1  H21B 1830   7.207   0.970   5.003
   25CHL1  H21C 1831   7.109   1.090   4.909
   25CHL1   C22 1832   7.338   1.157   4.863
   25CHL1  H22A 1833   7.399   1.248   4.852
   25CHL1  H22B 1834   7.400   1.069   4.888
   25CHL1   C23 1835   7.273   1.131   4.723
   25CHL1  H23A 1836   7.209   1.040   4.721
   25CHL1  H23B 1837   7.209   1.218   4.697
   25CHL1   C24 1838   7.385   1.113   4.616
   25CHL1  H24A 1839   7.467   1.183   4.645
   25CHL1  H24B 1840   7.427   1.010   4.624
   25CHL1   C25 1841   7.355   1.145   4.467
   25CHL1   H25 1842   7.301   1.060   4.419
   25CHL1   C26 1843   7.270   1.270   4.450
   25CHL1  H26A 1844   7.284   1.310   4.347
   25CHL1  H26B 1845   7.162   1.248   4.465
   25CHL1  H26C 1846   7.301   1.348   4.522
   25CHL1   C27 1847   7.486   1.172   4.389
   25CHL1  H27A 1848   7.465   1.199   4.284
   25CHL1  H27B 1849   7.536   1.259   4.437
   25CHL1  H27C 1850   7.557   1.087   4.391
   26CHL1    C3 1851   1.666   0.022   5.988
   26CHL1    H3 1852   1.740  -0.060   6.004
   26CHL1    O3 1853   1.583   0.029   6.101
   26CHL1   H3' 1854   1.642   0.012   6.175
   26CHL1    C4 1855   1.733   0.158   5.972
   26CHL1   H4A 1856   1.651   0.231   5.965
   26CHL1   H4B 1857   1.792   0.183   6.063
   26CHL1    C5 1858   1.818   0.170   5.849
   26CHL1    C6 1859   1.945   0.211   5.850
   26CHL1    H6 1860   1.993   0.243   5.944
   26CHL1    C7 1861   2.020   0.228   5.721
   26CHL1   H7A 1862   2.079   0.323   5.722
   26CHL1   H7B 1863   2.094   0.145   5.718
   26CHL1    C8 1864   1.933   0.215   5.590
   26CHL1    H8 1865   1.864   0.292   5.559
   26CHL1   C14 1866   2.018   0.202   5.470
   26CHL1   H14 1867   2.078   0.111   5.491
   26CHL1   C15 1868   2.120   0.308   5.444
   26CHL1  H15A 1869   2.106   0.412   5.472
   26CHL1  H15B 1870   2.197   0.275   5.512
   26CHL1   C16 1871   2.147   0.288   5.296
   26CHL1  H16A 1872   2.136   0.383   5.237
   26CHL1  H16B 1873   2.244   0.241   5.285
   26CHL1   C17 1874   2.070   0.169   5.245
   26CHL1   H17 1875   2.129   0.080   5.278
   26CHL1   C13 1876   1.950   0.175   5.337
   26CHL1   C18 1877   1.865   0.286   5.289
   26CHL1  H18A 1878   1.823   0.264   5.189
   26CHL1  H18B 1879   1.778   0.308   5.354
   26CHL1  H18C 1880   1.926   0.379   5.279
   26CHL1   C12 1881   1.865   0.054   5.355
   26CHL1  H12A 1882   1.810   0.033   5.261
   26CHL1  H12B 1883   1.937  -0.027   5.380
   26CHL1   C11 1884   1.766   0.072   5.470
   26CHL1  H11A 1885   1.690   0.148   5.443
   26CHL1  H11B 1886   1.716  -0.025   5.480
   26CHL1    C9 1887   1.838   0.103   5.604
   26CHL1    H9 1888   1.903   0.017   5.628
   26CHL1   C10 1889   1.744   0.126   5.723
   26CHL1   C19 1890   1.648   0.239   5.689
   26CHL1  H19A 1891   1.574   0.206   5.616
   26CHL1  H19B 1892   1.609   0.294   5.776
   26CHL1  H19C 1893   1.690   0.319   5.633
   26CHL1    C1 1894   1.665  -0.004   5.744
   26CHL1   H1A 1895   1.598  -0.020   5.657
   26CHL1   H1B 1896   1.740  -0.085   5.749
   26CHL1    C2 1897   1.578  -0.009   5.868
   26CHL1   H2A 1898   1.531  -0.109   5.877
   26CHL1   H2B 1899   1.498   0.067   5.855
   26CHL1   C20 1900   2.064   0.177   5.093
   26CHL1   H20 1901   2.011   0.272   5.065
   26CHL1   C21 1902   1.986   0.059   5.037
   26CHL1  H21A 1903   1.972   0.067   4.927
   26CHL1  H21B 1904   1.885   0.060   5.082
   26CHL1  H21C 1905   2.040  -0.034   5.061
   26CHL1   C22 1906   2.201   0.190   5.023
   26CHL1  H22A 1907   2.237   0.289   5.053
   26CHL1  H22B 1908   2.276   0.112   5.050
   26CHL1   C23 1909   2.192   0.207   4.872
   26CHL1  H23A 1910   2.151   0.118   4.819
   26CHL1  H23B 1911   2.127   0.297   4.853
   26CHL1   C24 1912   2.323   0.235   4.805
   26CHL1  H24A 1913   2.389   0.292   4.872
   26CHL1  H24B 1914   2.385   0.146   4.784
   26CHL1   C25 1915   2.284   0.308   4.676
   26CHL1   H25 1916   2.234   0.407   4.699
   26CHL1   C26 1917   2.403   0.334   4.605
   26CHL1  H26A 1918   2.483   0.257   4.608
   26CHL1  H26B 1919   2.390   0.372   4.506
   26CHL1  H26C 1920   2.421   0.420   4.666
   26CHL1   C27 1921   2.218   0.235   4.564
   26CHL1  H27A 1922   2.178   0.314   4.496
   26CHL1  H27B 1923   2.295   0.178   4.505
   26CHL1  H27C 1924   2.144   0.167   4.604
   27CHL1    C3 1925   0.290   6.667   5.986
   27CHL1    H3 1926   0.312   6.558   5.979
   27CHL1    O3 1927   0.311   6.714   6.118
   27CHL1   H3' 1928   0.233   6.684   6.169
   27CHL1    C4 1929   0.392   6.734   5.893
   27CHL1   H4A 1930   0.394   6.845   5.917
   27CHL1   H4B 1931   0.496   6.709   5.918
   27CHL1    C5 1932   0.363   6.686   5.749
   27CHL1    C6 1933   0.452   6.641   5.660
   27CHL1    H6 1934   0.554   6.626   5.694
   27CHL1    C7 1935   0.425   6.621   5.513
   27CHL1   H7A 1936   0.518   6.634   5.454
   27CHL1   H7B 1937   0.387   6.518   5.500
   27CHL1    C8 1938   0.316   6.715   5.458
   27CHL1    H8 1939   0.350   6.818   5.466
   27CHL1   C14 1940   0.272   6.689   5.311
   27CHL1   H14 1941   0.255   6.581   5.314
   27CHL1   C15 1942   0.374   6.688   5.200
   27CHL1  H15A 1943   0.428   6.772   5.235
   27CHL1  H15B 1944   0.447   6.608   5.192
   27CHL1   C16 1945   0.301   6.712   5.070
   27CHL1  H16A 1946   0.332   6.809   5.027
   27CHL1  H16B 1947   0.316   6.631   4.995
   27CHL1   C17 1948   0.154   6.720   5.107
   27CHL1   H17 1949   0.108   6.620   5.119
   27CHL1   C13 1950   0.153   6.771   5.250
   27CHL1   C18 1951   0.178   6.917   5.248
   27CHL1  H18A 1952   0.095   6.979   5.209
   27CHL1  H18B 1953   0.181   6.939   5.354
   27CHL1  H18C 1954   0.275   6.940   5.203
   27CHL1   C12 1955   0.031   6.755   5.336
   27CHL1  H12A 1956  -0.062   6.808   5.330
   27CHL1  H12B 1957  -0.027   6.680   5.284
   27CHL1   C11 1958   0.076   6.752   5.485
   27CHL1  H11A 1959   0.054   6.848   5.504
   27CHL1  H11B 1960   0.013   6.715   5.561
   27CHL1    C9 1961   0.200   6.692   5.548
   27CHL1    H9 1962   0.180   6.582   5.545
   27CHL1   C10 1963   0.223   6.710   5.706
   27CHL1   C19 1964   0.228   6.844   5.762
   27CHL1  H19A 1965   0.318   6.906   5.732
   27CHL1  H19B 1966   0.127   6.872   5.730
   27CHL1  H19C 1967   0.205   6.892   5.858
   27CHL1    C1 1968   0.118   6.646   5.796
   27CHL1   H1A 1969   0.013   6.673   5.772
   27CHL1   H1B 1970   0.131   6.539   5.775
   27CHL1    C2 1971   0.140   6.684   5.945
   27CHL1   H2A 1972   0.078   6.617   6.005
   27CHL1   H2B 1973   0.101   6.787   5.968
   27CHL1   C20 1974   0.090   6.788   4.989
   27CHL1   H20 1975   0.133   6.887   4.964
   27CHL1   C21 1976  -0.039   6.819   5.024
   27CHL1  H21A 1977  -0.036   6.914   5.079
   27CHL1  H21B 1978  -0.093   6.733   5.076
   27CHL1  H21C 1979  -0.099   6.859   4.942
   27CHL1   C22 1980   0.060   6.700   4.871
   27CHL1  H22A 1981   0.156   6.650   4.853
   27CHL1  H22B 1982  -0.017   6.624   4.900
   27CHL1   C23 1983   0.008   6.772   4.745
   27CHL1  H23A 1984  -0.024   6.696   4.672
   27CHL1  H23B 1985  -0.081   6.835   4.762
   27CHL1   C24 1986   0.113   6.861   4.680
   27CHL1  H24A 1987   0.065   6.914   4.595
   27CHL1  H24B 1988   0.150   6.940   4.749
   27CHL1   C25 1989   0.229   6.778   4.625
   27CHL1   H25 1990   0.271   6.710   4.703
   27CHL1   C26 1991   0.185   6.696   4.504
   27CHL1  H26A 1992   0.276   6.664   4.449
   27CHL1  H26B 1993   0.130   6.606   4.534
   27CHL1  H26C 1994   0.121   6.753   4.436
   27CHL1   C27 1995   0.339   6.872   4.581
   27CHL1  H27A 1996   0.307   6.941   4.501
   27CHL1  H27B 1997   0.362   6.935   4.670
   27CHL1  H27C 1998   0.427   6.813   4.548
   28CHL1    C3 1999   0.289   0.685   5.984
   28CHL1    H3 2000   0.183   0.648   5.982
   28CHL1    O3 2001   0.325   0.711   6.118
   28CHL1   H3' 2002   0.334   0.808   6.120
   28CHL1    C4 2003   0.374   0.573   5.926
   28CHL1   H4A 2004   0.482   0.585   5.948
   28CHL1   H4B 2005   0.341   0.481   5.982
   28CHL1    C5 2006   0.355   0.557   5.777
   28CHL1    C6 2007   0.347   0.435   5.727
   28CHL1    H6 2008   0.354   0.348   5.796
   28CHL1    C7 2009   0.340   0.412   5.580
   28CHL1   H7A 2010   0.426   0.347   5.555
   28CHL1   H7B 2011   0.256   0.352   5.551
   28CHL1    C8 2012   0.328   0.537   5.488
   28CHL1    H8 2013   0.434   0.558   5.466
   28CHL1   C14 2014   0.242   0.529   5.359
   28CHL1   H14 2015   0.138   0.499   5.378
   28CHL1   C15 2016   0.281   0.434   5.274
   28CHL1  H15A 2017   0.392   0.443   5.298
   28CHL1  H15B 2018   0.242   0.342   5.315
   28CHL1   C16 2019   0.254   0.435   5.123
   28CHL1  H16A 2020   0.348   0.436   5.062
   28CHL1  H16B 2021   0.198   0.346   5.084
   28CHL1   C17 2022   0.184   0.565   5.130
   28CHL1   H17 2023   0.080   0.538   5.162
   28CHL1   C13 2024   0.253   0.631   5.252
   28CHL1   C18 2025   0.404   0.659   5.215
   28CHL1  H18A 2026   0.410   0.743   5.145
   28CHL1  H18B 2027   0.463   0.679   5.306
   28CHL1  H18C 2028   0.458   0.576   5.165
   28CHL1   C12 2029   0.177   0.737   5.321
   28CHL1  H12A 2030   0.183   0.825   5.256
   28CHL1  H12B 2031   0.071   0.701   5.331
   28CHL1   C11 2032   0.239   0.769   5.458
   28CHL1  H11A 2033   0.339   0.811   5.433
   28CHL1  H11B 2034   0.173   0.845   5.502
   28CHL1    C9 2035   0.262   0.651   5.558
   28CHL1    H9 2036   0.159   0.617   5.588
   28CHL1   C10 2037   0.334   0.683   5.689
   28CHL1   C19 2038   0.475   0.742   5.661
   28CHL1  H19A 2039   0.467   0.842   5.614
   28CHL1  H19B 2040   0.532   0.753   5.755
   28CHL1  H19C 2041   0.537   0.679   5.593
   28CHL1    C1 2042   0.244   0.784   5.764
   28CHL1   H1A 2043   0.227   0.876   5.705
   28CHL1   H1B 2044   0.145   0.735   5.779
   28CHL1    C2 2045   0.297   0.814   5.903
   28CHL1   H2A 2046   0.232   0.890   5.951
   28CHL1   H2B 2047   0.401   0.854   5.898
   28CHL1   C20 2048   0.178   0.630   4.995
   28CHL1   H20 2049   0.275   0.612   4.941
   28CHL1   C21 2050   0.153   0.780   5.003
   28CHL1  H21A 2051   0.054   0.798   5.050
   28CHL1  H21B 2052   0.154   0.823   4.901
   28CHL1  H21C 2053   0.231   0.833   5.060
   28CHL1   C22 2054   0.063   0.565   4.919
   28CHL1  H22A 2055   0.063   0.454   4.929
   28CHL1  H22B 2056  -0.034   0.603   4.959
   28CHL1   C23 2057   0.067   0.596   4.773
   28CHL1  H23A 2058  -0.026   0.558   4.731
   28CHL1  H23B 2059   0.083   0.703   4.751
   28CHL1   C24 2060   0.165   0.514   4.700
   28CHL1  H24A 2061   0.267   0.522   4.741
   28CHL1  H24B 2062   0.133   0.406   4.708
   28CHL1   C25 2063   0.164   0.560   4.557
   28CHL1   H25 2064   0.065   0.535   4.508
   28CHL1   C26 2065   0.215   0.696   4.518
   28CHL1  H26A 2066   0.167   0.771   4.580
   28CHL1  H26B 2067   0.325   0.693   4.534
   28CHL1  H26C 2068   0.197   0.717   4.410
   28CHL1   C27 2069   0.276   0.484   4.504
   28CHL1  H27A 2070   0.382   0.496   4.516
   28CHL1  H27B 2071   0.255   0.382   4.545
   28CHL1  H27C 2072   0.260   0.505   4.395
   29CHL1    C3 2073   3.697   3.212   2.521
   29CHL1    H3 2074   3.740   3.309   2.554
   29CHL1    O3 2075   3.706   3.202   2.380
   29CHL1   H3' 2076   3.798   3.222   2.359
   29CHL1    C4 2077   3.782   3.102   2.588
   29CHL1   H4A 2078   3.755   3.002   2.544
   29CHL1   H4B 2079   3.888   3.108   2.560
   29CHL1    C5 2080   3.772   3.123   2.739
   29CHL1    C6 2081   3.872   3.138   2.827
   29CHL1    H6 2082   3.975   3.134   2.793
   29CHL1    C7 2083   3.853   3.152   2.975
   29CHL1   H7A 2084   3.931   3.096   3.030
   29CHL1   H7B 2085   3.860   3.260   3.004
   29CHL1    C8 2086   3.715   3.110   3.027
   29CHL1    H8 2087   3.715   2.998   3.029
   29CHL1   C14 2088   3.694   3.178   3.163
   29CHL1   H14 2089   3.680   3.286   3.141
   29CHL1   C15 2090   3.802   3.162   3.271
   29CHL1  H15A 2091   3.854   3.064   3.265
   29CHL1  H15B 2092   3.875   3.242   3.255
   29CHL1   C16 2093   3.730   3.180   3.407
   29CHL1  H16A 2094   3.747   3.097   3.477
   29CHL1  H16B 2095   3.761   3.277   3.451
   29CHL1   C17 2096   3.580   3.199   3.374
   29CHL1   H17 2097   3.581   3.306   3.353
   29CHL1   C13 2098   3.568   3.148   3.232
   29CHL1   C18 2099   3.591   3.008   3.254
   29CHL1  H18A 2100   3.636   2.964   3.344
   29CHL1  H18B 2101   3.489   3.010   3.288
   29CHL1  H18C 2102   3.594   2.942   3.166
   29CHL1   C12 2103   3.446   3.191   3.148
   29CHL1  H12A 2104   3.344   3.155   3.175
   29CHL1  H12B 2105   3.438   3.291   3.172
   29CHL1   C11 2106   3.466   3.169   2.998
   29CHL1  H11A 2107   3.466   3.067   3.020
   29CHL1  H11B 2108   3.376   3.186   2.937
   29CHL1    C9 2109   3.609   3.167   2.935
   29CHL1    H9 2110   3.626   3.276   2.934
   29CHL1   C10 2111   3.631   3.128   2.786
   29CHL1   C19 2112   3.639   2.980   2.743
   29CHL1  H19A 2113   3.649   2.896   2.815
   29CHL1  H19B 2114   3.538   3.012   2.748
   29CHL1  H19C 2115   3.612   2.936   2.645
   29CHL1    C1 2116   3.524   3.211   2.707
   29CHL1   H1A 2117   3.418   3.177   2.723
   29CHL1   H1B 2118   3.531   3.311   2.753
   29CHL1    C2 2119   3.547   3.214   2.557
   29CHL1   H2A 2120   3.503   3.309   2.517
   29CHL1   H2B 2121   3.493   3.128   2.512
   29CHL1   C20 2122   3.481   3.161   3.491
   29CHL1   H20 2123   3.496   3.053   3.511
   29CHL1   C21 2124   3.326   3.169   3.463
   29CHL1  H21A 2125   3.279   3.256   3.427
   29CHL1  H21B 2126   3.263   3.148   3.551
   29CHL1  H21C 2127   3.296   3.117   3.371
   29CHL1   C22 2128   3.518   3.229   3.624
   29CHL1  H22A 2129   3.594   3.308   3.611
   29CHL1  H22B 2130   3.425   3.271   3.668
   29CHL1   C23 2131   3.568   3.137   3.734
   29CHL1  H23A 2132   3.474   3.087   3.752
   29CHL1  H23B 2133   3.644   3.064   3.700
   29CHL1   C24 2134   3.604   3.210   3.863
   29CHL1  H24A 2135   3.684   3.281   3.837
   29CHL1  H24B 2136   3.512   3.267   3.894
   29CHL1   C25 2137   3.655   3.125   3.982
   29CHL1   H25 2138   3.581   3.048   4.000
   29CHL1   C26 2139   3.796   3.067   3.957
   29CHL1  H26A 2140   3.862   3.152   3.932
   29CHL1  H26B 2141   3.836   3.021   4.050
   29CHL1  H26C 2142   3.801   2.991   3.877
   29CHL1   C27 2143   3.661   3.206   4.111
   29CHL1  H27A 2144   3.740   3.283   4.100
   29CHL1  H27B 2145   3.564   3.255   4.133
   29CHL1  H27C 2146   3.688   3.139   4.196
   30CHL1    C3 2147   3.963   4.615   2.516
   30CHL1    H3 2148   4.004   4.511   2.518
   30CHL1    O3 2149   3.938   4.647   2.380
   30CHL1   H3' 2150   3.909   4.739   2.374
   30CHL1    C4 2151   3.831   4.613   2.595
   30CHL1   H4A 2152   3.782   4.713   2.585
   30CHL1   H4B 2153   3.762   4.542   2.546
   30CHL1    C5 2154   3.853   4.576   2.741
   30CHL1    C6 2155   3.789   4.478   2.805
   30CHL1    H6 2156   3.716   4.417   2.750
   30CHL1    C7 2157   3.805   4.449   2.952
   30CHL1   H7A 2158   3.710   4.424   3.002
   30CHL1   H7B 2159   3.868   4.357   2.960
   30CHL1    C8 2160   3.870   4.567   3.031
   30CHL1    H8 2161   3.797   4.647   3.048
   30CHL1   C14 2162   3.912   4.517   3.166
   30CHL1   H14 2163   3.985   4.449   3.121
   30CHL1   C15 2164   3.804   4.458   3.262
   30CHL1  H15A 2165   3.716   4.525   3.255
   30CHL1  H15B 2166   3.770   4.356   3.235
   30CHL1   C16 2167   3.864   4.472   3.406
   30CHL1  H16A 2168   3.800   4.539   3.466
   30CHL1  H16B 2169   3.873   4.386   3.472
   30CHL1   C17 2170   4.007   4.528   3.390
   30CHL1   H17 2171   4.078   4.444   3.376
   30CHL1   C13 2172   3.996   4.602   3.256
   30CHL1   C18 2173   3.910   4.714   3.287
   30CHL1  H18A 2174   3.885   4.766   3.193
   30CHL1  H18B 2175   3.812   4.699   3.337
   30CHL1  H18C 2176   3.973   4.780   3.351
   30CHL1   C12 2177   4.123   4.645   3.188
   30CHL1  H12A 2178   4.168   4.733   3.244
   30CHL1  H12B 2179   4.186   4.556   3.194
   30CHL1   C11 2180   4.107   4.684   3.040
   30CHL1  H11A 2181   4.085   4.781   3.073
   30CHL1  H11B 2182   4.201   4.708   2.987
   30CHL1    C9 2183   3.993   4.616   2.953
   30CHL1    H9 2184   4.038   4.525   2.916
   30CHL1   C10 2185   3.959   4.659   2.809
   30CHL1   C19 2186   3.880   4.782   2.823
   30CHL1  H19A 2187   3.803   4.787   2.904
   30CHL1  H19B 2188   3.969   4.839   2.851
   30CHL1  H19C 2189   3.841   4.833   2.734
   30CHL1    C1 2190   4.090   4.677   2.725
   30CHL1   H1A 2191   4.156   4.755   2.771
   30CHL1   H1B 2192   4.146   4.581   2.728
   30CHL1    C2 2193   4.066   4.711   2.577
   30CHL1   H2A 2194   4.161   4.701   2.520
   30CHL1   H2B 2195   4.032   4.816   2.568
   30CHL1   C20 2196   4.056   4.602   3.514
   30CHL1   H20 2197   4.010   4.702   3.520
   30CHL1   C21 2198   4.205   4.625   3.502
   30CHL1  H21A 2199   4.259   4.646   3.596
   30CHL1  H21B 2200   4.219   4.717   3.441
   30CHL1  H21C 2201   4.255   4.538   3.454
   30CHL1   C22 2202   4.025   4.532   3.646
   30CHL1  H22A 2203   3.916   4.513   3.656
   30CHL1  H22B 2204   4.077   4.435   3.655
   30CHL1   C23 2205   4.063   4.622   3.763
   30CHL1  H23A 2206   4.065   4.553   3.849
   30CHL1  H23B 2207   4.164   4.667   3.761
   30CHL1   C24 2208   3.961   4.736   3.769
   30CHL1  H24A 2209   3.947   4.796   3.678
   30CHL1  H24B 2210   3.863   4.701   3.809
   30CHL1   C25 2211   4.008   4.853   3.844
   30CHL1   H25 2212   4.105   4.895   3.818
   30CHL1   C26 2213   3.910   4.957   3.867
   30CHL1  H26A 2214   3.805   4.926   3.889
   30CHL1  H26B 2215   3.945   5.003   3.964
   30CHL1  H26C 2216   3.923   5.029   3.791
   30CHL1   C27 2217   4.005   4.814   3.973
   30CHL1  H27A 2218   3.898   4.805   3.993
   30CHL1  H27B 2219   4.062   4.722   3.998
   30CHL1  H27C 2220   4.037   4.888   4.051
   31CHL1    C3 2221   3.191   4.802   2.515
   31CHL1    H3 2222   3.092   4.763   2.551
   31CHL1    O3 2223   3.196   4.785   2.374
   31CHL1   H3' 2224   3.119   4.836   2.339
   31CHL1    C4 2225   3.202   4.951   2.549
   31CHL1   H4A 2226   3.294   4.993   2.505
   31CHL1   H4B 2227   3.116   5.003   2.501
   31CHL1    C5 2228   3.201   4.974   2.698
   31CHL1    C6 2229   3.110   5.054   2.755
   31CHL1    H6 2230   3.042   5.115   2.692
   31CHL1    C7 2231   3.099   5.068   2.903
   31CHL1   H7A 2232   3.081   5.172   2.927
   31CHL1   H7B 2233   3.008   5.010   2.931
   31CHL1    C8 2234   3.224   5.017   2.982
   31CHL1    H8 2235   3.307   5.090   2.961
   31CHL1   C14 2236   3.200   4.997   3.133
   31CHL1   H14 2237   3.120   4.921   3.145
   31CHL1   C15 2238   3.137   5.107   3.204
   31CHL1  H15A 2239   3.171   5.183   3.130
   31CHL1  H15B 2240   3.027   5.107   3.202
   31CHL1   C16 2241   3.190   5.108   3.350
   31CHL1  H16A 2242   3.263   5.188   3.373
   31CHL1  H16B 2243   3.106   5.115   3.422
   31CHL1   C17 2244   3.271   4.979   3.363
   31CHL1   H17 2245   3.196   4.902   3.390
   31CHL1   C13 2246   3.321   4.958   3.218
   31CHL1   C18 2247   3.441   5.055   3.196
   31CHL1  H18A 2248   3.524   5.031   3.265
   31CHL1  H18B 2249   3.479   5.050   3.093
   31CHL1  H18C 2250   3.411   5.161   3.215
   31CHL1   C12 2251   3.349   4.816   3.174
   31CHL1  H12A 2252   3.440   4.778   3.224
   31CHL1  H12B 2253   3.262   4.756   3.207
   31CHL1   C11 2254   3.366   4.806   3.020
   31CHL1  H11A 2255   3.467   4.843   2.994
   31CHL1  H11B 2256   3.362   4.698   2.994
   31CHL1    C9 2257   3.264   4.882   2.930
   31CHL1    H9 2258   3.168   4.825   2.938
   31CHL1   C10 2259   3.300   4.887   2.779
   31CHL1   C19 2260   3.437   4.955   2.754
   31CHL1  H19A 2261   3.521   4.893   2.791
   31CHL1  H19B 2262   3.456   4.970   2.646
   31CHL1  H19C 2263   3.443   5.055   2.801
   31CHL1    C1 2264   3.301   4.740   2.732
   31CHL1   H1A 2265   3.387   4.686   2.777
   31CHL1   H1B 2266   3.207   4.692   2.770
   31CHL1    C2 2267   3.304   4.722   2.580
   31CHL1   H2A 2268   3.298   4.613   2.560
   31CHL1   H2B 2269   3.401   4.757   2.539
   31CHL1   C20 2270   3.371   4.984   3.479
   31CHL1   H20 2271   3.451   5.059   3.459
   31CHL1   C21 2272   3.443   4.847   3.499
   31CHL1  H21A 2273   3.503   4.821   3.411
   31CHL1  H21B 2274   3.370   4.765   3.516
   31CHL1  H21C 2275   3.513   4.851   3.585
   31CHL1   C22 2276   3.304   5.028   3.610
   31CHL1  H22A 2277   3.224   5.105   3.605
   31CHL1  H22B 2278   3.252   4.939   3.652
   31CHL1   C23 2279   3.408   5.082   3.706
   31CHL1  H23A 2280   3.506   5.032   3.689
   31CHL1  H23B 2281   3.424   5.190   3.698
   31CHL1   C24 2282   3.363   5.044   3.842
   31CHL1  H24A 2283   3.268   5.086   3.881
   31CHL1  H24B 2284   3.361   4.932   3.841
   31CHL1   C25 2285   3.460   5.075   3.945
   31CHL1   H25 2286   3.560   5.041   3.910
   31CHL1   C26 2287   3.463   5.219   4.001
   31CHL1  H26A 2288   3.364   5.245   4.032
   31CHL1  H26B 2289   3.519   5.236   4.094
   31CHL1  H26C 2290   3.495   5.293   3.928
   31CHL1   C27 2291   3.418   4.974   4.048
   31CHL1  H27A 2292   3.468   4.875   4.044
   31CHL1  H27B 2293   3.502   5.016   4.086
   31CHL1  H27C 2294   3.362   5.006   4.137
   32CHL1    C3 2295   3.937   2.427   2.518
   32CHL1    H3 2296   3.833   2.388   2.528
   32CHL1    O3 2297   3.973   2.434   2.381
   32CHL1   H3' 2298   3.936   2.354   2.341
   32CHL1    C4 2299   3.949   2.567   2.582
   32CHL1   H4A 2300   4.051   2.605   2.565
   32CHL1   H4B 2301   3.880   2.636   2.529
   32CHL1    C5 2302   3.918   2.562   2.730
   32CHL1    C6 2303   3.816   2.630   2.782
   32CHL1    H6 2304   3.751   2.694   2.720
   32CHL1    C7 2305   3.780   2.623   2.926
   32CHL1   H7A 2306   3.747   2.722   2.964
   32CHL1   H7B 2307   3.696   2.552   2.934
   32CHL1    C8 2308   3.894   2.567   3.015
   32CHL1    H8 2309   3.972   2.646   3.025
   32CHL1   C14 2310   3.832   2.528   3.146
   32CHL1   H14 2311   3.757   2.450   3.119
   32CHL1   C15 2312   3.752   2.636   3.218
   32CHL1  H15A 2313   3.804   2.734   3.214
   32CHL1  H15B 2314   3.653   2.645   3.169
   32CHL1   C16 2315   3.747   2.583   3.362
   32CHL1  H16A 2316   3.800   2.657   3.427
   32CHL1  H16B 2317   3.644   2.573   3.399
   32CHL1   C17 2318   3.830   2.450   3.366
   32CHL1   H17 2319   3.761   2.366   3.339
   32CHL1   C13 2320   3.926   2.464   3.248
   32CHL1   C18 2321   4.034   2.567   3.288
   32CHL1  H18A 2322   4.069   2.625   3.201
   32CHL1  H18B 2323   3.997   2.642   3.361
   32CHL1  H18C 2324   4.120   2.516   3.334
   32CHL1   C12 2325   3.979   2.333   3.185
   32CHL1  H12A 2326   4.044   2.274   3.252
   32CHL1  H12B 2327   3.891   2.270   3.159
   32CHL1   C11 2328   4.049   2.362   3.051
   32CHL1  H11A 2329   4.145   2.413   3.072
   32CHL1  H11B 2330   4.072   2.264   3.004
   32CHL1    C9 2331   3.954   2.440   2.955
   32CHL1    H9 2332   3.867   2.370   2.944
   32CHL1   C10 2333   4.003   2.462   2.813
   32CHL1   C19 2334   4.142   2.520   2.827
   32CHL1  H19A 2335   4.172   2.535   2.722
   32CHL1  H19B 2336   4.144   2.616   2.882
   32CHL1  H19C 2337   4.218   2.453   2.871
   32CHL1    C1 2338   4.009   2.326   2.737
   32CHL1   H1A 2339   4.084   2.259   2.785
   32CHL1   H1B 2340   3.908   2.281   2.750
   32CHL1    C2 2341   4.034   2.330   2.586
   32CHL1   H2A 2342   4.020   2.227   2.544
   32CHL1   H2B 2343   4.136   2.364   2.560
   32CHL1   C20 2344   3.882   2.417   3.508
   32CHL1   H20 2345   3.947   2.499   3.546
   32CHL1   C21 2346   3.967   2.288   3.510
   32CHL1  H21A 2347   4.071   2.308   3.475
   32CHL1  H21B 2348   3.922   2.211   3.446
   32CHL1  H21C 2349   3.976   2.248   3.614
   32CHL1   C22 2350   3.760   2.409   3.601
   32CHL1  H22A 2351   3.707   2.508   3.601
   32CHL1  H22B 2352   3.687   2.332   3.567
   32CHL1   C23 2353   3.791   2.388   3.747
   32CHL1  H23A 2354   3.837   2.290   3.769
   32CHL1  H23B 2355   3.857   2.469   3.786
   32CHL1   C24 2356   3.665   2.394   3.823
   32CHL1  H24A 2357   3.611   2.490   3.800
   32CHL1  H24B 2358   3.590   2.313   3.807
   32CHL1   C25 2359   3.704   2.386   3.966
   32CHL1   H25 2360   3.764   2.475   4.002
   32CHL1   C26 2361   3.574   2.396   4.018
   32CHL1  H26A 2362   3.540   2.491   3.970
   32CHL1  H26B 2363   3.484   2.334   4.014
   32CHL1  H26C 2364   3.609   2.411   4.123
   32CHL1   C27 2365   3.760   2.259   4.026
   32CHL1  H27A 2366   3.774   2.271   4.135
   32CHL1  H27B 2367   3.686   2.178   4.007
   32CHL1  H27C 2368   3.858   2.242   3.981
   33CHL1    C3 2369   2.105   3.509   2.519
   33CHL1    H3 2370   2.215   3.506   2.540
   33CHL1    O3 2371   2.086   3.523   2.380
   33CHL1   H3' 2372   1.992   3.501   2.369
   33CHL1    C4 2373   2.039   3.379   2.565
   33CHL1   H4A 2374   1.934   3.369   2.529
   33CHL1   H4B 2375   2.092   3.296   2.513
   33CHL1    C5 2376   2.045   3.372   2.717
   33CHL1    C6 2377   2.098   3.266   2.769
   33CHL1    H6 2378   2.107   3.204   2.688
   33CHL1    C7 2379   2.142   3.228   2.907
   33CHL1   H7A 2380   2.122   3.123   2.939
   33CHL1   H7B 2381   2.251   3.241   2.909
   33CHL1    C8 2382   2.073   3.332   2.995
   33CHL1    H8 2383   1.967   3.298   2.997
   33CHL1   C14 2384   2.128   3.335   3.132
   33CHL1   H14 2385   2.238   3.353   3.121
   33CHL1   C15 2386   2.111   3.207   3.211
   33CHL1  H15A 2387   2.018   3.158   3.205
   33CHL1  H15B 2388   2.185   3.136   3.172
   33CHL1   C16 2389   2.111   3.255   3.356
   33CHL1  H16A 2390   2.052   3.202   3.429
   33CHL1  H16B 2391   2.195   3.206   3.400
   33CHL1   C17 2392   2.117   3.414   3.355
   33CHL1   H17 2393   2.220   3.447   3.335
   33CHL1   C13 2394   2.070   3.445   3.218
   33CHL1   C18 2395   1.919   3.424   3.235
   33CHL1  H18A 2396   1.896   3.334   3.295
   33CHL1  H18B 2397   1.873   3.511   3.286
   33CHL1  H18C 2398   1.872   3.411   3.137
   33CHL1   C12 2399   2.120   3.579   3.163
   33CHL1  H12A 2400   2.093   3.662   3.229
   33CHL1  H12B 2401   2.231   3.583   3.150
   33CHL1   C11 2402   2.056   3.594   3.029
   33CHL1  H11A 2403   1.947   3.604   3.046
   33CHL1  H11B 2404   2.094   3.688   2.985
   33CHL1    C9 2405   2.087   3.473   2.936
   33CHL1    H9 2406   2.197   3.482   2.916
   33CHL1   C10 2407   2.016   3.488   2.803
   33CHL1   C19 2408   1.862   3.480   2.819
   33CHL1  H19A 2409   1.829   3.561   2.886
   33CHL1  H19B 2410   1.812   3.492   2.720
   33CHL1  H19C 2411   1.829   3.383   2.861
   33CHL1    C1 2412   2.064   3.618   2.740
   33CHL1   H1A 2413   2.011   3.702   2.789
   33CHL1   H1B 2414   2.173   3.628   2.761
   33CHL1    C2 2415   2.038   3.626   2.591
   33CHL1   H2A 2416   2.075   3.725   2.557
   33CHL1   H2B 2417   1.929   3.621   2.574
   33CHL1   C20 2418   2.047   3.495   3.473
   33CHL1   H20 2419   1.942   3.463   3.484
   33CHL1   C21 2420   2.076   3.643   3.482
   33CHL1  H21A 2421   2.180   3.669   3.453
   33CHL1  H21B 2422   2.065   3.675   3.589
   33CHL1  H21C 2423   1.997   3.688   3.422
   33CHL1   C22 2424   2.109   3.465   3.603
   33CHL1  H22A 2425   2.073   3.363   3.581
   33CHL1  H22B 2426   2.212   3.501   3.582
   33CHL1   C23 2427   2.081   3.482   3.751
   33CHL1  H23A 2428   2.049   3.583   3.772
   33CHL1  H23B 2429   2.008   3.399   3.775
   33CHL1   C24 2430   2.200   3.477   3.852
   33CHL1  H24A 2431   2.217   3.380   3.834
   33CHL1  H24B 2432   2.309   3.490   3.839
   33CHL1   C25 2433   2.150   3.497   3.994
   33CHL1   H25 2434   2.118   3.601   3.983
   33CHL1   C26 2435   2.040   3.397   4.045
   33CHL1  H26A 2436   2.069   3.295   4.073
   33CHL1  H26B 2437   2.001   3.435   4.141
   33CHL1  H26C 2438   1.962   3.384   3.969
   33CHL1   C27 2439   2.257   3.505   4.095
   33CHL1  H27A 2440   2.361   3.524   4.058
   33CHL1  H27B 2441   2.240   3.535   4.200
   33CHL1  H27C 2442   2.245   3.399   4.111
   34CHL1    C3 2443   4.530   5.082   2.515
   34CHL1    H3 2444   4.537   4.976   2.549
   34CHL1    O3 2445   4.491   5.091   2.380
   34CHL1   H3' 2446   4.447   5.006   2.373
   34CHL1    C4 2447   4.431   5.157   2.604
   34CHL1   H4A 2448   4.422   5.264   2.572
   34CHL1   H4B 2449   4.336   5.104   2.584
   34CHL1    C5 2450   4.475   5.142   2.748
   34CHL1    C6 2451   4.406   5.065   2.830
   34CHL1    H6 2452   4.308   5.034   2.794
   34CHL1    C7 2453   4.439   5.040   2.975
   34CHL1   H7A 2454   4.350   5.047   3.042
   34CHL1   H7B 2455   4.476   4.938   2.989
   34CHL1    C8 2456   4.541   5.144   3.027
   34CHL1    H8 2457   4.498   5.246   3.041
   34CHL1   C14 2458   4.595   5.098   3.160
   34CHL1   H14 2459   4.648   5.003   3.136
   34CHL1   C15 2460   4.500   5.066   3.274
   34CHL1  H15A 2461   4.422   5.144   3.274
   34CHL1  H15B 2462   4.459   4.964   3.263
   34CHL1   C16 2463   4.586   5.077   3.399
   34CHL1  H16A 2464   4.545   5.156   3.466
   34CHL1  H16B 2465   4.594   4.982   3.455
   34CHL1   C17 2466   4.724   5.126   3.349
   34CHL1   H17 2467   4.790   5.038   3.335
   34CHL1   C13 2468   4.694   5.191   3.221
   34CHL1   C18 2469   4.640   5.332   3.255
   34CHL1  H18A 2470   4.578   5.330   3.347
   34CHL1  H18B 2471   4.725   5.403   3.270
   34CHL1  H18C 2472   4.578   5.374   3.175
   34CHL1   C12 2473   4.808   5.198   3.129
   34CHL1  H12A 2474   4.879   5.261   3.180
   34CHL1  H12B 2475   4.865   5.108   3.121
   34CHL1   C11 2476   4.761   5.248   2.995
   34CHL1  H11A 2477   4.738   5.355   3.005
   34CHL1  H11B 2478   4.844   5.250   2.931
   34CHL1    C9 2479   4.653   5.160   2.928
   34CHL1    H9 2480   4.695   5.057   2.917
   34CHL1   C10 2481   4.606   5.204   2.786
   34CHL1   C19 2482   4.601   5.361   2.780
   34CHL1  H19A 2483   4.565   5.401   2.876
   34CHL1  H19B 2484   4.701   5.407   2.760
   34CHL1  H19C 2485   4.533   5.399   2.702
   34CHL1    C1 2486   4.694   5.137   2.678
   34CHL1   H1A 2487   4.774   5.208   2.671
   34CHL1   H1B 2488   4.728   5.036   2.710
   34CHL1    C2 2489   4.663   5.142   2.530
   34CHL1   H2A 2490   4.744   5.090   2.473
   34CHL1   H2B 2491   4.659   5.249   2.497
   34CHL1   C20 2492   4.785   5.221   3.448
   34CHL1   H20 2493   4.717   5.292   3.498
   34CHL1   C21 2494   4.913   5.281   3.408
   34CHL1  H21A 2495   4.987   5.215   3.356
   34CHL1  H21B 2496   4.958   5.305   3.505
   34CHL1  H21C 2497   4.902   5.378   3.358
   34CHL1   C22 2498   4.827   5.152   3.565
   34CHL1  H22A 2499   4.746   5.082   3.570
   34CHL1  H22B 2500   4.914   5.096   3.522
   34CHL1   C23 2501   4.840   5.248   3.695
   34CHL1  H23A 2502   4.935   5.289   3.695
   34CHL1  H23B 2503   4.758   5.318   3.715
   34CHL1   C24 2504   4.904   5.204   3.832
   34CHL1  H24A 2505   4.824   5.158   3.775
   34CHL1  H24B 2506   4.996   5.149   3.828
   34CHL1   C25 2507   4.885   5.190   3.994
   34CHL1   H25 2508   4.969   5.244   3.989
   34CHL1   C26 2509   4.757   5.266   4.030
   34CHL1  H26A 2510   4.755   5.297   4.136
   34CHL1  H26B 2511   4.728   5.327   3.942
   34CHL1  H26C 2512   4.664   5.212   4.036
   34CHL1   C27 2513   4.951   5.072   4.102
   34CHL1  H27A 2514   4.881   5.001   4.146
   34CHL1  H27B 2515   5.027   5.005   4.059
   34CHL1  H27C 2516   4.988   5.091   4.203
   35CHL1    C3 2517   2.397   4.931   2.509
   35CHL1    H3 2518   2.302   4.876   2.491
   35CHL1    O3 2519   2.462   4.965   2.387
   35CHL1   H3' 2520   2.473   4.882   2.337
   35CHL1    C4 2521   2.373   5.065   2.581
   35CHL1   H4A 2522   2.470   5.119   2.577
   35CHL1   H4B 2523   2.305   5.129   2.520
   35CHL1    C5 2524   2.328   5.050   2.725
   35CHL1    C6 2525   2.208   5.094   2.770
   35CHL1    H6 2526   2.138   5.143   2.701
   35CHL1    C7 2527   2.163   5.081   2.913
   35CHL1   H7A 2528   2.114   5.171   2.955
   35CHL1   H7B 2529   2.083   5.005   2.920
   35CHL1    C8 2530   2.281   5.049   3.007
   35CHL1    H8 2531   2.347   5.139   3.017
   35CHL1   C14 2532   2.222   5.009   3.141
   35CHL1   H14 2533   2.157   4.921   3.114
   35CHL1   C15 2534   2.130   5.108   3.214
   35CHL1  H15A 2535   2.177   5.209   3.218
   35CHL1  H15B 2536   2.031   5.118   3.164
   35CHL1   C16 2537   2.124   5.054   3.357
   35CHL1  H16A 2538   2.158   5.137   3.424
   35CHL1  H16B 2539   2.023   5.023   3.389
   35CHL1   C17 2540   2.227   4.937   3.366
   35CHL1   H17 2541   2.172   4.842   3.347
   35CHL1   C13 2542   2.320   4.956   3.244
   35CHL1   C18 2543   2.423   5.066   3.278
   35CHL1  H18A 2544   2.497   5.030   3.352
   35CHL1  H18B 2545   2.480   5.099   3.188
   35CHL1  H18C 2546   2.371   5.155   3.317
   35CHL1   C12 2547   2.387   4.832   3.184
   35CHL1  H12A 2548   2.459   4.791   3.257
   35CHL1  H12B 2549   2.313   4.753   3.160
   35CHL1   C11 2550   2.461   4.870   3.054
   35CHL1  H11A 2551   2.542   4.941   3.080
   35CHL1  H11B 2552   2.509   4.778   3.017
   35CHL1    C9 2553   2.365   4.935   2.949
   35CHL1    H9 2554   2.290   4.856   2.926
   35CHL1   C10 2555   2.428   4.970   2.812
   35CHL1   C19 2556   2.563   5.048   2.830
   35CHL1  H19A 2557   2.630   4.996   2.900
   35CHL1  H19B 2558   2.619   5.054   2.735
   35CHL1  H19C 2559   2.546   5.152   2.864
   35CHL1    C1 2560   2.451   4.834   2.738
   35CHL1   H1A 2561   2.527   4.773   2.793
   35CHL1   H1B 2562   2.354   4.779   2.738
   35CHL1    C2 2563   2.493   4.844   2.591
   35CHL1   H2A 2564   2.497   4.741   2.548
   35CHL1   H2B 2565   2.594   4.890   2.590
   35CHL1   C20 2566   2.286   4.927   3.508
   35CHL1   H20 2567   2.337   5.023   3.534
   35CHL1   C21 2568   2.390   4.814   3.517
   35CHL1  H21A 2569   2.419   4.786   3.620
   35CHL1  H21B 2570   2.486   4.843   3.468
   35CHL1  H21C 2571   2.351   4.723   3.467
   35CHL1   C22 2572   2.171   4.904   3.610
   35CHL1  H22A 2573   2.102   4.991   3.610
   35CHL1  H22B 2574   2.112   4.817   3.573
   35CHL1   C23 2575   2.215   4.876   3.755
   35CHL1  H23A 2576   2.135   4.811   3.794
   35CHL1  H23B 2577   2.299   4.806   3.764
   35CHL1   C24 2578   2.245   5.007   3.834
   35CHL1  H24A 2579   2.305   5.072   3.770
   35CHL1  H24B 2580   2.154   5.069   3.842
   35CHL1   C25 2581   2.318   4.993   3.974
   35CHL1   H25 2582   2.419   4.957   3.948
   35CHL1   C26 2583   2.325   5.122   4.053
   35CHL1  H26A 2584   2.222   5.155   4.083
   35CHL1  H26B 2585   2.383   5.103   4.146
   35CHL1  H26C 2586   2.375   5.197   3.990
   35CHL1   C27 2587   2.267   4.890   4.072
   35CHL1  H27A 2588   2.255   4.801   4.010
   35CHL1  H27B 2589   2.321   4.865   4.157
   35CHL1  H27C 2590   2.174   4.912   4.128
   36CHL1    C3 2591   3.381   1.809   2.520
   36CHL1    H3 2592   3.273   1.832   2.535
   36CHL1    O3 2593   3.403   1.806   2.380
   36CHL1   H3' 2594   3.354   1.729   2.350
   36CHL1    C4 2595   3.460   1.922   2.588
   36CHL1   H4A 2596   3.566   1.926   2.553
   36CHL1   H4B 2597   3.414   2.017   2.553
   36CHL1    C5 2598   3.454   1.919   2.740
   36CHL1    C6 2599   3.437   2.026   2.815
   36CHL1    H6 2600   3.417   2.121   2.765
   36CHL1    C7 2601   3.449   2.025   2.964
   36CHL1   H7A 2602   3.507   2.111   3.003
   36CHL1   H7B 2603   3.346   2.029   3.005
   36CHL1    C8 2604   3.517   1.901   3.023
   36CHL1    H8 2605   3.628   1.908   3.013
   36CHL1   C14 2606   3.483   1.905   3.167
   36CHL1   H14 2607   3.372   1.897   3.173
   36CHL1   C15 2608   3.517   2.033   3.248
   36CHL1  H15A 2609   3.619   2.074   3.228
   36CHL1  H15B 2610   3.440   2.112   3.241
   36CHL1   C16 2611   3.511   1.985   3.389
   36CHL1  H16A 2612   3.611   2.003   3.432
   36CHL1  H16B 2613   3.441   2.031   3.461
   36CHL1   C17 2614   3.481   1.836   3.375
   36CHL1   H17 2615   3.372   1.818   3.386
   36CHL1   C13 2616   3.528   1.784   3.239
   36CHL1   C18 2617   3.679   1.767   3.230
   36CHL1  H18A 2618   3.724   1.685   3.290
   36CHL1  H18B 2619   3.720   1.753   3.130
   36CHL1  H18C 2620   3.716   1.863   3.263
   36CHL1   C12 2621   3.463   1.660   3.178
   36CHL1  H12A 2622   3.498   1.571   3.229
   36CHL1  H12B 2623   3.353   1.671   3.184
   36CHL1   C11 2624   3.499   1.643   3.033
   36CHL1  H11A 2625   3.607   1.618   3.031
   36CHL1  H11B 2626   3.448   1.554   2.991
   36CHL1    C9 2627   3.457   1.776   2.960
   36CHL1    H9 2628   3.348   1.781   2.977
   36CHL1   C10 2629   3.463   1.786   2.806
   36CHL1   C19 2630   3.600   1.774   2.785
   36CHL1  H19A 2631   3.637   1.758   2.682
   36CHL1  H19B 2632   3.676   1.833   2.840
   36CHL1  H19C 2633   3.598   1.673   2.833
   36CHL1    C1 2634   3.393   1.669   2.732
   36CHL1   H1A 2635   3.428   1.569   2.769
   36CHL1   H1B 2636   3.288   1.685   2.759
   36CHL1    C2 2637   3.410   1.669   2.578
   36CHL1   H2A 2638   3.339   1.595   2.535
   36CHL1   H2B 2639   3.512   1.637   2.548
   36CHL1   C20 2640   3.550   1.778   3.486
   36CHL1   H20 2641   3.653   1.761   3.470
   36CHL1   C21 2642   3.566   1.632   3.466
   36CHL1  H21A 2643   3.590   1.584   3.561
   36CHL1  H21B 2644   3.612   1.573   3.391
   36CHL1  H21C 2645   3.466   1.628   3.427
   36CHL1   C22 2646   3.512   1.820   3.635
   36CHL1  H22A 2647   3.531   1.929   3.656
   36CHL1  H22B 2648   3.417   1.862   3.661
   36CHL1   C23 2649   3.566   1.687   3.749
   36CHL1  H23A 2650   3.474   1.746   3.797
   36CHL1  H23B 2651   3.548   1.594   3.761
   36CHL1   C24 2652   3.767   1.639   3.827
   36CHL1  H24A 2653   3.787   1.566   3.757
   36CHL1  H24B 2654   3.859   1.710   3.808
   36CHL1   C25 2655   3.861   1.683   3.990
   36CHL1   H25 2656   3.823   1.601   4.049
   36CHL1   C26 2657   3.988   1.670   3.989
   36CHL1  H26A 2658   4.010   1.770   3.940
   36CHL1  H26B 2659   4.025   1.647   4.090
   36CHL1  H26C 2660   3.989   1.587   3.919
   36CHL1   C27 2661   3.852   1.836   4.087
   36CHL1  H27A 2662   3.871   1.822   4.192
   36CHL1  H27B 2663   3.872   1.936   4.039
   36CHL1  H27C 2664   3.748   1.882   4.103
   37CHL1    C3 2665   5.492   4.409   2.499
   37CHL1    H3 2666   5.549   4.497   2.467
   37CHL1    O3 2667   5.472   4.328   2.385
   37CHL1   H3' 2668   5.454   4.390   2.313
   37CHL1    C4 2669   5.573   4.354   2.614
   37CHL1   H4A 2670   5.513   4.266   2.634
   37CHL1   H4B 2671   5.673   4.341   2.573
   37CHL1    C5 2672   5.585   4.401   2.751
   37CHL1    C6 2673   5.702   4.421   2.806
   37CHL1    H6 2674   5.784   4.399   2.740
   37CHL1    C7 2675   5.727   4.472   2.944
   37CHL1   H7A 2676   5.798   4.413   3.003
   37CHL1   H7B 2677   5.768   4.573   2.933
   37CHL1    C8 2678   5.594   4.467   3.018
   37CHL1    H8 2679   5.567   4.361   3.038
   37CHL1   C14 2680   5.610   4.542   3.148
   37CHL1   H14 2681   5.632   4.648   3.118
   37CHL1   C15 2682   5.725   4.505   3.246
   37CHL1  H15A 2683   5.743   4.396   3.249
   37CHL1  H15B 2684   5.816   4.563   3.221
   37CHL1   C16 2685   5.675   4.545   3.383
   37CHL1  H16A 2686   5.656   4.458   3.451
   37CHL1  H16B 2687   5.740   4.617   3.437
   37CHL1   C17 2688   5.537   4.602   3.356
   37CHL1   H17 2689   5.551   4.703   3.315
   37CHL1   C13 2690   5.482   4.544   3.227
   37CHL1   C18 2691   5.433   4.403   3.267
   37CHL1  H18A 2692   5.484   4.368   3.359
   37CHL1  H18B 2693   5.324   4.406   3.288
   37CHL1  H18C 2694   5.451   4.330   3.190
   37CHL1   C12 2695   5.383   4.627   3.137
   37CHL1  H12A 2696   5.285   4.644   3.184
   37CHL1  H12B 2697   5.422   4.728   3.110
   37CHL1   C11 2698   5.355   4.553   3.007
   37CHL1  H11A 2699   5.300   4.460   3.033
   37CHL1  H11B 2700   5.290   4.616   2.944
   37CHL1    C9 2701   5.483   4.522   2.929
   37CHL1    H9 2702   5.522   4.620   2.889
   37CHL1   C10 2703   5.455   4.431   2.808
   37CHL1   C19 2704   5.391   4.293   2.846
   37CHL1  H19A 2705   5.359   4.238   2.755
   37CHL1  H19B 2706   5.460   4.224   2.900
   37CHL1  H19C 2707   5.300   4.307   2.905
   37CHL1    C1 2708   5.379   4.504   2.693
   37CHL1   H1A 2709   5.281   4.534   2.731
   37CHL1   H1B 2710   5.438   4.595   2.665
   37CHL1    C2 2711   5.357   4.428   2.561
   37CHL1   H2A 2712   5.300   4.485   2.485
   37CHL1   H2B 2713   5.306   4.330   2.578
   37CHL1   C20 2714   5.461   4.585   3.486
   37CHL1   H20 2715   5.441   4.484   3.524
   37CHL1   C21 2716   5.327   4.620   3.438
   37CHL1  H21A 2717   5.271   4.568   3.363
   37CHL1  H21B 2718   5.330   4.717   3.380
   37CHL1  H21C 2719   5.261   4.618   3.526
   37CHL1   C22 2720   5.530   4.661   3.604
   37CHL1  H22A 2721   5.639   4.663   3.602
   37CHL1  H22B 2722   5.515   4.767   3.612
   37CHL1   C23 2723   5.480   4.650   3.742
   37CHL1  H23A 2724   5.374   4.618   3.737
   37CHL1  H23B 2725   5.525   4.563   3.789
   37CHL1   C24 2726   5.519   4.787   3.812
   37CHL1  H24A 2727   5.475   4.885   3.822
   37CHL1  H24B 2728   5.438   4.787   3.884
   37CHL1   C25 2729   5.672   4.824   3.819
   37CHL1   H25 2730   5.700   4.857   3.717
   37CHL1   C26 2731   5.707   4.938   3.919
   37CHL1  H26A 2732   5.664   4.933   4.021
   37CHL1  H26B 2733   5.816   4.930   3.940
   37CHL1  H26C 2734   5.681   5.037   3.878
   37CHL1   C27 2735   5.765   4.706   3.854
   37CHL1  H27A 2736   5.736   4.604   3.819
   37CHL1  H27B 2737   5.870   4.726   3.872
   37CHL1  H27C 2738   5.761   4.700   3.961
   38CHL1    C3 2739   2.954   5.593   2.516
   38CHL1    H3 2740   3.022   5.680   2.530
   38CHL1    O3 2741   2.931   5.575   2.378
   38CHL1   H3' 2742   3.017   5.560   2.338
   38CHL1    C4 2743   3.022   5.465   2.565
   38CHL1   H4A 2744   2.961   5.379   2.530
   38CHL1   H4B 2745   3.120   5.458   2.513
   38CHL1    C5 2746   3.039   5.460   2.715
   38CHL1    C6 2747   3.162   5.442   2.765
   38CHL1    H6 2748   3.249   5.426   2.699
   38CHL1    C7 2749   3.193   5.438   2.911
   38CHL1   H7A 2750   3.260   5.351   2.931
   38CHL1   H7B 2751   3.251   5.529   2.937
   38CHL1    C8 2752   3.064   5.433   2.999
   38CHL1    H8 2753   3.017   5.334   2.997
   38CHL1   C14 2754   3.095   5.473   3.141
   38CHL1   H14 2755   3.131   5.577   3.134
   38CHL1   C15 2756   3.212   5.411   3.215
   38CHL1  H15A 2757   3.162   5.322   3.238
   38CHL1  H15B 2758   3.309   5.387   3.167
   38CHL1   C16 2759   3.199   5.448   3.359
   38CHL1  H16A 2760   3.204   5.362   3.430
   38CHL1  H16B 2761   3.278   5.518   3.384
   38CHL1   C17 2762   3.057   5.510   3.369
   38CHL1   H17 2763   3.074   5.619   3.353
   38CHL1   C13 2764   2.977   5.472   3.242
   38CHL1   C18 2765   2.907   5.335   3.267
   38CHL1  H18A 2766   2.979   5.263   3.306
   38CHL1  H18B 2767   2.833   5.339   3.350
   38CHL1  H18C 2768   2.857   5.295   3.177
   38CHL1   C12 2769   2.878   5.575   3.187
   38CHL1  H12A 2770   2.785   5.572   3.249
   38CHL1  H12B 2771   2.922   5.677   3.186
   38CHL1   C11 2772   2.838   5.544   3.043
   38CHL1  H11A 2773   2.777   5.452   3.049
   38CHL1  H11B 2774   2.773   5.627   3.005
   38CHL1    C9 2775   2.957   5.528   2.945
   38CHL1    H9 2776   3.009   5.628   2.944
   38CHL1   C10 2777   2.914   5.495   2.800
   38CHL1   C19 2778   2.815   5.374   2.804
   38CHL1  H19A 2779   2.862   5.285   2.850
   38CHL1  H19B 2780   2.724   5.397   2.862
   38CHL1  H19C 2781   2.779   5.347   2.703
   38CHL1    C1 2782   2.844   5.620   2.740
   38CHL1   H1A 2783   2.744   5.635   2.788
   38CHL1   H1B 2784   2.907   5.709   2.760
   38CHL1    C2 2785   2.821   5.614   2.589
   38CHL1   H2A 2786   2.769   5.706   2.554
   38CHL1   H2B 2787   2.755   5.528   2.568
   38CHL1   C20 2788   3.002   5.490   3.510
   38CHL1   H20 2789   2.977   5.382   3.527
   38CHL1   C21 2790   2.877   5.576   3.531
   38CHL1  H21A 2791   2.849   5.574   3.638
   38CHL1  H21B 2792   2.793   5.536   3.471
   38CHL1  H21C 2793   2.896   5.682   3.504
   38CHL1   C22 2794   3.105   5.529   3.617
   38CHL1  H22A 2795   3.206   5.553   3.578
   38CHL1  H22B 2796   3.068   5.624   3.662
   38CHL1   C23 2797   3.117   5.431   3.733
   38CHL1  H23A 2798   3.013   5.410   3.767
   38CHL1  H23B 2799   3.164   5.334   3.704
   38CHL1   C24 2800   3.198   5.500   3.843
   38CHL1  H24A 2801   3.303   5.514   3.808
   38CHL1  H24B 2802   3.153   5.600   3.860
   38CHL1   C25 2803   3.200   5.430   3.978
   38CHL1   H25 2804   3.221   5.323   3.958
   38CHL1   C26 2805   3.304   5.492   4.070
   38CHL1  H26A 2806   3.319   5.428   4.160
   38CHL1  H26B 2807   3.403   5.508   4.022
   38CHL1  H26C 2808   3.267   5.591   4.107
   38CHL1   C27 2809   3.068   5.436   4.051
   38CHL1  H27A 2810   2.990   5.386   3.990
   38CHL1  H27B 2811   3.079   5.383   4.148
   38CHL1  H27C 2812   3.042   5.542   4.069
   39CHL1    C3 2813   4.256   6.041   2.510
   39CHL1    H3 2814   4.291   6.147   2.505
   39CHL1    O3 2815   4.247   5.984   2.380
   39CHL1   H3' 2816   4.178   6.035   2.336
   39CHL1    C4 2817   4.360   5.964   2.589
   39CHL1   H4A 2818   4.339   5.855   2.579
   39CHL1   H4B 2819   4.457   5.981   2.538
   39CHL1    C5 2820   4.362   6.014   2.732
   39CHL1    C6 2821   4.469   6.069   2.790
   39CHL1    H6 2822   4.562   6.088   2.735
   39CHL1    C7 2823   4.463   6.104   2.936
   39CHL1   H7A 2824   4.563   6.085   2.981
   39CHL1   H7B 2825   4.433   6.209   2.941
   39CHL1    C8 2826   4.347   6.046   3.021
   39CHL1    H8 2827   4.369   5.939   3.038
   39CHL1   C14 2828   4.330   6.114   3.155
   39CHL1   H14 2829   4.315   6.225   3.144
   39CHL1   C15 2830   4.451   6.085   3.236
   39CHL1  H15A 2831   4.498   5.988   3.213
   39CHL1  H15B 2832   4.514   6.173   3.235
   39CHL1   C16 2833   4.400   6.070   3.374
   39CHL1  H16A 2834   4.430   6.049   3.476
   39CHL1  H16B 2835   4.510   6.080   3.390
   39CHL1   C17 2836   4.256   6.138   3.377
   39CHL1   H17 2837   4.233   6.244   3.350
   39CHL1   C13 2838   4.218   6.067   3.249
   39CHL1   C18 2839   4.234   5.915   3.287
   39CHL1  H18A 2840   4.239   5.857   3.195
   39CHL1  H18B 2841   4.321   5.876   3.342
   39CHL1  H18C 2842   4.151   5.886   3.354
   39CHL1   C12 2843   4.092   6.103   3.171
   39CHL1  H12A 2844   4.003   6.075   3.229
   39CHL1  H12B 2845   4.089   6.214   3.154
   39CHL1   C11 2846   4.097   6.033   3.034
   39CHL1  H11A 2847   4.097   5.924   3.053
   39CHL1  H11B 2848   4.006   6.056   2.977
   39CHL1    C9 2849   4.221   6.069   2.948
   39CHL1    H9 2850   4.216   6.181   2.935
   39CHL1   C10 2851   4.228   6.006   2.807
   39CHL1   C19 2852   4.197   5.857   2.814
   39CHL1  H19A 2853   4.202   5.802   2.718
   39CHL1  H19B 2854   4.267   5.807   2.885
   39CHL1  H19C 2855   4.093   5.843   2.847
   39CHL1    C1 2856   4.125   6.084   2.723
   39CHL1   H1A 2857   4.025   6.074   2.770
   39CHL1   H1B 2858   4.154   6.191   2.731
   39CHL1    C2 2859   4.118   6.037   2.577
   39CHL1   H2A 2860   4.048   6.100   2.519
   39CHL1   H2B 2861   4.080   5.932   2.576
   39CHL1   C20 2862   4.182   6.114   3.511
   39CHL1   H20 2863   4.214   6.013   3.544
   39CHL1   C21 2864   4.030   6.114   3.496
   39CHL1  H21A 2865   3.995   6.210   3.454
   39CHL1  H21B 2866   3.983   6.097   3.596
   39CHL1  H21C 2867   4.003   6.029   3.432
   39CHL1   C22 2868   4.205   6.205   3.632
   39CHL1  H22A 2869   4.301   6.252   3.645
   39CHL1  H22B 2870   4.136   6.292   3.636
   39CHL1   C23 2871   4.218   6.127   3.760
   39CHL1  H23A 2872   4.123   6.075   3.782
   39CHL1  H23B 2873   4.304   6.057   3.753
   39CHL1   C24 2874   4.254   6.225   3.867
   39CHL1  H24A 2875   4.346   6.284   3.845
   39CHL1  H24B 2876   4.173   6.298   3.853
   39CHL1   C25 2877   4.277   6.168   4.006
   39CHL1   H25 2878   4.359   6.096   4.004
   39CHL1   C26 2879   4.322   6.291   4.078
   39CHL1  H26A 2880   4.300   6.313   4.182
   39CHL1  H26B 2881   4.418   6.340   4.061
   39CHL1  H26C 2882   4.239   6.334   4.127
   39CHL1   C27 2883   4.160   6.095   4.074
   39CHL1  H27A 2884   4.099   6.178   4.106
   39CHL1  H27B 2885   4.105   6.024   4.009
   39CHL1  H27C 2886   4.158   6.059   4.177
   40CHL1    C3 2887   5.978   2.952   2.518
   40CHL1    H3 2888   6.013   3.054   2.549
   40CHL1    O3 2889   6.015   2.928   2.383
   40CHL1   H3' 2890   5.971   2.995   2.332
   40CHL1    C4 2891   6.048   2.848   2.606
   40CHL1   H4A 2892   6.027   2.744   2.574
   40CHL1   H4B 2893   6.157   2.865   2.591
   40CHL1    C5 2894   6.004   2.869   2.748
   40CHL1    C6 2895   6.096   2.892   2.842
   40CHL1    H6 2896   6.204   2.881   2.822
   40CHL1    C7 2897   6.058   2.905   2.985
   40CHL1   H7A 2898   6.145   2.864   3.039
   40CHL1   H7B 2899   6.056   3.010   3.018
   40CHL1    C8 2900   5.915   2.846   3.015
   40CHL1    H8 2901   5.903   2.740   2.985
   40CHL1   C14 2902   5.879   2.882   3.161
   40CHL1   H14 2903   5.883   2.991   3.156
   40CHL1   C15 2904   5.973   2.855   3.277
   40CHL1  H15A 2905   5.971   2.748   3.293
   40CHL1  H15B 2906   6.078   2.885   3.269
   40CHL1   C16 2907   5.904   2.885   3.404
   40CHL1  H16A 2908   5.945   2.813   3.477
   40CHL1  H16B 2909   5.937   2.978   3.448
   40CHL1   C17 2910   5.754   2.895   3.364
   40CHL1   H17 2911   5.733   3.002   3.360
   40CHL1   C13 2912   5.739   2.859   3.214
   40CHL1   C18 2913   5.705   2.723   3.225
   40CHL1  H18A 2914   5.774   2.686   3.151
   40CHL1  H18B 2915   5.746   2.682   3.312
   40CHL1  H18C 2916   5.602   2.680   3.221
   40CHL1   C12 2917   5.643   2.917   3.114
   40CHL1  H12A 2918   5.545   2.878   3.131
   40CHL1  H12B 2919   5.650   3.024   3.137
   40CHL1   C11 2920   5.667   2.873   2.967
   40CHL1  H11A 2921   5.625   2.773   2.954
   40CHL1  H11B 2922   5.599   2.927   2.900
   40CHL1    C9 2923   5.812   2.901   2.920
   40CHL1    H9 2924   5.823   3.010   2.935
   40CHL1   C10 2925   5.849   2.866   2.773
   40CHL1   C19 2926   5.788   2.728   2.733
   40CHL1  H19A 2927   5.793   2.661   2.819
   40CHL1  H19B 2928   5.681   2.731   2.706
   40CHL1  H19C 2929   5.840   2.680   2.647
   40CHL1    C1 2930   5.787   2.972   2.681
   40CHL1   H1A 2931   5.677   2.967   2.695
   40CHL1   H1B 2932   5.821   3.074   2.712
   40CHL1    C2 2933   5.825   2.951   2.534
   40CHL1   H2A 2934   5.781   3.035   2.477
   40CHL1   H2B 2935   5.782   2.855   2.498
   40CHL1   C20 2936   5.663   2.832   3.467
   40CHL1   H20 2937   5.653   2.721   3.465
   40CHL1   C21 2938   5.532   2.863   3.433
   40CHL1  H21A 2939   5.510   2.782   3.361
   40CHL1  H21B 2940   5.506   2.959   3.387
   40CHL1  H21C 2941   5.467   2.844   3.521
   40CHL1   C22 2942   5.684   2.872   3.608
   40CHL1  H22A 2943   5.789   2.848   3.632
   40CHL1  H22B 2944   5.665   2.981   3.605
   40CHL1   C23 2945   5.594   2.807   3.713
   40CHL1  H23A 2946   5.490   2.848   3.709
   40CHL1  H23B 2947   5.587   2.697   3.702
   40CHL1   C24 2948   5.653   2.852   3.845
   40CHL1  H24A 2949   5.762   2.840   3.847
   40CHL1  H24B 2950   5.627   2.961   3.855
   40CHL1   C25 2951   5.601   2.777   3.965
   40CHL1   H25 2952   5.626   2.840   4.055
   40CHL1   C26 2953   5.457   2.765   3.957
   40CHL1  H26A 2954   5.441   2.872   3.949
   40CHL1  H26B 2955   5.405   2.705   3.880
   40CHL1  H26C 2956   5.435   2.721   4.054
   40CHL1   C27 2957   5.634   2.633   3.983
   40CHL1  H27A 2958   5.583   2.594   4.075
   40CHL1  H27B 2959   5.597   2.576   3.897
   40CHL1  H27C 2960   5.741   2.618   3.993
   41CHL1    C3 2961   4.994   5.872   2.511
   41CHL1    H3 2962   4.934   5.962   2.487
   41CHL1    O3 2963   5.044   5.814   2.392
   41CHL1   H3' 2964   4.967   5.789   2.338
   41CHL1    C4 2965   5.114   5.910   2.601
   41CHL1   H4A 2966   5.191   5.831   2.592
   41CHL1   H4B 2967   5.159   5.999   2.553
   41CHL1    C5 2968   5.084   5.935   2.748
   41CHL1    C6 2969   5.125   6.044   2.813
   41CHL1    H6 2970   5.186   6.118   2.760
   41CHL1    C7 2971   5.100   6.070   2.960
   41CHL1   H7A 2972   5.190   6.113   3.008
   41CHL1   H7B 2973   5.016   6.141   2.971
   41CHL1    C8 2974   5.060   5.941   3.034
   41CHL1    H8 2975   5.154   5.881   3.036
   41CHL1   C14 2976   5.013   5.970   3.177
   41CHL1   H14 2977   4.925   6.038   3.174
   41CHL1   C15 2978   5.115   6.033   3.273
   41CHL1  H15A 2979   5.217   5.990   3.258
   41CHL1  H15B 2980   5.124   6.142   3.258
   41CHL1   C16 2981   5.065   5.992   3.414
   41CHL1  H16A 2982   5.150   5.948   3.470
   41CHL1  H16B 2983   5.023   6.079   3.467
   41CHL1   C17 2984   4.949   5.888   3.395
   41CHL1   H17 2985   4.853   5.944   3.398
   41CHL1   C13 2986   4.962   5.849   3.249
   41CHL1   C18 2987   5.077   5.762   3.254
   41CHL1  H18A 2988   5.036   5.670   3.301
   41CHL1  H18B 2989   5.119   5.740   3.156
   41CHL1  H18C 2990   5.164   5.793   3.314
   41CHL1   C12 2991   4.842   5.785   3.176
   41CHL1  H12A 2992   4.803   5.693   3.224
   41CHL1  H12B 2993   4.761   5.861   3.177
   41CHL1   C11 2994   4.877   5.753   3.030
   41CHL1  H11A 2995   4.934   5.657   3.028
   41CHL1  H11B 2996   4.782   5.736   2.977
   41CHL1    C9 2997   4.950   5.868   2.956
   41CHL1    H9 2998   4.872   5.946   2.939
   41CHL1   C10 2999   4.995   5.829   2.815
   41CHL1   C19 3000   5.078   5.700   2.829
   41CHL1  H19A 3001   5.153   5.701   2.750
   41CHL1  H19B 3002   5.138   5.695   2.922
   41CHL1  H19C 3003   5.017   5.608   2.821
   41CHL1    C1 3004   4.869   5.817   2.724
   41CHL1   H1A 3005   4.797   5.745   2.769
   41CHL1   H1B 3006   4.819   5.915   2.716
   41CHL1    C2 3007   4.900   5.774   2.581
   41CHL1   H2A 3008   4.806   5.756   2.524
   41CHL1   H2B 3009   4.955   5.681   2.593
   41CHL1   C20 3010   4.943   5.783   3.509
   41CHL1   H20 3011   5.042   5.734   3.523
   41CHL1   C21 3012   4.842   5.667   3.482
   41CHL1  H21A 3013   4.741   5.707   3.460
   41CHL1  H21B 3014   4.834   5.600   3.570
   41CHL1  H21C 3015   4.873   5.601   3.398
   41CHL1   C22 3016   4.906   5.855   3.641
   41CHL1  H22A 3017   4.870   5.958   3.616
   41CHL1  H22B 3018   4.818   5.804   3.685
   41CHL1   C23 3019   5.015   5.866   3.749
   41CHL1  H23A 3020   5.098   5.933   3.716
   41CHL1  H23B 3021   4.969   5.912   3.839
   41CHL1   C24 3022   5.074   5.733   3.797
   41CHL1  H24A 3023   4.990   5.662   3.814
   41CHL1  H24B 3024   5.138   5.688   3.718
   41CHL1   C25 3025   5.158   5.753   3.927
   41CHL1   H25 3026   5.087   5.778   4.009
   41CHL1   C26 3027   5.229   5.630   3.972
   41CHL1  H26A 3028   5.149   5.562   3.950
   41CHL1  H26B 3029   5.309   5.598   3.905
   41CHL1  H26C 3030   5.261   5.620   4.077
   41CHL1   C27 3031   5.273   5.847   3.908
   41CHL1  H27A 3032   5.330   5.816   3.818
   41CHL1  H27B 3033   5.239   5.951   3.899
   41CHL1  H27C 3034   5.338   5.839   3.997
   42CHL1    C3 3035   5.974   4.953   2.519
   42CHL1    H3 3036   5.872   4.931   2.558
   42CHL1    O3 3037   5.976   4.944   2.377
   42CHL1   H3' 3038   5.900   4.889   2.354
   42CHL1    C4 3039   6.029   5.088   2.564
   42CHL1   H4A 3040   6.132   5.097   2.523
   42CHL1   H4B 3041   5.970   5.172   2.523
   42CHL1    C5 3042   6.032   5.095   2.714
   42CHL1    C6 3043   5.957   5.182   2.780
   42CHL1    H6 3044   5.897   5.252   2.722
   42CHL1    C7 3045   5.967   5.199   2.928
   42CHL1   H7A 3046   5.979   5.303   2.955
   42CHL1   H7B 3047   5.882   5.164   2.984
   42CHL1    C8 3048   6.086   5.129   2.989
   42CHL1    H8 3049   6.175   5.188   2.958
   42CHL1   C14 3050   6.080   5.127   3.139
   42CHL1   H14 3051   5.999   5.071   3.178
   42CHL1   C15 3052   6.033   5.239   3.222
   42CHL1  H15A 3053   6.085   5.297   3.147
   42CHL1  H15B 3054   5.973   5.323   3.217
   42CHL1   C16 3055   6.084   5.206   3.364
   42CHL1  H16A 3056   6.135   5.285   3.414
   42CHL1  H16B 3057   6.039   5.235   3.456
   42CHL1   C17 3058   6.153   5.072   3.357
   42CHL1   H17 3059   6.059   5.017   3.375
   42CHL1   C13 3060   6.189   5.054   3.205
   42CHL1   C18 3061   6.330   5.084   3.143
   42CHL1  H18A 3062   6.348   5.059   3.039
   42CHL1  H18B 3063   6.356   5.189   3.130
   42CHL1  H18C 3064   6.406   5.045   3.213
   42CHL1   C12 3065   6.151   4.916   3.168
   42CHL1  H12A 3066   6.216   4.871   3.239
   42CHL1  H12B 3067   6.050   4.885   3.203
   42CHL1   C11 3068   6.168   4.890   3.019
   42CHL1  H11A 3069   6.275   4.884   2.991
   42CHL1  H11B 3070   6.124   4.792   2.997
   42CHL1    C9 3071   6.088   4.989   2.934
   42CHL1    H9 3072   5.983   4.950   2.946
   42CHL1   C10 3073   6.119   4.990   2.784
   42CHL1   C19 3074   6.270   5.018   2.762
   42CHL1  H19A 3075   6.333   4.936   2.799
   42CHL1  H19B 3076   6.297   5.033   2.655
   42CHL1  H19C 3077   6.299   5.110   2.816
   42CHL1    C1 3078   6.077   4.854   2.729
   42CHL1   H1A 3079   6.156   4.783   2.764
   42CHL1   H1B 3080   5.979   4.824   2.772
   42CHL1    C2 3081   6.064   4.848   2.578
   42CHL1   H2A 3082   6.017   4.754   2.545
   42CHL1   H2B 3083   6.168   4.861   2.538
   42CHL1   C20 3084   6.229   5.019   3.480
   42CHL1   H20 3085   6.321   5.070   3.474
   42CHL1   C21 3086   6.334   4.912   3.476
   42CHL1  H21A 3087   6.411   4.921   3.556
   42CHL1  H21B 3088   6.387   4.921   3.378
   42CHL1  H21C 3089   6.263   4.834   3.495
   42CHL1   C22 3090   6.166   5.051   3.619
   42CHL1  H22A 3091   6.130   5.157   3.618
   42CHL1  H22B 3092   6.071   4.998   3.629
   42CHL1   C23 3093   6.264   5.026   3.740
   42CHL1  H23A 3094   6.285   4.921   3.761
   42CHL1  H23B 3095   6.362   5.065   3.707
   42CHL1   C24 3096   6.225   5.091   3.875
   42CHL1  H24A 3097   6.159   5.174   3.841
   42CHL1  H24B 3098   6.152   5.041   3.938
   42CHL1   C25 3099   6.344   5.131   3.973
   42CHL1   H25 3100   6.411   5.196   3.908
   42CHL1   C26 3101   6.302   5.185   4.113
   42CHL1  H26A 3102   6.213   5.241   4.090
   42CHL1  H26B 3103   6.229   5.148   4.181
   42CHL1  H26C 3104   6.373   5.260   4.156
   42CHL1   C27 3105   6.462   5.062   4.022
   42CHL1  H27A 3106   6.516   5.026   3.934
   42CHL1  H27B 3107   6.520   5.145   4.075
   42CHL1  H27C 3108   6.409   4.994   4.091
   43CHL1    C3 3109   2.696   6.419   2.514
   43CHL1    H3 3110   2.608   6.488   2.511
   43CHL1    O3 3111   2.722   6.368   2.384
   43CHL1   H3' 3112   2.732   6.445   2.328
   43CHL1    C4 3113   2.818   6.486   2.574
   43CHL1   H4A 3114   2.906   6.419   2.567
   43CHL1   H4B 3115   2.839   6.574   2.508
   43CHL1    C5 3116   2.783   6.522   2.718
   43CHL1    C6 3117   2.768   6.646   2.749
   43CHL1    H6 3118   2.802   6.711   2.667
   43CHL1    C7 3119   2.751   6.703   2.891
   43CHL1   H7A 3120   2.818   6.785   2.926
   43CHL1   H7B 3121   2.654   6.751   2.902
   43CHL1    C8 3122   2.764   6.604   3.004
   43CHL1    H8 3123   2.869   6.582   3.031
   43CHL1   C14 3124   2.698   6.667   3.123
   43CHL1   H14 3125   2.592   6.688   3.093
   43CHL1   C15 3126   2.751   6.801   3.174
   43CHL1  H15A 3127   2.862   6.798   3.169
   43CHL1  H15B 3128   2.709   6.884   3.113
   43CHL1   C16 3129   2.705   6.805   3.318
   43CHL1  H16A 3130   2.794   6.817   3.384
   43CHL1  H16B 3131   2.631   6.886   3.339
   43CHL1   C17 3132   2.636   6.671   3.340
   43CHL1   H17 3133   2.530   6.696   3.311
   43CHL1   C13 3134   2.696   6.575   3.240
   43CHL1   C18 3135   2.837   6.530   3.285
   43CHL1  H18A 3136   2.906   6.613   3.305
   43CHL1  H18B 3137   2.828   6.463   3.373
   43CHL1  H18C 3138   2.883   6.469   3.205
   43CHL1   C12 3139   2.613   6.455   3.197
   43CHL1  H12A 3140   2.614   6.377   3.275
   43CHL1  H12B 3141   2.510   6.494   3.182
   43CHL1   C11 3142   2.670   6.386   3.073
   43CHL1  H11A 3143   2.768   6.343   3.102
   43CHL1  H11B 3144   2.606   6.301   3.043
   43CHL1    C9 3145   2.687   6.484   2.957
   43CHL1    H9 3146   2.586   6.528   2.935
   43CHL1   C10 3147   2.740   6.424   2.823
   43CHL1   C19 3148   2.848   6.320   2.859
   43CHL1  H19A 3149   2.804   6.238   2.918
   43CHL1  H19B 3150   2.891   6.275   2.768
   43CHL1  H19C 3151   2.926   6.368   2.921
   43CHL1    C1 3152   2.625   6.363   2.743
   43CHL1   H1A 3153   2.597   6.282   2.806
   43CHL1   H1B 3154   2.541   6.436   2.733
   43CHL1    C2 3155   2.660   6.306   2.605
   43CHL1   H2A 3156   2.570   6.266   2.556
   43CHL1   H2B 3157   2.739   6.228   2.612
   43CHL1   C20 3158   2.638   6.625   3.479
   43CHL1   H20 3159   2.734   6.592   3.522
   43CHL1   C21 3160   2.554   6.495   3.482
   43CHL1  H21A 3161   2.527   6.481   3.586
   43CHL1  H21B 3162   2.608   6.402   3.467
   43CHL1  H21C 3163   2.466   6.486   3.411
   43CHL1   C22 3164   2.618   6.751   3.565
   43CHL1  H22A 3165   2.715   6.804   3.565
   43CHL1  H22B 3166   2.537   6.825   3.538
   43CHL1   C23 3167   2.612   6.730   3.709
   43CHL1  H23A 3168   2.506   6.714   3.726
   43CHL1  H23B 3169   2.652   6.642   3.759
   43CHL1   C24 3170   2.663   6.858   3.764
   43CHL1  H24A 3171   2.764   6.887   3.750
   43CHL1  H24B 3172   2.590   6.935   3.729
   43CHL1   C25 3173   2.697   6.870   3.905
   43CHL1   H25 3174   2.705   6.764   3.937
   43CHL1   C26 3175   2.785   6.966   3.969
   43CHL1  H26A 3176   2.797   6.992   4.075
   43CHL1  H26B 3177   2.881   6.951   3.943
   43CHL1  H26C 3178   2.757   7.065   3.955
   43CHL1   C27 3179   2.600   6.958   3.955
   43CHL1  H27A 3180   2.551   7.048   3.919
   43CHL1  H27B 3181   2.532   6.919   3.891
   43CHL1  H27C 3182   2.562   6.926   4.050
   44CHL1    C3 3183   5.766   5.671   2.512
   44CHL1    H3 3184   5.655   5.668   2.513
   44CHL1    O3 3185   5.817   5.694   2.382
   44CHL1   H3' 3186   5.764   5.636   2.322
   44CHL1    C4 3187   5.815   5.787   2.598
   44CHL1   H4A 3188   5.924   5.801   2.581
   44CHL1   H4B 3189   5.766   5.881   2.564
   44CHL1    C5 3190   5.791   5.763   2.744
   44CHL1    C6 3191   5.747   5.855   2.825
   44CHL1    H6 3192   5.725   5.948   2.776
   44CHL1    C7 3193   5.733   5.843   2.975
   44CHL1   H7A 3194   5.774   5.931   3.032
   44CHL1   H7B 3195   5.626   5.829   3.001
   44CHL1    C8 3196   5.802   5.728   3.034
   44CHL1    H8 3197   5.908   5.761   3.032
   44CHL1   C14 3198   5.742   5.707   3.176
   44CHL1   H14 3199   5.637   5.676   3.163
   44CHL1   C15 3200   5.754   5.818   3.283
   44CHL1  H15A 3201   5.848   5.880   3.274
   44CHL1  H15B 3202   5.673   5.887   3.267
   44CHL1   C16 3203   5.739   5.741   3.419
   44CHL1  H16A 3204   5.816   5.774   3.493
   44CHL1  H16B 3205   5.639   5.758   3.458
   44CHL1   C17 3206   5.756   5.587   3.395
   44CHL1   H17 3207   5.659   5.535   3.394
   44CHL1   C13 3208   5.799   5.595   3.248
   44CHL1   C18 3209   5.925   5.661   3.273
   44CHL1  H18A 3210   5.971   5.699   3.366
   44CHL1  H18B 3211   5.953   5.556   3.261
   44CHL1  H18C 3212   5.978   5.727   3.201
   44CHL1   C12 3213   5.782   5.472   3.153
   44CHL1  H12A 3214   5.812   5.381   3.198
   44CHL1  H12B 3215   5.674   5.454   3.153
   44CHL1   C11 3216   5.820   5.482   3.004
   44CHL1  H11A 3217   5.923   5.485   2.976
   44CHL1  H11B 3218   5.795   5.392   2.947
   44CHL1    C9 3219   5.774   5.610   2.941
   44CHL1    H9 3220   5.664   5.597   2.935
   44CHL1   C10 3221   5.823   5.630   2.794
   44CHL1   C19 3222   5.971   5.641   2.785
   44CHL1  H19A 3223   6.003   5.716   2.857
   44CHL1  H19B 3224   5.996   5.540   2.811
   44CHL1  H19C 3225   6.026   5.658   2.691
   44CHL1    C1 3226   5.781   5.514   2.704
   44CHL1   H1A 3227   5.828   5.422   2.740
   44CHL1   H1B 3228   5.672   5.503   2.715
   44CHL1    C2 3229   5.824   5.538   2.559
   44CHL1   H2A 3230   5.797   5.453   2.493
   44CHL1   H2B 3231   5.935   5.549   2.549
   44CHL1   C20 3232   5.840   5.521   3.512
   44CHL1   H20 3233   5.943   5.565   3.519
   44CHL1   C21 3234   5.857   5.370   3.499
   44CHL1  H21A 3235   5.921   5.326   3.580
   44CHL1  H21B 3236   5.909   5.363   3.403
   44CHL1  H21C 3237   5.768   5.306   3.491
   44CHL1   C22 3238   5.772   5.544   3.646
   44CHL1  H22A 3239   5.760   5.653   3.661
   44CHL1  H22B 3240   5.672   5.498   3.639
   44CHL1   C23 3241   5.846   5.494   3.771
   44CHL1  H23A 3242   5.806   5.538   3.862
   44CHL1  H23B 3243   5.833   5.387   3.794
   44CHL1   C24 3244   5.973   5.568   3.792
   44CHL1  H24A 3245   6.049   5.534   3.718
   44CHL1  H24B 3246   5.962   5.678   3.790
   44CHL1   C25 3247   6.022   5.543   3.931
   44CHL1   H25 3248   6.125   5.589   3.916
   44CHL1   C26 3249   5.971   5.596   4.063
   44CHL1  H26A 3250   5.886   5.535   4.093
   44CHL1  H26B 3251   6.032   5.555   4.144
   44CHL1  H26C 3252   5.964   5.705   4.077
   44CHL1   C27 3253   6.014   5.394   3.960
   44CHL1  H27A 3254   5.997   5.303   3.904
   44CHL1  H27B 3255   6.089   5.398   3.883
   44CHL1  H27C 3256   6.054   5.366   4.059
   45CHL1    C3 3257   0.873   5.141   2.519
   45CHL1    H3 3258   0.809   5.050   2.529
   45CHL1    O3 3259   0.913   5.151   2.382
   45CHL1   H3' 3260   0.935   5.061   2.358
   45CHL1    C4 3261   0.795   5.266   2.566
   45CHL1   H4A 3262   0.849   5.359   2.546
   45CHL1   H4B 3263   0.702   5.273   2.505
   45CHL1    C5 3264   0.771   5.265   2.716
   45CHL1    C6 3265   0.652   5.279   2.765
   45CHL1    H6 3266   0.571   5.302   2.695
   45CHL1    C7 3267   0.617   5.262   2.909
   45CHL1   H7A 3268   0.518   5.302   2.917
   45CHL1   H7B 3269   0.587   5.164   2.945
   45CHL1    C8 3270   0.733   5.298   3.003
   45CHL1    H8 3271   0.773   5.402   2.994
   45CHL1   C14 3272   0.697   5.265   3.146
   45CHL1   H14 3273   0.682   5.155   3.143
   45CHL1   C15 3274   0.565   5.299   3.214
   45CHL1  H15A 3275   0.531   5.390   3.202
   45CHL1  H15B 3276   0.469   5.265   3.176
   45CHL1   C16 3277   0.595   5.329   3.358
   45CHL1  H16A 3278   0.589   5.432   3.389
   45CHL1  H16B 3279   0.518   5.281   3.414
   45CHL1   C17 3280   0.737   5.280   3.379
   45CHL1   H17 3281   0.722   5.171   3.391
   45CHL1   C13 3282   0.808   5.299   3.245
   45CHL1   C18 3283   0.872   5.441   3.243
   45CHL1  H18A 3284   0.803   5.520   3.277
   45CHL1  H18B 3285   0.954   5.449   3.316
   45CHL1  H18C 3286   0.912   5.467   3.143
   45CHL1   C12 3287   0.915   5.199   3.209
   45CHL1  H12A 3288   0.999   5.213   3.279
   45CHL1  H12B 3289   0.869   5.099   3.224
   45CHL1   C11 3290   0.961   5.213   3.063
   45CHL1  H11A 3291   1.019   5.307   3.054
   45CHL1  H11B 3292   1.028   5.128   3.041
   45CHL1    C9 3293   0.846   5.210   2.959
   45CHL1    H9 3294   0.802   5.108   2.962
   45CHL1   C10 3295   0.886   5.236   2.810
   45CHL1   C19 3296   0.974   5.361   2.802
   45CHL1  H19A 3297   1.069   5.341   2.856
   45CHL1  H19B 3298   1.001   5.383   2.697
   45CHL1  H19C 3299   0.925   5.450   2.847
   45CHL1    C1 3300   0.959   5.113   2.754
   45CHL1   H1A 3301   1.049   5.099   2.818
   45CHL1   H1B 3302   0.891   5.025   2.768
   45CHL1    C2 3303   0.998   5.121   2.605
   45CHL1   H2A 3304   1.047   5.027   2.573
   45CHL1   H2B 3305   1.070   5.204   2.587
   45CHL1   C20 3306   0.802   5.346   3.501
   45CHL1   H20 3307   0.826   5.451   3.483
   45CHL1   C21 3308   0.925   5.258   3.537
   45CHL1  H21A 3309   1.007   5.285   3.470
   45CHL1  H21B 3310   0.905   5.149   3.527
   45CHL1  H21C 3311   0.957   5.276   3.641
   45CHL1   C22 3312   0.709   5.362   3.622
   45CHL1  H22A 3313   0.602   5.381   3.607
   45CHL1  H22B 3314   0.721   5.259   3.615
   45CHL1   C23 3315   0.763   5.410   3.758
   45CHL1  H23A 3316   0.831   5.329   3.798
   45CHL1  H23B 3317   0.816   5.502   3.739
   45CHL1   C24 3318   0.661   5.469   3.866
   45CHL1  H24A 3319   0.556   5.477   3.836
   45CHL1  H24B 3320   0.657   5.377   3.891
   45CHL1   C25 3321   0.687   5.450   4.021
   45CHL1   H25 3322   0.758   5.366   4.046
   45CHL1   C26 3323   0.769   5.569   4.032
   45CHL1  H26A 3324   0.801   5.578   4.136
   45CHL1  H26B 3325   0.854   5.557   3.960
   45CHL1  H26C 3326   0.700   5.648   3.996
   45CHL1   C27 3327   0.564   5.433   4.120
   45CHL1  H27A 3328   0.508   5.338   4.129
   45CHL1  H27B 3329   0.604   5.448   4.223
   45CHL1  H27C 3330   0.488   5.509   4.097
   46CHL1    C3 3331   4.755   6.603   2.516
   46CHL1    H3 3332   4.665   6.668   2.525
   46CHL1    O3 3333   4.809   6.622   2.386
   46CHL1   H3' 3334   4.833   6.716   2.380
   46CHL1    C4 3335   4.858   6.642   2.621
   46CHL1   H4A 3336   4.950   6.580   2.613
   46CHL1   H4B 3337   4.889   6.746   2.600
   46CHL1    C5 3338   4.800   6.627   2.760
   46CHL1    C6 3339   4.797   6.732   2.844
   46CHL1    H6 3340   4.836   6.828   2.808
   46CHL1    C7 3341   4.753   6.724   2.988
   46CHL1   H7A 3342   4.829   6.770   3.054
   46CHL1   H7B 3343   4.657   6.777   3.004
   46CHL1    C8 3344   4.735   6.578   3.034
   46CHL1    H8 3345   4.830   6.525   3.050
   46CHL1   C14 3346   4.662   6.574   3.167
   46CHL1   H14 3347   4.560   6.618   3.149
   46CHL1   C15 3348   4.728   6.654   3.280
   46CHL1  H15A 3349   4.836   6.653   3.292
   46CHL1  H15B 3350   4.697   6.759   3.270
   46CHL1   C16 3351   4.680   6.586   3.405
   46CHL1  H16A 3352   4.752   6.535   3.470
   46CHL1  H16B 3353   4.662   6.668   3.474
   46CHL1   C17 3354   4.573   6.484   3.362
   46CHL1   H17 3355   4.474   6.523   3.330
   46CHL1   C13 3356   4.632   6.437   3.226
   46CHL1   C18 3357   4.761   6.357   3.259
   46CHL1  H18A 3358   4.824   6.343   3.170
   46CHL1  H18B 3359   4.825   6.408   3.334
   46CHL1  H18C 3360   4.736   6.258   3.302
   46CHL1   C12 3361   4.546   6.381   3.112
   46CHL1  H12A 3362   4.545   6.275   3.101
   46CHL1  H12B 3363   4.440   6.413   3.115
   46CHL1   C11 3364   4.618   6.374   2.977
   46CHL1  H11A 3365   4.701   6.301   2.992
   46CHL1  H11B 3366   4.553   6.339   2.896
   46CHL1    C9 3367   4.662   6.505   2.924
   46CHL1    H9 3368   4.568   6.561   2.902
   46CHL1   C10 3369   4.740   6.489   2.791
   46CHL1   C19 3370   4.845   6.377   2.806
   46CHL1  H19A 3371   4.904   6.365   2.713
   46CHL1  H19B 3372   4.909   6.397   2.893
   46CHL1  H19C 3373   4.805   6.277   2.829
   46CHL1    C1 3374   4.648   6.443   2.674
   46CHL1   H1A 3375   4.618   6.337   2.689
   46CHL1   H1B 3376   4.557   6.506   2.672
   46CHL1    C2 3377   4.714   6.457   2.536
   46CHL1   H2A 3378   4.640   6.426   2.459
   46CHL1   H2B 3379   4.805   6.393   2.529
   46CHL1   C20 3380   4.560   6.398   3.486
   46CHL1   H20 3381   4.657   6.349   3.518
   46CHL1   C21 3382   4.467   6.308   3.455
   46CHL1  H21A 3383   4.392   6.335   3.378
   46CHL1  H21B 3384   4.435   6.237   3.535
   46CHL1  H21C 3385   4.543   6.248   3.414
   46CHL1   C22 3386   4.469   6.431   3.599
   46CHL1  H22A 3387   4.461   6.367   3.690
   46CHL1  H22B 3388   4.563   6.475   3.637
   46CHL1   C23 3389   4.324   6.484   3.544
   46CHL1  H23A 3390   4.325   6.530   3.448
   46CHL1  H23B 3391   4.242   6.415   3.532
   46CHL1   C24 3392   4.242   6.581   3.621
   46CHL1  H24A 3393   4.243   6.516   3.703
   46CHL1  H24B 3394   4.282   6.679   3.612
   46CHL1   C25 3395   4.106   6.641   3.634
   46CHL1   H25 3396   4.044   6.556   3.607
   46CHL1   C26 3397   4.048   6.698   3.766
   46CHL1  H26A 3398   4.011   6.654   3.855
   46CHL1  H26B 3399   4.083   6.794   3.811
   46CHL1  H26C 3400   3.945   6.667   3.776
   46CHL1   C27 3401   4.128   6.765   3.548
   46CHL1  H27A 3402   4.180   6.750   3.454
   46CHL1  H27B 3403   4.039   6.801   3.516
   46CHL1  H27C 3404   4.181   6.848   3.599
   47CHL1    C3 3405   1.343   1.589   2.519
   47CHL1    H3 3406   1.269   1.663   2.557
   47CHL1    O3 3407   1.356   1.601   2.379
   47CHL1   H3' 3408   1.430   1.539   2.360
   47CHL1    C4 3409   1.479   1.617   2.589
   47CHL1   H4A 3410   1.564   1.564   2.542
   47CHL1   H4B 3411   1.500   1.726   2.576
   47CHL1    C5 3412   1.472   1.578   2.735
   47CHL1    C6 3413   1.503   1.664   2.830
   47CHL1    H6 3414   1.534   1.758   2.791
   47CHL1    C7 3415   1.504   1.640   2.979
   47CHL1   H7A 3416   1.597   1.679   3.027
   47CHL1   H7B 3417   1.418   1.689   3.027
   47CHL1    C8 3418   1.498   1.490   3.008
   47CHL1    H8 3419   1.595   1.462   2.970
   47CHL1   C14 3420   1.467   1.459   3.156
   47CHL1   H14 3421   1.360   1.493   3.159
   47CHL1   C15 3422   1.522   1.548   3.269
   47CHL1  H15A 3423   1.626   1.566   3.267
   47CHL1  H15B 3424   1.491   1.653   3.267
   47CHL1   C16 3425   1.495   1.469   3.395
   47CHL1  H16A 3426   1.588   1.437   3.446
   47CHL1  H16B 3427   1.436   1.532   3.464
   47CHL1   C17 3428   1.418   1.340   3.353
   47CHL1   H17 3429   1.312   1.372   3.352
   47CHL1   C13 3430   1.460   1.310   3.208
   47CHL1   C18 3431   1.583   1.220   3.234
   47CHL1  H18A 3432   1.622   1.187   3.137
   47CHL1  H18B 3433   1.656   1.276   3.298
   47CHL1  H18C 3434   1.582   1.115   3.260
   47CHL1   C12 3435   1.368   1.237   3.111
   47CHL1  H12A 3436   1.376   1.128   3.130
   47CHL1  H12B 3437   1.266   1.272   3.135
   47CHL1   C11 3438   1.399   1.262   2.961
   47CHL1  H11A 3439   1.493   1.208   2.935
   47CHL1  H11B 3440   1.318   1.216   2.902
   47CHL1    C9 3441   1.404   1.412   2.918
   47CHL1    H9 3442   1.305   1.455   2.939
   47CHL1   C10 3443   1.425   1.439   2.767
   47CHL1   C19 3444   1.526   1.346   2.711
   47CHL1  H19A 3445   1.613   1.385   2.760
   47CHL1  H19B 3446   1.526   1.239   2.736
   47CHL1  H19C 3447   1.546   1.358   2.602
   47CHL1    C1 3448   1.298   1.411   2.693
   47CHL1   H1A 3449   1.290   1.300   2.698
   47CHL1   H1B 3450   1.218   1.464   2.748
   47CHL1    C2 3451   1.289   1.449   2.546
   47CHL1   H2A 3452   1.180   1.444   2.521
   47CHL1   H2B 3453   1.340   1.373   2.482
   47CHL1   C20 3454   1.437   1.230   3.457
   47CHL1   H20 3455   1.547   1.212   3.475
   47CHL1   C21 3456   1.370   1.098   3.415
   47CHL1  H21A 3457   1.361   1.033   3.503
   47CHL1  H21B 3458   1.431   1.043   3.340
   47CHL1  H21C 3459   1.269   1.116   3.376
   47CHL1   C22 3460   1.373   1.276   3.587
   47CHL1  H22A 3461   1.396   1.382   3.610
   47CHL1  H22B 3462   1.263   1.267   3.574
   47CHL1   C23 3463   1.412   1.194   3.710
   47CHL1  H23A 3464   1.348   1.102   3.710
   47CHL1  H23B 3465   1.518   1.162   3.707
   47CHL1   C24 3466   1.388   1.286   3.830
   47CHL1  H24A 3467   1.447   1.378   3.822
   47CHL1  H24B 3468   1.278   1.309   3.833
   47CHL1   C25 3469   1.424   1.229   3.964
   47CHL1   H25 3470   1.524   1.181   3.972
   47CHL1   C26 3471   1.385   1.315   4.085
   47CHL1  H26A 3472   1.274   1.324   4.094
   47CHL1  H26B 3473   1.421   1.267   4.178
   47CHL1  H26C 3474   1.429   1.414   4.071
   47CHL1   C27 3475   1.332   1.126   3.974
   47CHL1  H27A 3476   1.331   1.106   4.082
   47CHL1  H27B 3477   1.228   1.164   3.955
   47CHL1  H27C 3478   1.353   1.035   3.912
   48CHL1    C3 3479   6.814   2.790   2.518
   48CHL1    H3 3480   6.736   2.862   2.550
   48CHL1    O3 3481   6.809   2.781   2.377
   48CHL1   H3' 3482   6.861   2.859   2.351
   48CHL1    C4 3483   6.955   2.839   2.556
   48CHL1   H4A 3484   7.029   2.767   2.515
   48CHL1   H4B 3485   6.975   2.935   2.504
   48CHL1    C5 3486   6.969   2.848   2.707
   48CHL1    C6 3487   7.001   2.962   2.770
   48CHL1    H6 3488   7.024   3.053   2.713
   48CHL1    C7 3489   7.011   2.976   2.919
   48CHL1   H7A 3490   7.095   3.043   2.946
   48CHL1   H7B 3491   6.917   3.020   2.960
   48CHL1    C8 3492   7.028   2.837   2.982
   48CHL1    H8 3493   7.128   2.797   2.954
   48CHL1   C14 3494   7.009   2.845   3.129
   48CHL1   H14 3495   6.907   2.883   3.151
   48CHL1   C15 3496   7.099   2.937   3.200
   48CHL1  H15A 3497   7.204   2.933   3.174
   48CHL1  H15B 3498   7.081   3.038   3.175
   48CHL1   C16 3499   7.060   2.890   3.341
   48CHL1  H16A 3500   7.140   2.910   3.408
   48CHL1  H16B 3501   6.978   2.950   3.382
   48CHL1   C17 3502   6.998   2.752   3.343
   48CHL1   H17 3503   6.894   2.775   3.371
   48CHL1   C13 3504   7.015   2.716   3.206
   48CHL1   C18 3505   7.145   2.657   3.190
   48CHL1  H18A 3506   7.188   2.735   3.239
   48CHL1  H18B 3507   7.195   2.582   3.253
   48CHL1  H18C 3508   7.192   2.661   3.091
   48CHL1   C12 3509   6.910   2.635   3.172
   48CHL1  H12A 3510   6.906   2.548   3.239
   48CHL1  H12B 3511   6.826   2.695   3.210
   48CHL1   C11 3512   6.920   2.620   3.021
   48CHL1  H11A 3513   7.015   2.586   2.989
   48CHL1  H11B 3514   6.860   2.539   2.990
   48CHL1    C9 3515   6.920   2.745   2.934
   48CHL1    H9 3516   6.821   2.791   2.955
   48CHL1   C10 3517   6.932   2.719   2.782
   48CHL1   C19 3518   7.033   2.606   2.748
   48CHL1  H19A 3519   7.069   2.613   2.644
   48CHL1  H19B 3520   7.119   2.606   2.817
   48CHL1  H19C 3521   6.980   2.508   2.756
   48CHL1    C1 3522   6.794   2.669   2.737
   48CHL1   H1A 3523   6.776   2.571   2.785
   48CHL1   H1B 3524   6.719   2.741   2.776
   48CHL1    C2 3525   6.780   2.656   2.585
   48CHL1   H2A 3526   6.677   2.625   2.559
   48CHL1   H2B 3527   6.850   2.579   2.546
   48CHL1   C20 3528   7.038   2.660   3.448
   48CHL1   H20 3529   7.139   2.609   3.430
   48CHL1   C21 3530   6.982   2.528   3.487
   48CHL1  H21A 3531   6.876   2.541   3.510
   48CHL1  H21B 3532   7.041   2.494   3.573
   48CHL1  H21C 3533   7.017   2.452   3.418
   48CHL1   C22 3534   7.026   2.758   3.561
   48CHL1  H22A 3535   7.093   2.683   3.584
   48CHL1  H22B 3536   7.090   2.835   3.584
   48CHL1   C23 3537   6.908   2.800   3.643
   48CHL1  H23A 3538   6.870   2.889   3.592
   48CHL1  H23B 3539   6.835   2.720   3.632
   48CHL1   C24 3540   6.916   2.830   3.793
   48CHL1  H24A 3541   6.955   2.739   3.818
   48CHL1  H24B 3542   6.988   2.868   3.867
   48CHL1   C25 3543   6.791   2.884   3.851
   48CHL1   H25 3544   6.791   2.992   3.829
   48CHL1   C26 3545   6.670   2.844   3.779
   48CHL1  H26A 3546   6.584   2.891   3.833
   48CHL1  H26B 3547   6.669   2.862   3.671
   48CHL1  H26C 3548   6.691   2.738   3.791
   48CHL1   C27 3549   6.775   2.848   3.999
   48CHL1  H27A 3550   6.796   2.747   4.034
   48CHL1  H27B 3551   6.840   2.905   4.063
   48CHL1  H27C 3552   6.671   2.875   4.026
   49CHL1    C3 3553   0.632   5.866   2.518
   49CHL1    H3 3554   0.727   5.912   2.555
   49CHL1    O3 3555   0.644   5.823   2.385
   49CHL1   H3' 3556   0.724   5.770   2.380
   49CHL1    C4 3557   0.603   5.748   2.610
   49CHL1   H4A 3558   0.515   5.699   2.566
   49CHL1   H4B 3559   0.679   5.669   2.606
   49CHL1    C5 3560   0.595   5.810   2.748
   49CHL1    C6 3561   0.663   5.769   2.854
   49CHL1    H6 3562   0.713   5.671   2.848
   49CHL1    C7 3563   0.628   5.830   2.988
   49CHL1   H7A 3564   0.575   5.769   3.051
   49CHL1   H7B 3565   0.715   5.855   3.049
   49CHL1    C8 3566   0.496   5.900   3.014
   49CHL1    H8 3567   0.408   5.828   3.008
   49CHL1   C14 3568   0.506   5.980   3.145
   49CHL1   H14 3569   0.601   6.037   3.143
   49CHL1   C15 3570   0.528   5.915   3.268
   49CHL1  H15A 3571   0.468   5.831   3.236
   49CHL1  H15B 3572   0.631   5.889   3.289
   49CHL1   C16 3573   0.480   5.990   3.391
   49CHL1  H16A 3574   0.418   5.943   3.470
   49CHL1  H16B 3575   0.574   6.017   3.443
   49CHL1   C17 3576   0.392   6.091   3.336
   49CHL1   H17 3577   0.474   6.158   3.350
   49CHL1   C13 3578   0.382   6.046   3.188
   49CHL1   C18 3579   0.274   5.932   3.201
   49CHL1  H18A 3580   0.181   5.967   3.229
   49CHL1  H18B 3581   0.261   5.883   3.105
   49CHL1  H18C 3582   0.262   5.861   3.283
   49CHL1   C12 3583   0.401   6.150   3.076
   49CHL1  H12A 3584   0.316   6.216   3.083
   49CHL1  H12B 3585   0.495   6.201   3.089
   49CHL1   C11 3586   0.419   6.111   2.928
   49CHL1  H11A 3587   0.333   6.064   2.910
   49CHL1  H11B 3588   0.408   6.188   2.852
   49CHL1    C9 3589   0.502   5.991   2.902
   49CHL1    H9 3590   0.603   6.036   2.911
   49CHL1   C10 3591   0.498   5.922   2.765
   49CHL1   C19 3592   0.378   5.839   2.735
   49CHL1  H19A 3593   0.318   5.911   2.686
   49CHL1  H19B 3594   0.358   5.800   2.636
   49CHL1  H19C 3595   0.325   5.781   2.815
   49CHL1    C1 3596   0.512   6.031   2.660
   49CHL1   H1A 3597   0.427   6.102   2.662
   49CHL1   H1B 3598   0.605   6.085   2.689
   49CHL1    C2 3599   0.528   5.978   2.519
   49CHL1   H2A 3600   0.568   6.061   2.457
   49CHL1   H2B 3601   0.431   5.947   2.474
   49CHL1   C20 3602   0.274   6.110   3.435
   49CHL1   H20 3603   0.208   6.023   3.449
   49CHL1   C21 3604   0.192   6.226   3.406
   49CHL1  H21A 3605   0.147   6.239   3.315
   49CHL1  H21B 3606   0.271   6.299   3.398
   49CHL1  H21C 3607   0.110   6.262   3.468
   49CHL1   C22 3608   0.325   6.158   3.569
   49CHL1  H22A 3609   0.417   6.109   3.603
   49CHL1  H22B 3610   0.348   6.267   3.570
   49CHL1   C23 3611   0.219   6.169   3.671
   49CHL1  H23A 3612   0.168   6.267   3.654
   49CHL1  H23B 3613   0.135   6.100   3.664
   49CHL1   C24 3614   0.301   6.155   3.795
   49CHL1  H24A 3615   0.365   6.065   3.801
   49CHL1  H24B 3616   0.371   6.244   3.805
   49CHL1   C25 3617   0.210   6.154   3.910
   49CHL1   H25 3618   0.163   6.250   3.891
   49CHL1   C26 3619   0.099   6.059   3.935
   49CHL1  H26A 3620   0.152   5.966   3.963
   49CHL1  H26B 3621   0.038   6.095   4.022
   49CHL1  H26C 3622   0.040   6.058   3.843
   49CHL1   C27 3623   0.286   6.152   4.031
   49CHL1  H27A 3624   0.330   6.063   4.073
   49CHL1  H27B 3625   0.371   6.223   4.010
   49CHL1  H27C 3626   0.213   6.196   4.106
   50CHL1    C3 3627   5.411   7.242   2.518
   50CHL1    H3 3628   5.308   7.283   2.528
   50CHL1    O3 3629   5.444   7.232   2.382
   50CHL1   H3' 3630   5.457   7.322   2.350
   50CHL1    C4 3631   5.512   7.334   2.587
   50CHL1   H4A 3632   5.614   7.294   2.571
   50CHL1   H4B 3633   5.511   7.434   2.538
   50CHL1    C5 3634   5.477   7.339   2.733
   50CHL1    C6 3635   5.449   7.456   2.792
   50CHL1    H6 3636   5.448   7.550   2.735
   50CHL1    C7 3637   5.420   7.466   2.937
   50CHL1   H7A 3638   5.476   7.552   2.978
   50CHL1   H7B 3639   5.318   7.498   2.953
   50CHL1    C8 3640   5.451   7.331   3.012
   50CHL1    H8 3641   5.560   7.319   3.007
   50CHL1   C14 3642   5.395   7.331   3.151
   50CHL1   H14 3643   5.290   7.325   3.129
   50CHL1   C15 3644   5.387   7.459   3.223
   50CHL1  H15A 3645   5.443   7.540   3.199
   50CHL1  H15B 3646   5.319   7.536   3.180
   50CHL1   C16 3647   5.391   7.413   3.370
   50CHL1  H16A 3648   5.419   7.457   3.465
   50CHL1  H16B 3649   5.340   7.501   3.366
   50CHL1   C17 3650   5.352   7.263   3.382
   50CHL1   H17 3651   5.253   7.218   3.369
   50CHL1   C13 3652   5.422   7.218   3.253
   50CHL1   C18 3653   5.565   7.219   3.291
   50CHL1  H18A 3654   5.595   7.156   3.376
   50CHL1  H18B 3655   5.633   7.216   3.207
   50CHL1  H18C 3656   5.582   7.320   3.318
   50CHL1   C12 3657   5.392   7.089   3.185
   50CHL1  H12A 3658   5.432   7.010   3.250
   50CHL1  H12B 3659   5.283   7.080   3.173
   50CHL1   C11 3660   5.462   7.088   3.048
   50CHL1  H11A 3661   5.571   7.098   3.067
   50CHL1  H11B 3662   5.444   6.991   3.000
   50CHL1    C9 3663   5.414   7.201   2.951
   50CHL1    H9 3664   5.307   7.182   2.953
   50CHL1   C10 3665   5.463   7.200   2.805
   50CHL1   C19 3666   5.592   7.126   2.810
   50CHL1  H19A 3667   5.586   7.019   2.834
   50CHL1  H19B 3668   5.658   7.139   2.720
   50CHL1  H19C 3669   5.637   7.170   2.899
   50CHL1    C1 3670   5.370   7.109   2.727
   50CHL1   H1A 3671   5.377   7.010   2.776
   50CHL1   H1B 3672   5.267   7.149   2.736
   50CHL1    C2 3673   5.409   7.101   2.579
   50CHL1   H2A 3674   5.334   7.038   2.528
   50CHL1   H2B 3675   5.509   7.054   2.568
   50CHL1   C20 3676   5.356   7.212   3.527
   50CHL1   H20 3677   5.448   7.242   3.565
   50CHL1   C21 3678   5.361   7.063   3.527
   50CHL1  H21A 3679   5.460   7.033   3.487
   50CHL1  H21B 3680   5.279   7.025   3.462
   50CHL1  H21C 3681   5.349   7.029   3.631
   50CHL1   C22 3682   5.236   7.260   3.614
   50CHL1  H22A 3683   5.227   7.367   3.629
   50CHL1  H22B 3684   5.147   7.239   3.560
   50CHL1   C23 3685   5.221   7.248   3.759
   50CHL1  H23A 3686   5.120   7.264   3.799
   50CHL1  H23B 3687   5.255   7.146   3.779
   50CHL1   C24 3688   5.286   7.370   3.818
   50CHL1  H24A 3689   5.376   7.360   3.763
   50CHL1  H24B 3690   5.271   7.475   3.789
   50CHL1   C25 3691   5.290   7.346   3.960
   50CHL1   H25 3692   5.207   7.305   4.014
   50CHL1   C26 3693   5.345   7.209   3.979
   50CHL1  H26A 3694   5.379   7.130   3.912
   50CHL1  H26B 3695   5.421   7.268   3.927
   50CHL1  H26C 3696   5.370   7.178   4.081
   50CHL1   C27 3697   5.333   7.477   4.020
   50CHL1  H27A 3698   5.394   7.537   3.953
   50CHL1  H27B 3699   5.264   7.560   4.019
   50CHL1  H27C 3700   5.341   7.475   4.128
   51CHL1    C3 3701   1.138   6.785   2.502
   51CHL1    H3 3702   1.082   6.865   2.452
   51CHL1    O3 3703   1.168   6.713   2.385
   51CHL1   H3' 3704   1.082   6.706   2.343
   51CHL1    C4 3705   1.272   6.826   2.574
   51CHL1   H4A 3706   1.325   6.729   2.570
   51CHL1   H4B 3707   1.324   6.897   2.506
   51CHL1    C5 3708   1.291   6.863   2.722
   51CHL1    C6 3709   1.363   6.978   2.763
   51CHL1    H6 3710   1.381   7.056   2.685
   51CHL1    C7 3711   1.343   7.040   2.902
   51CHL1   H7A 3712   1.426   7.102   2.937
   51CHL1   H7B 3713   1.296   7.138   2.906
   51CHL1    C8 3714   1.261   6.948   3.002
   51CHL1    H8 3715   1.340   6.874   3.020
   51CHL1   C14 3716   1.216   7.017   3.132
   51CHL1   H14 3717   1.123   7.070   3.114
   51CHL1   C15 3718   1.313   7.119   3.192
   51CHL1  H15A 3719   1.416   7.083   3.173
   51CHL1  H15B 3720   1.302   7.220   3.146
   51CHL1   C16 3721   1.278   7.120   3.341
   51CHL1  H16A 3722   1.367   7.081   3.396
   51CHL1  H16B 3723   1.256   7.222   3.378
   51CHL1   C17 3724   1.158   7.022   3.366
   51CHL1   H17 3725   1.063   7.080   3.361
   51CHL1   C13 3726   1.158   6.930   3.242
   51CHL1   C18 3727   1.256   6.824   3.266
   51CHL1  H18A 3728   1.227   6.740   3.331
   51CHL1  H18B 3729   1.288   6.776   3.172
   51CHL1  H18C 3730   1.342   6.876   3.313
   51CHL1   C12 3731   1.028   6.868   3.189
   51CHL1  H12A 3732   0.986   6.795   3.261
   51CHL1  H12B 3733   0.955   6.951   3.179
   51CHL1   C11 3734   1.050   6.790   3.056
   51CHL1  H11A 3735   1.095   6.691   3.076
   51CHL1  H11B 3736   0.946   6.775   3.018
   51CHL1    C9 3737   1.138   6.865   2.949
   51CHL1    H9 3738   1.054   6.936   2.943
   51CHL1   C10 3739   1.171   6.794   2.809
   51CHL1   C19 3740   1.234   6.660   2.843
   51CHL1  H19A 3741   1.278   6.615   2.751
   51CHL1  H19B 3742   1.311   6.677   2.920
   51CHL1  H19C 3743   1.158   6.591   2.883
   51CHL1    C1 3744   1.033   6.758   2.732
   51CHL1   H1A 3745   0.970   6.698   2.800
   51CHL1   H1B 3746   0.961   6.838   2.707
   51CHL1    C2 3747   1.045   6.701   2.589
   51CHL1   H2A 3748   0.945   6.697   2.538
   51CHL1   H2B 3749   1.085   6.599   2.598
   51CHL1   C20 3750   1.168   6.957   3.506
   51CHL1   H20 3751   1.266   6.904   3.511
   51CHL1   C21 3752   1.054   6.854   3.525
   51CHL1  H21A 3753   1.057   6.803   3.624
   51CHL1  H21B 3754   1.061   6.774   3.449
   51CHL1  H21C 3755   0.956   6.905   3.517
   51CHL1   C22 3756   1.167   7.058   3.625
   51CHL1  H22A 3757   1.218   7.153   3.599
   51CHL1  H22B 3758   1.060   7.080   3.648
   51CHL1   C23 3759   1.233   7.008   3.755
   51CHL1  H23A 3760   1.186   6.912   3.787
   51CHL1  H23B 3761   1.342   6.991   3.734
   51CHL1   C24 3762   1.226   7.107   3.872
   51CHL1  H24A 3763   1.289   7.072   3.956
   51CHL1  H24B 3764   1.269   7.204   3.837
   51CHL1   C25 3765   1.086   7.135   3.932
   51CHL1   H25 3766   1.018   7.161   3.848
   51CHL1   C26 3767   1.024   7.018   4.012
   51CHL1  H26A 3768   1.089   6.990   4.097
   51CHL1  H26B 3769   0.927   7.052   4.056
   51CHL1  H26C 3770   1.005   6.927   3.951
   51CHL1   C27 3771   1.098   7.255   4.027
   51CHL1  H27A 3772   1.003   7.269   4.082
   51CHL1  H27B 3773   1.179   7.237   4.101
   51CHL1  H27C 3774   1.124   7.347   3.971
   52CHL1    C3 3775   6.595   0.835   2.517
   52CHL1    H3 3776   6.612   0.945   2.530
   52CHL1    O3 3777   6.586   0.806   2.379
   52CHL1   H3' 3778   6.528   0.873   2.344
   52CHL1    C4 3779   6.709   0.756   2.579
   52CHL1   H4A 3780   6.686   0.649   2.563
   52CHL1   H4B 3781   6.804   0.779   2.528
   52CHL1    C5 3782   6.719   0.783   2.727
   52CHL1    C6 3783   6.830   0.837   2.780
   52CHL1    H6 3784   6.919   0.858   2.719
   52CHL1    C7 3785   6.845   0.868   2.923
   52CHL1   H7A 3786   6.947   0.847   2.962
   52CHL1   H7B 3787   6.824   0.976   2.930
   52CHL1    C8 3788   6.741   0.798   3.008
   52CHL1    H8 3789   6.767   0.691   3.021
   52CHL1   C14 3790   6.744   0.870   3.142
   52CHL1   H14 3791   6.710   0.976   3.117
   52CHL1   C15 3792   6.872   0.891   3.216
   52CHL1  H15A 3793   6.915   0.792   3.216
   52CHL1  H15B 3794   6.928   0.970   3.163
   52CHL1   C16 3795   6.849   0.909   3.366
   52CHL1  H16A 3796   6.884   0.827   3.432
   52CHL1  H16B 3797   6.880   1.010   3.402
   52CHL1   C17 3798   6.700   0.881   3.377
   52CHL1   H17 3799   6.689   0.989   3.339
   52CHL1   C13 3800   6.656   0.805   3.242
   52CHL1   C18 3801   6.678   0.665   3.286
   52CHL1  H18A 3802   6.704   0.606   3.198
   52CHL1  H18B 3803   6.757   0.662   3.363
   52CHL1  H18C 3804   6.583   0.630   3.331
   52CHL1   C12 3805   6.529   0.805   3.154
   52CHL1  H12A 3806   6.440   0.753   3.193
   52CHL1  H12B 3807   6.526   0.913   3.132
   52CHL1   C11 3808   6.494   0.752   3.023
   52CHL1  H11A 3809   6.481   0.644   3.046
   52CHL1  H11B 3810   6.393   0.797   2.995
   52CHL1    C9 3811   6.603   0.810   2.941
   52CHL1    H9 3812   6.583   0.921   2.936
   52CHL1   C10 3813   6.590   0.754   2.804
   52CHL1   C19 3814   6.558   0.605   2.824
   52CHL1  H19A 3815   6.553   0.560   2.724
   52CHL1  H19B 3816   6.639   0.559   2.887
   52CHL1  H19C 3817   6.461   0.577   2.869
   52CHL1    C1 3818   6.471   0.822   2.734
   52CHL1   H1A 3819   6.375   0.794   2.783
   52CHL1   H1B 3820   6.486   0.930   2.749
   52CHL1    C2 3821   6.466   0.792   2.584
   52CHL1   H2A 3822   6.382   0.840   2.538
   52CHL1   H2B 3823   6.444   0.686   2.562
   52CHL1   C20 3824   6.636   0.852   3.540
   52CHL1   H20 3825   6.682   0.759   3.568
   52CHL1   C21 3826   6.473   0.814   3.583
   52CHL1  H21A 3827   6.421   0.744   3.516
   52CHL1  H21B 3828   6.385   0.877   3.558
   52CHL1  H21C 3829   6.422   0.866   3.665
   52CHL1   C22 3830   6.683   0.977   3.624
   52CHL1  H22A 3831   6.787   0.989   3.597
   52CHL1  H22B 3832   6.652   1.082   3.606
   52CHL1   C23 3833   6.657   0.968   3.773
   52CHL1  H23A 3834   6.553   0.965   3.803
   52CHL1  H23B 3835   6.692   0.869   3.803
   52CHL1   C24 3836   6.712   1.088   3.850
   52CHL1  H24A 3837   6.809   1.099   3.807
   52CHL1  H24B 3838   6.674   1.189   3.827
   52CHL1   C25 3839   6.705   1.052   4.001
   52CHL1   H25 3840   6.739   0.948   4.015
   52CHL1   C26 3841   6.773   1.148   4.097
   52CHL1  H26A 3842   6.874   1.114   4.116
   52CHL1  H26B 3843   6.776   1.244   4.041
   52CHL1  H26C 3844   6.743   1.152   4.201
   52CHL1   C27 3845   6.566   1.067   4.044
   52CHL1  H27A 3846   6.550   1.053   4.152
   52CHL1  H27B 3847   6.549   1.175   4.015
   52CHL1  H27C 3848   6.503   0.996   3.989
   53CHL1    C3 3849   1.763   7.355   2.516
   53CHL1    H3 3850   1.669   7.391   2.565
   53CHL1    O3 3851   1.753   7.379   2.377
   53CHL1   H3' 3852   1.779   7.468   2.355
   53CHL1    C4 3853   1.884   7.423   2.584
   53CHL1   H4A 3854   1.981   7.390   2.539
   53CHL1   H4B 3855   1.877   7.532   2.571
   53CHL1    C5 3856   1.877   7.386   2.730
   53CHL1    C6 3857   1.870   7.480   2.824
   53CHL1    H6 3858   1.878   7.585   2.797
   53CHL1    C7 3859   1.858   7.448   2.968
   53CHL1   H7A 3860   1.936   7.508   3.019
   53CHL1   H7B 3861   1.764   7.484   3.011
   53CHL1    C8 3862   1.870   7.296   2.999
   53CHL1    H8 3863   1.966   7.257   2.966
   53CHL1   C14 3864   1.852   7.267   3.147
   53CHL1   H14 3865   1.741   7.255   3.149
   53CHL1   C15 3866   1.877   7.369   3.259
   53CHL1  H15A 3867   1.982   7.390   3.280
   53CHL1  H15B 3868   1.820   7.462   3.250
   53CHL1   C16 3869   1.855   7.290   3.385
   53CHL1  H16A 3870   1.944   7.301   3.453
   53CHL1  H16B 3871   1.763   7.327   3.434
   53CHL1   C17 3872   1.844   7.143   3.338
   53CHL1   H17 3873   1.737   7.120   3.321
   53CHL1   C13 3874   1.909   7.139   3.201
   53CHL1   C18 3875   2.061   7.120   3.223
   53CHL1  H18A 3876   2.091   7.030   3.279
   53CHL1  H18B 3877   2.099   7.094   3.125
   53CHL1  H18C 3878   2.116   7.206   3.267
   53CHL1   C12 3879   1.853   7.041   3.102
   53CHL1  H12A 3880   1.883   6.945   3.141
   53CHL1  H12B 3881   1.742   7.047   3.105
   53CHL1   C11 3882   1.886   7.055   2.953
   53CHL1  H11A 3883   1.994   7.032   2.944
   53CHL1  H11B 3884   1.835   6.980   2.890
   53CHL1    C9 3885   1.831   7.193   2.903
   53CHL1    H9 3886   1.722   7.197   2.912
   53CHL1   C10 3887   1.869   7.236   2.760
   53CHL1   C19 3888   2.004   7.191   2.722
   53CHL1  H19A 3889   2.083   7.266   2.739
   53CHL1  H19B 3890   2.045   7.099   2.768
   53CHL1  H19C 3891   2.013   7.178   2.612
   53CHL1    C1 3892   1.775   7.158   2.672
   53CHL1   H1A 3893   1.803   7.051   2.679
   53CHL1   H1B 3894   1.675   7.175   2.715
   53CHL1    C2 3895   1.772   7.204   2.527
   53CHL1   H2A 3896   1.682   7.161   2.481
   53CHL1   H2B 3897   1.861   7.167   2.472
   53CHL1   C20 3898   1.891   7.053   3.448
   53CHL1   H20 3899   1.998   7.070   3.468
   53CHL1   C21 3900   1.884   6.911   3.400
   53CHL1  H21A 3901   1.954   6.892   3.318
   53CHL1  H21B 3902   1.786   6.895   3.359
   53CHL1  H21C 3903   1.900   6.834   3.477
   53CHL1   C22 3904   1.799   7.088   3.569
   53CHL1  H22A 3905   1.808   7.193   3.601
   53CHL1  H22B 3906   1.693   7.063   3.544
   53CHL1   C23 3907   1.818   7.017   3.702
   53CHL1  H23A 3908   1.756   7.060   3.783
   53CHL1  H23B 3909   1.842   6.907   3.687
   53CHL1   C24 3910   1.931   7.029   3.788
   53CHL1  H24A 3911   1.958   7.035   3.684
   53CHL1  H24B 3912   1.968   7.124   3.826
   53CHL1   C25 3913   1.956   6.912   3.884
   53CHL1   H25 3914   1.954   6.804   3.850
   53CHL1   C26 3915   2.081   6.919   3.935
   53CHL1  H26A 3916   2.125   6.875   3.846
   53CHL1  H26B 3917   2.109   7.026   3.957
   53CHL1  H26C 3918   2.121   6.853   4.012
   53CHL1   C27 3919   1.919   6.960   4.017
   53CHL1  H27A 3920   1.926   7.071   4.016
   53CHL1  H27B 3921   1.818   6.933   4.010
   53CHL1  H27C 3922   1.973   6.921   4.109
   54CHL1    C3 3923   0.442   6.554   2.515
   54CHL1    H3 3924   0.542   6.604   2.511
   54CHL1    O3 3925   0.393   6.528   2.384
   54CHL1   H3' 3926   0.350   6.608   2.350
   54CHL1    C4 3927   0.452   6.427   2.595
   54CHL1   H4A 3928   0.365   6.363   2.571
   54CHL1   H4B 3929   0.542   6.376   2.555
   54CHL1    C5 3930   0.462   6.450   2.744
   54CHL1    C6 3931   0.566   6.403   2.812
   54CHL1    H6 3932   0.643   6.346   2.758
   54CHL1    C7 3933   0.576   6.410   2.961
   54CHL1   H7A 3934   0.609   6.310   2.994
   54CHL1   H7B 3935   0.655   6.478   2.995
   54CHL1    C8 3936   0.442   6.455   3.027
   54CHL1    H8 3937   0.369   6.376   3.004
   54CHL1   C14 3938   0.458   6.483   3.177
   54CHL1   H14 3939   0.528   6.567   3.192
   54CHL1   C15 3940   0.526   6.379   3.264
   54CHL1  H15A 3941   0.460   6.298   3.240
   54CHL1  H15B 3942   0.628   6.343   3.247
   54CHL1   C16 3943   0.488   6.408   3.408
   54CHL1  H16A 3944   0.473   6.311   3.451
   54CHL1  H16B 3945   0.570   6.440   3.471
   54CHL1   C17 3946   0.369   6.511   3.400
   54CHL1   H17 3947   0.425   6.605   3.416
   54CHL1   C13 3948   0.329   6.523   3.248
   54CHL1   C18 3949   0.222   6.428   3.209
   54CHL1  H18A 3950   0.127   6.432   3.266
   54CHL1  H18B 3951   0.203   6.406   3.104
   54CHL1  H18C 3952   0.274   6.334   3.218
   54CHL1   C12 3953   0.274   6.649   3.186
   54CHL1  H12A 3954   0.177   6.670   3.236
   54CHL1  H12B 3955   0.345   6.731   3.206
   54CHL1   C11 3956   0.249   6.627   3.033
   54CHL1  H11A 3957   0.165   6.557   3.012
   54CHL1  H11B 3958   0.207   6.719   2.993
   54CHL1    C9 3959   0.374   6.571   2.957
   54CHL1    H9 3960   0.449   6.653   2.962
   54CHL1   C10 3961   0.351   6.535   2.807
   54CHL1   C19 3962   0.216   6.461   2.785
   54CHL1  H19A 3963   0.207   6.378   2.857
   54CHL1  H19B 3964   0.131   6.530   2.798
   54CHL1  H19C 3965   0.204   6.418   2.683
   54CHL1    C1 3966   0.354   6.667   2.730
   54CHL1   H1A 3967   0.270   6.728   2.770
   54CHL1   H1B 3968   0.449   6.720   2.759
   54CHL1    C2 3969   0.344   6.648   2.578
   54CHL1   H2A 3970   0.381   6.733   2.518
   54CHL1   H2B 3971   0.239   6.622   2.551
   54CHL1   C20 3972   0.267   6.509   3.519
   54CHL1   H20 3973   0.204   6.420   3.524
   54CHL1   C21 3974   0.162   6.616   3.506
   54CHL1  H21A 3975   0.218   6.708   3.480
   54CHL1  H21B 3976   0.108   6.631   3.602
   54CHL1  H21C 3977   0.088   6.586   3.428
   54CHL1   C22 3978   0.332   6.517   3.658
   54CHL1  H22A 3979   0.420   6.449   3.664
   54CHL1  H22B 3980   0.361   6.621   3.678
   54CHL1   C23 3981   0.234   6.486   3.771
   54CHL1  H23A 3982   0.128   6.508   3.752
   54CHL1  H23B 3983   0.233   6.380   3.780
   54CHL1   C24 3984   0.277   6.529   3.908
   54CHL1  H24A 3985   0.386   6.501   3.922
   54CHL1  H24B 3986   0.256   6.633   3.933
   54CHL1   C25 3987   0.195   6.459   4.014
   54CHL1   H25 3988   0.258   6.372   4.008
   54CHL1   C26 3989   0.217   6.512   4.150
   54CHL1  H26A 3990   0.206   6.616   4.176
   54CHL1  H26B 3991   0.153   6.444   4.213
   54CHL1  H26C 3992   0.325   6.501   4.174
   54CHL1   C27 3993   0.047   6.418   3.999
   54CHL1  H27A 3994   0.018   6.351   3.915
   54CHL1  H27B 3995   0.010   6.362   4.089
   54CHL1  H27C 3996  -0.003   6.513   3.982
   55CHL1    C3 3997   6.969   6.687   2.513
   55CHL1    H3 3998   7.025   6.591   2.520
   55CHL1    O3 3999   6.983   6.745   2.383
   55CHL1   H3' 4000   7.070   6.786   2.380
   55CHL1    C4 4001   6.819   6.659   2.532
   55CHL1   H4A 4002   6.760   6.745   2.494
   55CHL1   H4B 4003   6.796   6.575   2.462
   55CHL1    C5 4004   6.775   6.637   2.676
   55CHL1    C6 4005   6.681   6.553   2.712
   55CHL1    H6 4006   6.650   6.495   2.630
   55CHL1    C7 4007   6.648   6.499   2.850
   55CHL1   H7A 4008   6.560   6.432   2.850
   55CHL1   H7B 4009   6.723   6.431   2.898
   55CHL1    C8 4010   6.673   6.599   2.952
   55CHL1    H8 4011   6.580   6.656   2.941
   55CHL1   C14 4012   6.688   6.533   3.086
   55CHL1   H14 4013   6.784   6.475   3.090
   55CHL1   C15 4014   6.569   6.446   3.128
   55CHL1  H15A 4015   6.467   6.483   3.115
   55CHL1  H15B 4016   6.535   6.367   3.063
   55CHL1   C16 4017   6.589   6.438   3.279
   55CHL1  H16A 4018   6.499   6.458   3.338
   55CHL1  H16B 4019   6.586   6.334   3.299
   55CHL1   C17 4020   6.708   6.538   3.315
   55CHL1   H17 4021   6.808   6.488   3.307
   55CHL1   C13 4022   6.708   6.629   3.195
   55CHL1   C18 4023   6.581   6.700   3.199
   55CHL1  H18A 4024   6.593   6.772   3.278
   55CHL1  H18B 4025   6.547   6.748   3.106
   55CHL1  H18C 4026   6.500   6.636   3.229
   55CHL1   C12 4027   6.816   6.734   3.174
   55CHL1  H12A 4028   6.796   6.819   3.243
   55CHL1  H12B 4029   6.914   6.688   3.194
   55CHL1   C11 4030   6.809   6.787   3.030
   55CHL1  H11A 4031   6.715   6.847   3.019
   55CHL1  H11B 4032   6.895   6.852   3.010
   55CHL1    C9 4033   6.803   6.674   2.927
   55CHL1    H9 4034   6.886   6.602   2.947
   55CHL1   C10 4035   6.830   6.722   2.783
   55CHL1   C19 4036   6.740   6.840   2.751
   55CHL1  H19A 4037   6.757   6.889   2.653
   55CHL1  H19B 4038   6.633   6.808   2.750
   55CHL1  H19C 4039   6.746   6.919   2.828
   55CHL1    C1 4040   6.982   6.742   2.763
   55CHL1   H1A 4041   7.014   6.819   2.835
   55CHL1   H1B 4042   7.032   6.645   2.788
   55CHL1    C2 4043   7.023   6.783   2.620
   55CHL1   H2A 4044   7.134   6.788   2.616
   55CHL1   H2B 4045   6.980   6.885   2.602
   55CHL1   C20 4046   6.701   6.613   3.451
   55CHL1   H20 4047   6.727   6.720   3.440
   55CHL1   C21 4048   6.814   6.568   3.534
   55CHL1  H21A 4049   6.778   6.467   3.526
   55CHL1  H21B 4050   6.815   6.576   3.645
   55CHL1  H21C 4051   6.915   6.565   3.489
   55CHL1   C22 4052   6.570   6.594   3.529
   55CHL1  H22A 4053   6.491   6.631   3.461
   55CHL1  H22B 4054   6.542   6.486   3.548
   55CHL1   C23 4055   6.567   6.665   3.664
   55CHL1  H23A 4056   6.461   6.683   3.691
   55CHL1  H23B 4057   6.613   6.594   3.737
   55CHL1   C24 4058   6.636   6.802   3.683
   55CHL1  H24A 4059   6.742   6.798   3.649
   55CHL1  H24B 4060   6.583   6.873   3.617
   55CHL1   C25 4061   6.633   6.849   3.833
   55CHL1   H25 4062   6.537   6.817   3.876
   55CHL1   C26 4063   6.748   6.784   3.915
   55CHL1  H26A 4064   6.743   6.673   3.918
   55CHL1  H26B 4065   6.851   6.808   3.887
   55CHL1  H26C 4066   6.741   6.824   4.017
   55CHL1   C27 4067   6.620   7.000   3.861
   55CHL1  H27A 4068   6.589   7.047   3.955
   55CHL1  H27B 4069   6.718   7.015   3.904
   55CHL1  H27C 4070   6.609   7.063   3.770
   56CHL1    C3 4071   7.496   0.736   2.509
   56CHL1    H3 4072   7.554   0.647   2.542
   56CHL1    O3 4073   7.498   0.756   2.370
   56CHL1   H3' 4074   7.588   0.785   2.358
   56CHL1    C4 4075   7.351   0.722   2.539
   56CHL1   H4A 4076   7.284   0.798   2.497
   56CHL1   H4B 4077   7.316   0.621   2.503
   56CHL1    C5 4078   7.337   0.733   2.683
   56CHL1    C6 4079   7.281   0.644   2.743
   56CHL1    H6 4080   7.249   0.554   2.689
   56CHL1    C7 4081   7.275   0.651   2.886
   56CHL1   H7A 4082   7.180   0.623   2.875
   56CHL1   H7B 4083   7.336   0.587   2.946
   56CHL1    C8 4084   7.269   0.765   2.974
   56CHL1    H8 4085   7.178   0.824   2.949
   56CHL1   C14 4086   7.276   0.743   3.124
   56CHL1   H14 4087   7.366   0.672   3.143
   56CHL1   C15 4088   7.150   0.708   3.195
   56CHL1  H15A 4089   7.057   0.717   3.143
   56CHL1  H15B 4090   7.196   0.624   3.168
   56CHL1   C16 4091   7.156   0.687   3.341
   56CHL1  H16A 4092   7.061   0.719   3.390
   56CHL1  H16B 4093   7.190   0.593   3.391
   56CHL1   C17 4094   7.270   0.775   3.347
   56CHL1   H17 4095   7.363   0.712   3.354
   56CHL1   C13 4096   7.292   0.855   3.210
   56CHL1   C18 4097   7.181   0.961   3.196
   56CHL1  H18A 4098   7.154   0.982   3.092
   56CHL1  H18B 4099   7.094   0.931   3.254
   56CHL1  H18C 4100   7.213   1.054   3.244
   56CHL1   C12 4101   7.422   0.901   3.155
   56CHL1  H12A 4102   7.443   1.006   3.184
   56CHL1  H12B 4103   7.500   0.823   3.163
   56CHL1   C11 4104   7.431   0.910   3.009
   56CHL1  H11A 4105   7.336   0.965   2.993
   56CHL1  H11B 4106   7.528   0.956   2.979
   56CHL1    C9 4107   7.402   0.800   2.925
   56CHL1    H9 4108   7.482   0.726   2.948
   56CHL1   C10 4109   7.402   0.825   2.772
   56CHL1   C19 4110   7.296   0.926   2.737
   56CHL1  H19A 4111   7.195   0.932   2.780
   56CHL1  H19B 4112   7.351   0.989   2.805
   56CHL1  H19C 4113   7.302   0.974   2.637
   56CHL1    C1 4114   7.548   0.847   2.730
   56CHL1   H1A 4115   7.588   0.936   2.783
   56CHL1   H1B 4116   7.609   0.766   2.774
   56CHL1    C2 4117   7.562   0.856   2.577
   56CHL1   H2A 4118   7.670   0.870   2.556
   56CHL1   H2B 4119   7.512   0.942   2.528
   56CHL1   C20 4120   7.225   0.847   3.473
   56CHL1   H20 4121   7.140   0.911   3.462
   56CHL1   C21 4122   7.312   0.946   3.449
   56CHL1  H21A 4123   7.385   0.864   3.472
   56CHL1  H21B 4124   7.363   1.029   3.492
   56CHL1  H21C 4125   7.323   1.027   3.378
   56CHL1   C22 4126   7.219   0.752   3.603
   56CHL1  H22A 4127   7.114   0.721   3.594
   56CHL1  H22B 4128   7.295   0.672   3.593
   56CHL1   C23 4129   7.237   0.786   3.751
   56CHL1  H23A 4130   7.339   0.770   3.790
   56CHL1  H23B 4131   7.207   0.886   3.769
   56CHL1   C24 4132   7.153   0.737   3.862
   56CHL1  H24A 4133   7.050   0.771   3.838
   56CHL1  H24B 4134   7.164   0.628   3.852
   56CHL1   C25 4135   7.209   0.795   3.996
   56CHL1   H25 4136   7.242   0.902   3.993
   56CHL1   C26 4137   7.098   0.776   4.095
   56CHL1  H26A 4138   7.009   0.839   4.073
   56CHL1  H26B 4139   7.067   0.671   4.078
   56CHL1  H26C 4140   7.130   0.795   4.199
   56CHL1   C27 4141   7.335   0.723   4.041
   56CHL1  H27A 4142   7.418   0.749   3.974
   56CHL1  H27B 4143   7.363   0.754   4.144
   56CHL1  H27C 4144   7.311   0.615   4.036
   57SAPC     N 4145   4.080   3.313   6.431
   57SAPC   C12 4146   4.211   3.233   6.421
   57SAPC  H12A 4147   4.190   3.134   6.453
   57SAPC  H12B 4148   4.286   3.276   6.486
   57SAPC   C13 4149   3.983   3.267   6.327
   57SAPC  H13A 4150   3.966   3.160   6.332
   57SAPC  H13B 4151   3.889   3.319   6.332
   57SAPC  H13C 4152   4.027   3.287   6.228
   57SAPC   C14 4153   4.023   3.303   6.570
   57SAPC  H14A 4154   4.005   3.201   6.597
   57SAPC  H14B 4155   4.092   3.346   6.642
   57SAPC  H14C 4156   3.930   3.359   6.580
   57SAPC   C15 4157   4.107   3.458   6.408
   57SAPC  H15A 4158   4.162   3.501   6.491
   57SAPC  H15B 4159   4.166   3.470   6.317
   57SAPC  H15C 4160   4.014   3.513   6.398
   57SAPC   C11 4161   4.281   3.206   6.284
   57SAPC  H11A 4162   4.212   3.137   6.228
   57SAPC  H11B 4163   4.375   3.148   6.301
   57SAPC     P 4164   4.306   3.306   6.055
   57SAPC   O13 4165   4.396   3.196   6.013
   57SAPC   O14 4166   4.161   3.290   6.029
   57SAPC   O12 4167   4.314   3.326   6.213
   57SAPC   O11 4168   4.354   3.442   5.993
   57SAPC    C1 4169   4.406   3.546   6.074
   57SAPC    HA 4170   4.326   3.598   6.129
   57SAPC    HB 4171   4.484   3.509   6.146
   57SAPC    C2 4172   4.476   3.646   5.987
   57SAPC    HS 4173   4.465   3.749   6.028
   57SAPC   O21 4174   4.437   3.647   5.850
   57SAPC   C21 4175   4.318   3.691   5.818
   57SAPC   O22 4176   4.237   3.744   5.892
   57SAPC   C22 4177   4.305   3.673   5.670
   57SAPC   H2R 4178   4.313   3.568   5.636
   57SAPC   H2S 4179   4.209   3.718   5.641
   57SAPC    C3 4180   4.623   3.602   5.994
   57SAPC    HX 4181   4.678   3.625   6.087
   57SAPC    HY 4182   4.660   3.668   5.920
   57SAPC   O31 4183   4.659   3.474   5.953
   57SAPC   C31 4184   4.699   3.472   5.829
   57SAPC   O32 4185   4.695   3.565   5.750
   57SAPC   C32 4186   4.760   3.337   5.814
   57SAPC   H2X 4187   4.687   3.274   5.868
   57SAPC   H2Y 4188   4.858   3.334   5.867
   57SAPC   C23 4189   4.415   3.751   5.607
   57SAPC   H3R 4190   4.518   3.747   5.646
   57SAPC   H3S 4191   4.383   3.853   5.609
   57SAPC   C24 4192   4.416   3.748   5.462
   57SAPC   H4R 4193   4.512   3.802   5.446
   57SAPC   H4S 4194   4.327   3.811   5.437
   57SAPC   C25 4195   4.406   3.625   5.385
   57SAPC   H5R 4196   4.306   3.601   5.351
   57SAPC   C26 4197   4.513   3.558   5.348
   57SAPC   H6R 4198   4.505   3.458   5.308
   57SAPC   C27 4199   4.650   3.600   5.379
   57SAPC   H7R 4200   4.719   3.516   5.356
   57SAPC   H7S 4201   4.653   3.620   5.488
   57SAPC   C28 4202   4.705   3.724   5.319
   57SAPC   H8R 4203   4.727   3.800   5.394
   57SAPC   C29 4204   4.731   3.748   5.193
   57SAPC   H9R 4205   4.776   3.843   5.157
   57SAPC  C210 4206   4.703   3.647   5.096
   57SAPC  H10R 4207   4.619   3.688   5.037
   57SAPC  H10S 4208   4.671   3.551   5.141
   57SAPC  C211 4209   4.821   3.638   5.013
   57SAPC  H11R 4210   4.914   3.695   5.023
   57SAPC  C212 4211   4.812   3.544   4.927
   57SAPC  H12R 4212   4.895   3.555   4.854
   57SAPC  C213 4213   4.689   3.451   4.917
   57SAPC  H13R 4214   4.653   3.415   5.014
   57SAPC  H13S 4215   4.707   3.347   4.897
   57SAPC  C214 4216   4.582   3.484   4.818
   57SAPC  H14R 4217   4.540   3.581   4.847
   57SAPC  C215 4218   4.546   3.427   4.697
   57SAPC  H15R 4219   4.490   3.493   4.635
   57SAPC  C216 4220   4.585   3.313   4.602
   57SAPC  H16R 4221   4.500   3.253   4.568
   57SAPC  H16S 4222   4.655   3.235   4.642
   57SAPC  C217 4223   4.651   3.352   4.470
   57SAPC  H17R 4224   4.685   3.263   4.429
   57SAPC  H17S 4225   4.751   3.382   4.461
   57SAPC  C218 4226   4.599   3.453   4.375
   57SAPC  H18R 4227   4.609   3.559   4.411
   57SAPC  H18S 4228   4.492   3.440   4.356
   57SAPC  C219 4229   4.683   3.427   4.245
   57SAPC  H19R 4230   4.699   3.352   4.172
   57SAPC  H19S 4231   4.788   3.436   4.230
   57SAPC  C220 4232   4.616   3.468   4.141
   57SAPC  H20R 4233   4.628   3.556   4.208
   57SAPC  H20S 4234   4.509   3.482   4.126
   57SAPC  H20T 4235   4.690   3.477   4.055
   57SAPC   C33 4236   4.779   3.289   5.670
   57SAPC   H3X 4237   4.829   3.191   5.671
   57SAPC   H3Y 4238   4.858   3.343   5.625
   57SAPC   C34 4239   4.656   3.285   5.580
   57SAPC   H4X 4240   4.697   3.272   5.477
   57SAPC   H4Y 4241   4.600   3.381   5.578
   57SAPC   C35 4242   4.573   3.161   5.615
   57SAPC   H5X 4243   4.551   3.158   5.724
   57SAPC   H5Y 4244   4.638   3.073   5.592
   57SAPC   C36 4245   4.438   3.149   5.544
   57SAPC   H6X 4246   4.378   3.238   5.574
   57SAPC   H6Y 4247   4.380   3.062   5.583
   57SAPC   C37 4248   4.452   3.132   5.392
   57SAPC   H7X 4249   4.496   3.031   5.373
   57SAPC   H7Y 4250   4.521   3.209   5.354
   57SAPC   C38 4251   4.317   3.141   5.318
   57SAPC   H8X 4252   4.273   3.239   5.347
   57SAPC   H8Y 4253   4.250   3.061   5.356
   57SAPC   C39 4254   4.323   3.133   5.165
   57SAPC   H9X 4255   4.218   3.132   5.127
   57SAPC   H9Y 4256   4.370   3.037   5.133
   57SAPC  C310 4257   4.403   3.247   5.101
   57SAPC  H10X 4258   4.421   3.226   4.993
   57SAPC  H10Y 4259   4.502   3.252   5.150
   57SAPC  C311 4260   4.339   3.383   5.109
   57SAPC  H11X 4261   4.407   3.462   5.068
   57SAPC  H11Y 4262   4.308   3.416   5.211
   57SAPC  C312 4263   4.218   3.385   5.024
   57SAPC  H12X 4264   4.130   3.327   5.062
   57SAPC  H12Y 4265   4.236   3.359   4.918
   57SAPC  C313 4266   4.180   3.524   5.030
   57SAPC  H13X 4267   4.249   3.598   5.078
   57SAPC  H13Y 4268   4.086   3.510   5.084
   57SAPC  C314 4269   4.144   3.578   4.901
   57SAPC  H14X 4270   4.106   3.669   4.938
   57SAPC  H14Y 4271   4.060   3.513   4.863
   57SAPC  C315 4272   4.273   3.622   4.823
   57SAPC  H15X 4273   4.298   3.515   4.811
   57SAPC  H15Y 4274   4.344   3.677   4.882
   57SAPC  C316 4275   4.271   3.725   4.701
   57SAPC  H16X 4276   4.197   3.793   4.665
   57SAPC  H16Y 4277   4.196   3.657   4.718
   57SAPC  C317 4278   4.338   3.768   4.556
   57SAPC  H17X 4279   4.436   3.778   4.600
   57SAPC  H17Y 4280   4.285   3.866   4.529
   57SAPC  C318 4281   4.353   3.709   4.410
   57SAPC  H18X 4282   4.397   3.611   4.403
   57SAPC  H18Y 4283   4.450   3.715   4.369
   57SAPC  H18Z 4284   4.266   3.694   4.343
   58SAPC     N 4285   3.477   2.095   6.136
   58SAPC   C12 4286   3.490   2.050   6.281
   58SAPC  H12A 4287   3.488   2.138   6.344
   58SAPC  H12B 4288   3.587   2.003   6.294
   58SAPC   C13 4289   3.482   1.979   6.043
   58SAPC  H13A 4290   3.445   2.003   5.944
   58SAPC  H13B 4291   3.585   1.945   6.034
   58SAPC  H13C 4292   3.424   1.896   6.084
   58SAPC   C14 4293   3.348   2.168   6.121
   58SAPC  H14A 4294   3.352   2.262   6.174
   58SAPC  H14B 4295   3.326   2.189   6.017
   58SAPC  H14C 4296   3.268   2.110   6.165
   58SAPC   C15 4297   3.595   2.182   6.104
   58SAPC  H15A 4298   3.585   2.227   6.006
   58SAPC  H15B 4299   3.608   2.264   6.174
   58SAPC  H15C 4300   3.686   2.122   6.106
   58SAPC   C11 4301   3.385   1.952   6.336
   58SAPC  H11A 4302   3.284   1.996   6.318
   58SAPC  H11B 4303   3.400   1.950   6.447
   58SAPC     P 4304   3.407   1.686   6.353
   58SAPC   O13 4305   3.548   1.640   6.353
   58SAPC   O14 4306   3.344   1.701   6.485
   58SAPC   O12 4307   3.397   1.824   6.274
   58SAPC   O11 4308   3.318   1.591   6.264
   58SAPC    C1 4309   3.233   1.639   6.161
   58SAPC    HA 4310   3.131   1.620   6.196
   58SAPC    HB 4311   3.228   1.748   6.148
   58SAPC    C2 4312   3.257   1.561   6.028
   58SAPC    HS 4313   3.267   1.452   6.054
   58SAPC   O21 4314   3.373   1.612   5.961
   58SAPC   C21 4315   3.489   1.558   5.997
   58SAPC   O22 4316   3.504   1.459   6.065
   58SAPC   C22 4317   3.605   1.631   5.926
   58SAPC   H2R 4318   3.646   1.711   5.991
   58SAPC   H2S 4319   3.687   1.557   5.910
   58SAPC    C3 4320   3.133   1.577   5.935
   58SAPC    HX 4321   3.040   1.536   5.977
   58SAPC    HY 4322   3.146   1.519   5.840
   58SAPC   O31 4323   3.109   1.717   5.920
   58SAPC   C31 4324   3.136   1.767   5.801
   58SAPC   O32 4325   3.162   1.704   5.700
   58SAPC   C32 4326   3.122   1.918   5.813
   58SAPC   H2X 4327   3.130   1.949   5.919
   58SAPC   H2Y 4328   3.021   1.949   5.778
   58SAPC   C23 4329   3.561   1.687   5.789
   58SAPC   H3R 4330   3.493   1.773   5.805
   58SAPC   H3S 4331   3.502   1.609   5.736
   58SAPC   C24 4332   3.680   1.728   5.701
   58SAPC   H4R 4333   3.751   1.786   5.763
   58SAPC   H4S 4334   3.641   1.797   5.623
   58SAPC   C25 4335   3.751   1.612   5.635
   58SAPC   H5R 4336   3.793   1.537   5.706
   58SAPC   C26 4337   3.742   1.575   5.506
   58SAPC   H6R 4338   3.779   1.473   5.481
   58SAPC   C27 4339   3.659   1.640   5.396
   58SAPC   H7R 4340   3.649   1.746   5.414
   58SAPC   H7S 4341   3.551   1.616   5.402
   58SAPC   C28 4342   3.710   1.603   5.259
   58SAPC   H8R 4343   3.818   1.587   5.252
   58SAPC   C29 4344   3.640   1.581   5.148
   58SAPC   H9R 4345   3.692   1.544   5.058
   58SAPC  C210 4346   3.492   1.590   5.145
   58SAPC  H10R 4347   3.445   1.685   5.122
   58SAPC  H10S 4348   3.441   1.555   5.239
   58SAPC  C211 4349   3.463   1.507   5.031
   58SAPC  H11R 4350   3.518   1.407   5.011
   58SAPC  C212 4351   3.334   1.509   5.019
   58SAPC  H12R 4352   3.346   1.403   5.002
   58SAPC  C213 4353   3.208   1.575   5.089
   58SAPC  H13R 4354   3.247   1.669   5.119
   58SAPC  H13S 4355   3.168   1.528   5.187
   58SAPC  C214 4356   3.084   1.640   5.025
   58SAPC  H14R 4357   3.000   1.590   5.081
   58SAPC  C215 4358   3.061   1.678   4.890
   58SAPC  H15R 4359   2.970   1.656   4.834
   58SAPC  C216 4360   3.148   1.666   4.768
   58SAPC  H16R 4361   3.244   1.674   4.822
   58SAPC  H16S 4362   3.121   1.752   4.704
   58SAPC  C217 4363   3.172   1.542   4.666
   58SAPC  H17R 4364   3.174   1.436   4.687
   58SAPC  H17S 4365   3.279   1.560   4.663
   58SAPC  C218 4366   3.101   1.501   4.537
   58SAPC  H18R 4367   3.051   1.403   4.514
   58SAPC  H18S 4368   3.145   1.421   4.478
   58SAPC  C219 4369   3.030   1.610   4.486
   58SAPC  H19R 4370   3.108   1.690   4.488
   58SAPC  H19S 4371   2.942   1.649   4.541
   58SAPC  C220 4372   2.995   1.539   4.363
   58SAPC  H20R 4373   2.921   1.468   4.333
   58SAPC  H20S 4374   3.086   1.529   4.300
   58SAPC  H20T 4375   2.909   1.597   4.331
   58SAPC   C33 4376   3.227   1.986   5.727
   58SAPC   H3X 4377   3.221   1.942   5.625
   58SAPC   H3Y 4378   3.330   1.969   5.765
   58SAPC   C34 4379   3.198   2.135   5.718
   58SAPC   H4X 4380   3.174   2.172   5.820
   58SAPC   H4Y 4381   3.108   2.150   5.653
   58SAPC   C35 4382   3.315   2.212   5.658
   58SAPC   H5X 4383   3.409   2.187   5.713
   58SAPC   H5Y 4384   3.291   2.319   5.673
   58SAPC   C36 4385   3.333   2.189   5.508
   58SAPC   H6X 4386   3.258   2.250   5.453
   58SAPC   H6Y 4387   3.317   2.082   5.484
   58SAPC   C37 4388   3.472   2.218   5.451
   58SAPC   H7X 4389   3.524   2.302   5.494
   58SAPC   H7Y 4390   3.461   2.242   5.343
   58SAPC   C38 4391   3.581   2.124   5.492
   58SAPC   H8X 4392   3.573   2.101   5.601
   58SAPC   H8Y 4393   3.678   2.179   5.479
   58SAPC   C39 4394   3.578   2.001   5.406
   58SAPC   H9X 4395   3.506   1.927   5.443
   58SAPC   H9Y 4396   3.679   1.961   5.424
   58SAPC  C310 4397   3.558   2.032   5.257
   58SAPC  H10X 4398   3.644   2.101   5.245
   58SAPC  H10Y 4399   3.463   2.081   5.229
   58SAPC  C311 4400   3.581   1.921   5.157
   58SAPC  H11X 4401   3.529   1.830   5.176
   58SAPC  H11Y 4402   3.669   1.890   5.200
   58SAPC  C312 4403   3.626   1.956   5.014
   58SAPC  H12X 4404   3.701   1.889   4.966
   58SAPC  H12Y 4405   3.678   2.052   5.014
   58SAPC  C313 4406   3.508   1.984   4.928
   58SAPC  H13X 4407   3.535   2.069   4.862
   58SAPC  H13Y 4408   3.431   2.019   5.002
   58SAPC  C314 4409   3.457   1.862   4.850
   58SAPC  H14X 4410   3.354   1.888   4.819
   58SAPC  H14Y 4411   3.449   1.776   4.920
   58SAPC  C315 4412   3.539   1.824   4.726
   58SAPC  H15X 4413   3.534   1.714   4.710
   58SAPC  H15Y 4414   3.646   1.851   4.738
   58SAPC  C316 4415   3.491   1.897   4.599
   58SAPC  H16X 4416   3.499   2.005   4.620
   58SAPC  H16Y 4417   3.383   1.873   4.580
   58SAPC  C317 4418   3.577   1.871   4.474
   58SAPC  H17X 4419   3.684   1.870   4.501
   58SAPC  H17Y 4420   3.551   1.944   4.394
   58SAPC  C318 4421   3.548   1.741   4.413
   58SAPC  H18X 4422   3.439   1.741   4.389
   58SAPC  H18Y 4423   3.572   1.667   4.493
   58SAPC  H18Z 4424   3.604   1.711   4.321
   59SAPC     N 4425   1.591   4.160   6.453
   59SAPC   C12 4426   1.440   4.156   6.425
   59SAPC  H12A 4427   1.391   4.208   6.507
   59SAPC  H12B 4428   1.404   4.052   6.422
   59SAPC   C13 4429   1.669   4.089   6.345
   59SAPC  H13A 4430   1.775   4.097   6.359
   59SAPC  H13B 4431   1.643   3.984   6.338
   59SAPC  H13C 4432   1.644   4.128   6.246
   59SAPC   C14 4433   1.634   4.303   6.451
   59SAPC  H14A 4434   1.587   4.360   6.531
   59SAPC  H14B 4435   1.740   4.309   6.462
   59SAPC  H14C 4436   1.605   4.348   6.356
   59SAPC   C15 4437   1.622   4.102   6.587
   59SAPC  H15A 4438   1.586   4.000   6.598
   59SAPC  H15B 4439   1.729   4.102   6.602
   59SAPC  H15C 4440   1.577   4.155   6.669
   59SAPC   C11 4441   1.382   4.221   6.297
   59SAPC  H11A 4442   1.416   4.325   6.280
   59SAPC  H11B 4443   1.271   4.227   6.313
   59SAPC     P 4444   1.411   4.185   6.035
   59SAPC   O13 4445   1.516   4.285   6.024
   59SAPC   O14 4446   1.419   4.068   5.945
   59SAPC   O12 4447   1.408   4.136   6.186
   59SAPC   O11 4448   1.271   4.250   6.020
   59SAPC    C1 4449   1.158   4.175   6.060
   59SAPC    HA 4450   1.170   4.064   6.059
   59SAPC    HB 4451   1.124   4.206   6.162
   59SAPC    C2 4452   1.050   4.205   5.962
   59SAPC    HS 4453   0.981   4.125   5.992
   59SAPC   O21 4454   1.090   4.182   5.826
   59SAPC   C21 4455   1.102   4.064   5.774
   59SAPC   O22 4456   1.068   3.960   5.828
   59SAPC   C22 4457   1.091   4.083   5.618
   59SAPC   H2R 4458   0.992   4.088   5.568
   59SAPC   H2S 4459   1.135   4.176   5.583
   59SAPC    C3 4460   0.998   4.358   5.980
   59SAPC    HX 4461   0.973   4.375   6.087
   59SAPC    HY 4462   0.900   4.384   5.938
   59SAPC   O31 4463   1.083   4.465   5.939
   59SAPC   C31 4464   1.122   4.478   5.816
   59SAPC   O32 4465   1.119   4.390   5.732
   59SAPC   C32 4466   1.170   4.611   5.770
   59SAPC   H2X 4467   1.228   4.653   5.855
   59SAPC   H2Y 4468   1.094   4.683   5.733
   59SAPC   C23 4469   1.126   3.951   5.558
   59SAPC   H3R 4470   1.037   3.895   5.588
   59SAPC   H3S 4471   1.210   3.906   5.614
   59SAPC   C24 4472   1.156   3.954   5.409
   59SAPC   H4R 4473   1.195   3.856   5.373
   59SAPC   H4S 4474   1.240   4.027   5.406
   59SAPC   C25 4475   1.053   4.014   5.317
   59SAPC   H5R 4476   1.059   4.122   5.315
   59SAPC   C26 4477   0.983   3.965   5.213
   59SAPC   H6R 4478   0.934   4.034   5.149
   59SAPC   C27 4479   0.974   3.837   5.143
   59SAPC   H7R 4480   0.876   3.778   5.148
   59SAPC   H7S 4481   1.011   3.802   5.223
   59SAPC   C28 4482   1.101   3.792   5.073
   59SAPC   H8R 4483   1.153   3.697   5.093
   59SAPC   C29 4484   1.119   3.820   4.952
   59SAPC   H9R 4485   1.168   3.741   4.894
   59SAPC  C210 4486   1.007   3.892   4.896
   59SAPC  H10R 4487   0.923   3.946   4.947
   59SAPC  H10S 4488   0.942   3.805   4.895
   59SAPC  C211 4489   1.071   3.940   4.768
   59SAPC  H11R 4490   1.128   3.865   4.713
   59SAPC  C212 4491   1.060   4.061   4.713
   59SAPC  H12R 4492   1.065   4.069   4.607
   59SAPC  C213 4493   0.984   4.172   4.768
   59SAPC  H13R 4494   0.956   4.118   4.854
   59SAPC  H13S 4495   0.892   4.186   4.723
   59SAPC  C214 4496   0.968   4.317   4.758
   59SAPC  H14R 4497   0.976   4.344   4.864
   59SAPC  C215 4498   0.914   4.394   4.656
   59SAPC  H15R 4499   0.922   4.501   4.673
   59SAPC  C216 4500   0.855   4.347   4.520
   59SAPC  H16R 4501   0.844   4.235   4.508
   59SAPC  H16S 4502   0.915   4.374   4.432
   59SAPC  C217 4503   0.711   4.392   4.487
   59SAPC  H17R 4504   0.675   4.484   4.521
   59SAPC  H17S 4505   0.650   4.398   4.578
   59SAPC  C218 4506   0.653   4.331   4.356
   59SAPC  H18R 4507   0.540   4.318   4.350
   59SAPC  H18S 4508   0.695   4.232   4.335
   59SAPC  C219 4509   0.630   4.412   4.242
   59SAPC  H19R 4510   0.723   4.461   4.217
   59SAPC  H19S 4511   0.555   4.483   4.283
   59SAPC  C220 4512   0.572   4.330   4.131
   59SAPC  H20R 4513   0.515   4.387   4.057
   59SAPC  H20S 4514   0.499   4.260   4.168
   59SAPC  H20T 4515   0.653   4.272   4.087
   59SAPC   C33 4516   1.259   4.569   5.652
   59SAPC   H3X 4517   1.311   4.659   5.615
   59SAPC   H3Y 4518   1.208   4.523   5.563
   59SAPC   C34 4519   1.364   4.473   5.701
   59SAPC   H4X 4520   1.337   4.366   5.722
   59SAPC   H4Y 4521   1.403   4.514   5.798
   59SAPC   C35 4522   1.468   4.464   5.602
   59SAPC   H5X 4523   1.494   4.566   5.562
   59SAPC   H5Y 4524   1.453   4.394   5.518
   59SAPC   C36 4525   1.576   4.413   5.686
   59SAPC   H6X 4526   1.617   4.482   5.756
   59SAPC   H6Y 4527   1.645   4.481   5.633
   59SAPC   C37 4528   1.595   4.253   5.707
   59SAPC   H7X 4529   1.540   4.217   5.792
   59SAPC   H7Y 4530   1.686   4.218   5.758
   59SAPC   C38 4531   1.624   4.150   5.594
   59SAPC   H8X 4532   1.720   4.090   5.599
   59SAPC   H8Y 4533   1.652   4.186   5.500
   59SAPC   C39 4534   1.499   4.106   5.530
   59SAPC   H9X 4535   1.438   4.191   5.498
   59SAPC   H9Y 4536   1.464   4.045   5.615
   59SAPC  C310 4537   1.527   4.036   5.402
   59SAPC  H10X 4538   1.458   3.954   5.379
   59SAPC  H10Y 4539   1.629   4.009   5.432
   59SAPC  C311 4540   1.568   4.106   5.275
   59SAPC  H11X 4541   1.613   4.035   5.207
   59SAPC  H11Y 4542   1.648   4.170   5.308
   59SAPC  C312 4543   1.461   4.177   5.198
   59SAPC  H12X 4544   1.513   4.242   5.124
   59SAPC  H12Y 4545   1.408   4.239   5.272
   59SAPC  C313 4546   1.367   4.081   5.123
   59SAPC  H13X 4547   1.270   4.135   5.115
   59SAPC  H13Y 4548   1.347   3.989   5.180
   59SAPC  C314 4549   1.412   4.047   4.979
   59SAPC  H14X 4550   1.378   3.944   4.953
   59SAPC  H14Y 4551   1.522   4.046   4.969
   59SAPC  C315 4552   1.350   4.147   4.881
   59SAPC  H15X 4553   1.408   4.242   4.890
   59SAPC  H15Y 4554   1.245   4.171   4.912
   59SAPC  C316 4555   1.347   4.101   4.735
   59SAPC  H16X 4556   1.271   4.160   4.680
   59SAPC  H16Y 4557   1.330   3.992   4.728
   59SAPC  C317 4558   1.472   4.132   4.664
   59SAPC  H17X 4559   1.547   4.058   4.697
   59SAPC  H17Y 4560   1.490   4.234   4.704
   59SAPC  C318 4561   1.472   4.136   4.511
   59SAPC  H18X 4562   1.424   4.230   4.475
   59SAPC  H18Y 4563   1.419   4.047   4.474
   59SAPC  H18Z 4564   1.574   4.132   4.468
   60SAPC     N 4565   0.969   4.824   6.469
   60SAPC   C12 4566   0.865   4.793   6.363
   60SAPC  H12A 4567   0.768   4.809   6.407
   60SAPC  H12B 4568   0.872   4.689   6.334
   60SAPC   C13 4569   0.974   4.972   6.493
   60SAPC  H13A 4570   1.020   5.030   6.412
   60SAPC  H13B 4571   0.872   5.008   6.501
   60SAPC  H13C 4572   1.023   4.999   6.585
   60SAPC   C14 4573   0.923   4.759   6.594
   60SAPC  H14A 4574   0.926   4.652   6.580
   60SAPC  H14B 4575   0.982   4.790   6.679
   60SAPC  H14C 4576   0.820   4.788   6.616
   60SAPC   C15 4577   1.103   4.766   6.427
   60SAPC  H15A 4578   1.183   4.788   6.495
   60SAPC  H15B 4579   1.099   4.659   6.411
   60SAPC  H15C 4580   1.130   4.804   6.328
   60SAPC   C11 4581   0.869   4.872   6.232
   60SAPC  H11A 4582   0.841   4.975   6.253
   60SAPC  H11B 4583   0.790   4.829   6.164
   60SAPC     P 4584   1.027   4.812   6.036
   60SAPC   O13 4585   1.156   4.864   5.986
   60SAPC   O14 4586   0.999   4.669   6.046
   60SAPC   O12 4587   0.999   4.874   6.177
   60SAPC   O11 4588   0.909   4.875   5.953
   60SAPC    C1 4589   0.916   5.002   5.891
   60SAPC    HA 4590   0.969   5.077   5.953
   60SAPC    HB 4591   0.973   4.991   5.796
   60SAPC    C2 4592   0.779   5.052   5.841
   60SAPC    HS 4593   0.719   5.090   5.927
   60SAPC   O21 4594   0.704   4.947   5.777
   60SAPC   C21 4595   0.643   4.856   5.849
   60SAPC   O22 4596   0.595   4.870   5.960
   60SAPC   C22 4597   0.634   4.731   5.763
   60SAPC   H2R 4598   0.575   4.652   5.816
   60SAPC   H2S 4599   0.583   4.757   5.669
   60SAPC    C3 4600   0.806   5.165   5.737
   60SAPC    HX 4601   0.830   5.260   5.791
   60SAPC    HY 4602   0.719   5.188   5.681
   60SAPC   O31 4603   0.891   5.136   5.628
   60SAPC   C31 4604   0.840   5.062   5.527
   60SAPC   O32 4605   0.732   5.010   5.518
   60SAPC   C32 4606   0.946   5.042   5.425
   60SAPC   H2X 4607   0.945   5.127   5.354
   60SAPC   H2Y 4608   0.916   4.947   5.375
   60SAPC   C23 4609   0.773   4.674   5.731
   60SAPC   H3R 4610   0.849   4.698   5.809
   60SAPC   H3S 4611   0.809   4.721   5.637
   60SAPC   C24 4612   0.756   4.522   5.721
   60SAPC   H4R 4613   0.674   4.492   5.656
   60SAPC   H4S 4614   0.741   4.485   5.826
   60SAPC   C25 4615   0.872   4.455   5.666
   60SAPC   H5R 4616   0.908   4.389   5.745
   60SAPC   C26 4617   0.928   4.445   5.545
   60SAPC   H6R 4618   1.035   4.420   5.538
   60SAPC   C27 4619   0.884   4.503   5.418
   60SAPC   H7R 4620   0.894   4.612   5.418
   60SAPC   H7S 4621   0.776   4.483   5.422
   60SAPC   C28 4622   0.961   4.436   5.305
   60SAPC   H8R 4623   0.962   4.327   5.299
   60SAPC   C29 4624   1.051   4.490   5.224
   60SAPC   H9R 4625   1.088   4.426   5.142
   60SAPC  C210 4626   1.096   4.632   5.229
   60SAPC  H10R 4627   1.188   4.636   5.290
   60SAPC  H10S 4628   1.024   4.696   5.285
   60SAPC  C211 4629   1.123   4.686   5.092
   60SAPC  H11R 4630   1.226   4.674   5.057
   60SAPC  C212 4631   1.033   4.745   5.011
   60SAPC  H12R 4632   1.068   4.791   4.918
   60SAPC  C213 4633   0.887   4.768   5.043
   60SAPC  H13R 4634   0.868   4.758   5.153
   60SAPC  H13S 4635   0.826   4.689   4.995
   60SAPC  C214 4636   0.844   4.907   5.000
   60SAPC  H14R 4637   0.842   4.979   5.084
   60SAPC  C215 4638   0.809   4.948   4.877
   60SAPC  H15R 4639   0.774   5.052   4.865
   60SAPC  C216 4640   0.805   4.861   4.753
   60SAPC  H16R 4641   0.797   4.756   4.785
   60SAPC  H16S 4642   0.898   4.873   4.692
   60SAPC  C217 4643   0.681   4.877   4.664
   60SAPC  H17R 4644   0.649   4.975   4.671
   60SAPC  H17S 4645   0.585   4.846   4.706
   60SAPC  C218 4646   0.694   4.832   4.520
   60SAPC  H18R 4647   0.758   4.890   4.450
   60SAPC  H18S 4648   0.592   4.823   4.474
   60SAPC  C219 4649   0.757   4.700   4.525
   60SAPC  H19R 4650   0.700   4.646   4.608
   60SAPC  H19S 4651   0.864   4.693   4.550
   60SAPC  C220 4652   0.741   4.647   4.386
   60SAPC  H20R 4653   0.751   4.705   4.296
   60SAPC  H20S 4654   0.636   4.611   4.390
   60SAPC  H20T 4655   0.810   4.562   4.374
   60SAPC   C33 4656   1.077   5.025   5.503
   60SAPC   H3X 4657   1.056   4.969   5.597
   60SAPC   H3Y 4658   1.110   5.125   5.536
   60SAPC   C34 4659   1.186   4.945   5.431
   60SAPC   H4X 4660   1.164   4.837   5.446
   60SAPC   H4Y 4661   1.282   4.971   5.482
   60SAPC   C35 4662   1.203   4.964   5.281
   60SAPC   H5X 4663   1.110   4.945   5.224
   60SAPC   H5Y 4664   1.286   4.902   5.240
   60SAPC   C36 4665   1.245   5.102   5.253
   60SAPC   H6X 4666   1.331   5.132   5.319
   60SAPC   H6Y 4667   1.156   5.163   5.280
   60SAPC   C37 4668   1.290   5.126   5.109
   60SAPC   H7X 4669   1.383   5.073   5.086
   60SAPC   H7Y 4670   1.326   5.228   5.109
   60SAPC   C38 4671   1.179   5.104   5.006
   60SAPC   H8X 4672   1.088   5.161   5.037
   60SAPC   H8Y 4673   1.154   4.996   5.006
   60SAPC   C39 4674   1.213   5.148   4.864
   60SAPC   H9X 4675   1.293   5.085   4.819
   60SAPC   H9Y 4676   1.247   5.254   4.868
   60SAPC  C310 4677   1.090   5.141   4.773
   60SAPC  H10X 4678   1.007   5.195   4.824
   60SAPC  H10Y 4679   1.059   5.036   4.755
   60SAPC  C311 4680   1.113   5.214   4.641
   60SAPC  H11X 4681   1.203   5.175   4.591
   60SAPC  H11Y 4682   1.134   5.318   4.667
   60SAPC  C312 4683   0.983   5.230   4.563
   60SAPC  H12X 4684   0.958   5.331   4.522
   60SAPC  H12Y 4685   0.910   5.194   4.633
   60SAPC  C313 4686   0.969   5.141   4.448
   60SAPC  H13X 4687   0.977   5.033   4.476
   60SAPC  H13Y 4688   1.066   5.180   4.420
   60SAPC  C314 4689   0.874   5.189   4.339
   60SAPC  H14X 4690   0.899   5.288   4.296
   60SAPC  H14Y 4691   0.769   5.198   4.352
   60SAPC  C315 4692   0.839   5.085   4.244
   60SAPC  H15X 4693   0.833   4.974   4.260
   60SAPC  H15Y 4694   0.922   5.134   4.180
   60SAPC  C316 4695   0.751   5.087   4.141
   60SAPC  H16X 4696   0.803   5.037   4.054
   60SAPC  H16Y 4697   0.759   5.198   4.126
   60SAPC  C317 4698   0.609   5.027   4.170
   60SAPC  H17X 4699   0.580   5.131   4.197
   60SAPC  H17Y 4700   0.614   4.948   4.246
   60SAPC  C318 4701   0.478   5.008   4.086
   60SAPC  H18X 4702   0.399   4.950   4.133
   60SAPC  H18Y 4703   0.501   4.963   3.988
   60SAPC  H18Z 4704   0.433   5.109   4.064
   61SAPC     N 4705   6.456   4.509   6.222
   61SAPC   C12 4706   6.484   4.647   6.167
   61SAPC  H12A 4707   6.457   4.725   6.239
   61SAPC  H12B 4708   6.421   4.661   6.081
   61SAPC   C13 4709   6.307   4.495   6.234
   61SAPC  H13A 4710   6.262   4.491   6.134
   61SAPC  H13B 4711   6.278   4.405   6.285
   61SAPC  H13C 4712   6.262   4.580   6.283
   61SAPC   C14 4713   6.506   4.411   6.120
   61SAPC  H14A 4714   6.459   4.430   6.024
   61SAPC  H14B 4715   6.613   4.423   6.105
   61SAPC  H14C 4716   6.484   4.308   6.145
   61SAPC   C15 4717   6.527   4.485   6.351
   61SAPC  H15A 4718   6.626   4.532   6.347
   61SAPC  H15B 4719   6.473   4.529   6.434
   61SAPC  H15C 4720   6.544   4.380   6.368
   61SAPC   C11 4721   6.628   4.672   6.119
   61SAPC  H11A 4722   6.626   4.770   6.064
   61SAPC  H11B 4723   6.662   4.598   6.044
   61SAPC     P 4724   6.745   4.792   6.311
   61SAPC   O13 4725   6.639   4.812   6.411
   61SAPC   O14 4726   6.882   4.796   6.360
   61SAPC   O12 4727   6.719   4.664   6.228
   61SAPC   O11 4728   6.726   4.901   6.200
   61SAPC    C1 4729   6.789   5.025   6.219
   61SAPC    HA 4730   6.731   5.085   6.292
   61SAPC    HB 4731   6.891   4.999   6.248
   61SAPC    C2 4732   6.796   5.121   6.101
   61SAPC    HS 4733   6.799   5.230   6.129
   61SAPC   O21 4734   6.686   5.078   6.033
   61SAPC   C21 4735   6.649   5.161   5.954
   61SAPC   O22 4736   6.697   5.273   5.931
   61SAPC   C22 4737   6.555   5.072   5.874
   61SAPC   H2R 4738   6.548   4.965   5.895
   61SAPC   H2S 4739   6.454   5.109   5.903
   61SAPC    C3 4740   6.918   5.102   6.024
   61SAPC    HX 4741   6.990   5.140   6.097
   61SAPC    HY 4742   6.943   5.157   5.930
   61SAPC   O31 4743   6.931   4.960   6.017
   61SAPC   C31 4744   6.882   4.915   5.911
   61SAPC   O32 4745   6.847   4.975   5.812
   61SAPC   C32 4746   6.903   4.774   5.919
   61SAPC   H2X 4747   6.876   4.730   6.017
   61SAPC   H2Y 4748   7.013   4.770   5.914
   61SAPC   C23 4749   6.620   5.076   5.734
   61SAPC   H3R 4750   6.718   5.125   5.724
   61SAPC   H3S 4751   6.596   5.181   5.722
   61SAPC   C24 4752   6.601   4.952   5.621
   61SAPC   H4R 4753   6.515   4.907   5.676
   61SAPC   H4S 4754   6.671   4.876   5.648
   61SAPC   C25 4755   6.574   4.945   5.457
   61SAPC   H5R 4756   6.478   4.960   5.402
   61SAPC   C26 4757   6.649   5.005   5.373
   61SAPC   H6R 4758   6.620   5.041   5.269
   61SAPC   C27 4759   6.755   5.070   5.443
   61SAPC   H7R 4760   6.797   4.972   5.461
   61SAPC   H7S 4761   6.770   5.093   5.548
   61SAPC   C28 4762   6.805   5.177   5.358
   61SAPC   H8R 4763   6.876   5.243   5.414
   61SAPC   C29 4764   6.840   5.151   5.234
   61SAPC   H9R 4765   6.925   5.214   5.236
   61SAPC  C210 4766   6.842   5.016   5.146
   61SAPC  H10R 4767   6.814   4.921   5.193
   61SAPC  H10S 4768   6.945   5.008   5.104
   61SAPC  C211 4769   6.792   4.980   5.016
   61SAPC  H11R 4770   6.716   5.056   4.999
   61SAPC  C212 4771   6.849   4.935   4.903
   61SAPC  H12R 4772   6.790   4.990   4.832
   61SAPC  C213 4773   6.994   4.904   4.858
   61SAPC  H13R 4774   7.075   4.949   4.917
   61SAPC  H13S 4775   7.051   4.936   4.771
   61SAPC  C214 4776   7.003   4.771   4.892
   61SAPC  H14R 4777   6.971   4.754   4.996
   61SAPC  C215 4778   7.070   4.677   4.832
   61SAPC  H15R 4779   7.088   4.597   4.893
   61SAPC  C216 4780   7.124   4.633   4.688
   61SAPC  H16R 4781   7.143   4.562   4.618
   61SAPC  H16S 4782   7.177   4.734   4.712
   61SAPC  C217 4783   7.033   4.596   4.492
   61SAPC  H17R 4784   7.033   4.678   4.414
   61SAPC  H17S 4785   6.948   4.662   4.447
   61SAPC  C218 4786   6.911   4.500   4.452
   61SAPC  H18R 4787   6.872   4.428   4.522
   61SAPC  H18S 4788   6.985   4.454   4.392
   61SAPC  C219 4789   6.763   4.523   4.405
   61SAPC  H19R 4790   6.726   4.418   4.401
   61SAPC  H19S 4791   6.794   4.544   4.306
   61SAPC  C220 4792   6.630   4.588   4.456
   61SAPC  H20R 4793   6.586   4.581   4.557
   61SAPC  H20S 4794   6.571   4.590   4.362
   61SAPC  H20T 4795   6.610   4.692   4.474
   61SAPC   C33 4796   6.818   4.720   5.806
   61SAPC   H3X 4797   6.715   4.757   5.795
   61SAPC   H3Y 4798   6.787   4.627   5.852
   61SAPC   C34 4799   6.883   4.725   5.666
   61SAPC   H4X 4800   6.991   4.701   5.657
   61SAPC   H4Y 4801   6.876   4.827   5.636
   61SAPC   C35 4802   6.803   4.658   5.558
   61SAPC   H5X 4803   6.700   4.691   5.544
   61SAPC   H5Y 4804   6.774   4.553   5.574
   61SAPC   C36 4805   6.885   4.647   5.440
   61SAPC   H6X 4806   6.995   4.627   5.454
   61SAPC   H6Y 4807   6.879   4.712   5.357
   61SAPC   C37 4808   6.814   4.551   5.362
   61SAPC   H7X 4809   6.811   4.458   5.410
   61SAPC   H7Y 4810   6.906   4.544   5.301
   61SAPC   C38 4811   6.670   4.572   5.305
   61SAPC   H8X 4812   6.597   4.573   5.388
   61SAPC   H8Y 4813   6.636   4.485   5.244
   61SAPC   C39 4814   6.664   4.695   5.215
   61SAPC   H9X 4815   6.767   4.716   5.179
   61SAPC   H9Y 4816   6.638   4.775   5.284
   61SAPC  C310 4817   6.563   4.687   5.097
   61SAPC  H10X 4818   6.462   4.686   5.136
   61SAPC  H10Y 4819   6.573   4.597   5.036
   61SAPC  C311 4820   6.581   4.796   4.994
   61SAPC  H11X 4821   6.687   4.776   4.968
   61SAPC  H11Y 4822   6.567   4.897   5.040
   61SAPC  C312 4823   6.516   4.782   4.856
   61SAPC  H12X 4824   6.408   4.801   4.863
   61SAPC  H12Y 4825   6.532   4.679   4.819
   61SAPC  C313 4826   6.576   4.871   4.748
   61SAPC  H13X 4827   6.533   4.850   4.647
   61SAPC  H13Y 4828   6.682   4.870   4.743
   61SAPC  C314 4829   6.551   5.011   4.781
   61SAPC  H14X 4830   6.577   5.056   4.878
   61SAPC  H14Y 4831   6.449   4.997   4.792
   61SAPC  C315 4832   6.581   5.106   4.679
   61SAPC  H15X 4833   6.557   5.076   4.572
   61SAPC  H15Y 4834   6.691   5.124   4.688
   61SAPC  C316 4835   6.514   5.231   4.721
   61SAPC  H16X 4836   6.545   5.294   4.808
   61SAPC  H16Y 4837   6.406   5.242   4.696
   61SAPC  C317 4838   6.585   5.285   4.614
   61SAPC  H17X 4839   6.562   5.372   4.639
   61SAPC  H17Y 4840   6.508   5.275   4.533
   61SAPC  C318 4841   6.707   5.375   4.633
   61SAPC  H18X 4842   6.744   5.435   4.716
   61SAPC  H18Y 4843   6.716   5.473   4.580
   61SAPC  H18Z 4844   6.749   5.342   4.545
   62SAPC     N 4845   0.834   2.716   6.344
   62SAPC   C12 4846   0.732   2.829   6.344
   62SAPC  H12A 4847   0.780   2.920   6.378
   62SAPC  H12B 4848   0.652   2.807   6.414
   62SAPC   C13 4849   0.900   2.712   6.478
   62SAPC  H13A 4850   0.961   2.802   6.489
   62SAPC  H13B 4851   0.827   2.708   6.559
   62SAPC  H13C 4852   0.967   2.627   6.485
   62SAPC   C14 4853   0.771   2.584   6.314
   62SAPC  H14A 4854   0.844   2.504   6.310
   62SAPC  H14B 4855   0.695   2.559   6.386
   62SAPC  H14C 4856   0.720   2.589   6.217
   62SAPC   C15 4857   0.943   2.741   6.243
   62SAPC  H15A 4858   0.902   2.778   6.149
   62SAPC  H15B 4859   1.016   2.814   6.277
   62SAPC  H15C 4860   0.996   2.651   6.218
   62SAPC   C11 4861   0.668   2.867   6.208
   62SAPC  H11A 4862   0.749   2.887   6.135
   62SAPC  H11B 4863   0.613   2.964   6.217
   62SAPC     P 4864   0.429   2.766   6.174
   62SAPC   O13 4865   0.382   2.627   6.168
   62SAPC   O14 4866   0.392   2.844   6.292
   62SAPC   O12 4867   0.586   2.761   6.158
   62SAPC   O11 4868   0.380   2.842   6.047
   62SAPC    C1 4869   0.353   2.757   5.939
   62SAPC    HA 4870   0.330   2.650   5.955
   62SAPC    HB 4871   0.246   2.769   5.926
   62SAPC    C2 4872   0.463   2.783   5.830
   62SAPC    HS 4873   0.420   2.751   5.732
   62SAPC   O21 4874   0.569   2.699   5.865
   62SAPC   C21 4875   0.546   2.572   5.858
   62SAPC   O22 4876   0.460   2.517   5.790
   62SAPC   C22 4877   0.649   2.502   5.943
   62SAPC   H2R 4878   0.703   2.574   6.007
   62SAPC   H2S 4879   0.597   2.426   6.002
   62SAPC    C3 4880   0.529   2.929   5.820
   62SAPC    HX 4881   0.558   2.964   5.920
   62SAPC    HY 4882   0.472   3.020   5.808
   62SAPC   O31 4883   0.628   2.946   5.717
   62SAPC   C31 4884   0.601   2.996   5.597
   62SAPC   O32 4885   0.497   3.019   5.543
   62SAPC   C32 4886   0.724   3.031   5.528
   62SAPC   H2X 4887   0.766   2.931   5.503
   62SAPC   H2Y 4888   0.786   3.084   5.603
   62SAPC   C23 4889   0.746   2.430   5.854
   62SAPC   H3R 4890   0.693   2.387   5.769
   62SAPC   H3S 4891   0.796   2.349   5.910
   62SAPC   C24 4892   0.847   2.523   5.797
   62SAPC   H4R 4893   0.911   2.465   5.733
   62SAPC   H4S 4894   0.911   2.561   5.880
   62SAPC   C25 4895   0.795   2.632   5.709
   62SAPC   H5R 4896   0.796   2.728   5.757
   62SAPC   C26 4897   0.765   2.634   5.581
   62SAPC   H6R 4898   0.773   2.726   5.523
   62SAPC   C27 4899   0.776   2.521   5.493
   62SAPC   H7R 4900   0.873   2.484   5.515
   62SAPC   H7S 4901   0.777   2.546   5.384
   62SAPC   C28 4902   0.661   2.432   5.525
   62SAPC   H8R 4903   0.677   2.334   5.567
   62SAPC   C29 4904   0.545   2.457   5.477
   62SAPC   H9R 4905   0.468   2.380   5.489
   62SAPC  C210 4906   0.526   2.575   5.390
   62SAPC  H10R 4907   0.513   2.552   5.283
   62SAPC  H10S 4908   0.595   2.663   5.401
   62SAPC  C211 4909   0.407   2.622   5.455
   62SAPC  H11R 4910   0.345   2.566   5.528
   62SAPC  C212 4911   0.356   2.727   5.405
   62SAPC  H12R 4912   0.255   2.708   5.416
   62SAPC  C213 4913   0.394   2.815   5.292
   62SAPC  H13R 4914   0.486   2.810   5.240
   62SAPC  H13S 4915   0.377   2.918   5.322
   62SAPC  C214 4916   0.306   2.754   5.197
   62SAPC  H14R 4917   0.209   2.808   5.206
   62SAPC  C215 4918   0.332   2.690   5.080
   62SAPC  H15R 4919   0.279   2.700   4.987
   62SAPC  C216 4920   0.431   2.648   4.994
   62SAPC  H16R 4921   0.375   2.557   4.955
   62SAPC  H16S 4922   0.490   2.652   5.084
   62SAPC  C217 4923   0.458   2.763   4.892
   62SAPC  H17R 4924   0.551   2.730   4.843
   62SAPC  H17S 4925   0.467   2.866   4.935
   62SAPC  C218 4926   0.375   2.784   4.768
   62SAPC  H18R 4927   0.298   2.862   4.773
   62SAPC  H18S 4928   0.333   2.689   4.733
   62SAPC  C219 4929   0.452   2.843   4.656
   62SAPC  H19R 4930   0.533   2.781   4.631
   62SAPC  H19S 4931   0.476   2.948   4.680
   62SAPC  C220 4932   0.389   2.805   4.530
   62SAPC  H20R 4933   0.343   2.891   4.495
   62SAPC  H20S 4934   0.306   2.745   4.560
   62SAPC  H20T 4935   0.418   2.812   4.428
   62SAPC   C33 4936   0.691   3.116   5.403
   62SAPC   H3X 4937   0.648   3.216   5.425
   62SAPC   H3Y 4938   0.625   3.064   5.329
   62SAPC   C34 4939   0.815   3.138   5.329
   62SAPC   H4X 4940   0.889   3.181   5.401
   62SAPC   H4Y 4941   0.810   3.212   5.247
   62SAPC   C35 4942   0.852   3.005   5.269
   62SAPC   H5X 4943   0.894   2.933   5.344
   62SAPC   H5Y 4944   0.913   3.036   5.181
   62SAPC   C36 4945   0.773   2.912   5.190
   62SAPC   H6X 4946   0.720   2.975   5.115
   62SAPC   H6Y 4947   0.708   2.863   5.265
   62SAPC   C37 4948   0.872   2.813   5.126
   62SAPC   H7X 4949   0.932   2.755   5.200
   62SAPC   H7Y 4950   0.947   2.860   5.057
   62SAPC   C38 4951   0.783   2.721   5.049
   62SAPC   H8X 4952   0.696   2.779   5.013
   62SAPC   H8Y 4953   0.745   2.645   5.122
   62SAPC   C39 4954   0.851   2.650   4.935
   62SAPC   H9X 4955   0.773   2.574   4.915
   62SAPC   H9Y 4956   0.942   2.600   4.971
   62SAPC  C310 4957   0.889   2.735   4.811
   62SAPC  H10X 4958   0.969   2.803   4.846
   62SAPC  H10Y 4959   0.799   2.788   4.778
   62SAPC  C311 4960   0.957   2.664   4.693
   62SAPC  H11X 4961   0.919   2.583   4.634
   62SAPC  H11Y 4962   1.031   2.606   4.742
   62SAPC  C312 4963   0.981   2.738   4.565
   62SAPC  H12X 4964   1.026   2.667   4.489
   62SAPC  H12Y 4965   1.039   2.826   4.583
   62SAPC  C313 4966   0.858   2.787   4.502
   62SAPC  H13X 4967   0.780   2.832   4.566
   62SAPC  H13Y 4968   0.824   2.703   4.447
   62SAPC  C314 4969   0.877   2.846   4.371
   62SAPC  H14X 4970   0.874   2.775   4.285
   62SAPC  H14Y 4971   0.979   2.884   4.378
   62SAPC  C315 4972   0.772   2.949   4.360
   62SAPC  H15X 4973   0.674   2.909   4.391
   62SAPC  H15Y 4974   0.736   2.975   4.261
   62SAPC  C316 4975   0.845   3.072   4.418
   62SAPC  H16X 4976   0.922   3.117   4.353
   62SAPC  H16Y 4977   0.874   3.052   4.523
   62SAPC  C317 4978   0.749   3.177   4.415
   62SAPC  H17X 4979   0.689   3.115   4.488
   62SAPC  H17Y 4980   0.722   3.174   4.307
   62SAPC  C318 4981   0.747   3.314   4.474
   62SAPC  H18X 4982   0.777   3.304   4.579
   62SAPC  H18Y 4983   0.644   3.359   4.474
   62SAPC  H18Z 4984   0.808   3.377   4.409
   63SAPC     N 4985   2.058   7.116   6.350
   63SAPC   C12 4986   2.049   7.019   6.234
   63SAPC  H12A 4987   2.107   7.062   6.152
   63SAPC  H12B 4988   1.945   7.013   6.204
   63SAPC   C13 4989   2.203   7.141   6.385
   63SAPC  H13A 4990   2.248   7.049   6.424
   63SAPC  H13B 4991   2.264   7.162   6.297
   63SAPC  H13C 4992   2.215   7.221   6.456
   63SAPC   C14 4993   1.994   7.243   6.301
   63SAPC  H14A 4994   2.031   7.276   6.204
   63SAPC  H14B 4995   1.886   7.234   6.298
   63SAPC  H14C 4996   2.013   7.326   6.366
   63SAPC   C15 4997   1.989   7.068   6.474
   63SAPC  H15A 4998   2.012   6.965   6.496
   63SAPC  H15B 4999   2.026   7.125   6.559
   63SAPC  H15C 5000   1.882   7.081   6.469
   63SAPC   C11 5001   2.104   6.875   6.241
   63SAPC  H11A 5002   2.075   6.827   6.145
   63SAPC  H11B 5003   2.054   6.816   6.321
   63SAPC     P 5004   2.352   6.901   6.146
   63SAPC   O13 5005   2.354   7.048   6.133
   63SAPC   O14 5006   2.475   6.826   6.179
   63SAPC   O12 5007   2.245   6.870   6.262
   63SAPC   O11 5008   2.283   6.845   6.015
   63SAPC    C1 5009   2.310   6.717   5.963
   63SAPC    HA 5010   2.419   6.699   5.955
   63SAPC    HB 5011   2.270   6.637   6.030
   63SAPC    C2 5012   2.246   6.707   5.821
   63SAPC    HS 5013   2.271   6.615   5.774
   63SAPC   O21 5014   2.275   6.819   5.735
   63SAPC   C21 5015   2.394   6.835   5.682
   63SAPC   O22 5016   2.493   6.767   5.686
   63SAPC   C22 5017   2.415   6.970   5.623
   63SAPC   H2R 5018   2.339   7.046   5.641
   63SAPC   H2S 5019   2.484   6.992   5.698
   63SAPC    C3 5020   2.093   6.688   5.823
   63SAPC    HX 5021   2.043   6.778   5.863
   63SAPC    HY 5022   2.071   6.602   5.891
   63SAPC   O31 5023   2.045   6.663   5.690
   63SAPC   C31 5024   2.066   6.540   5.646
   63SAPC   O32 5025   2.114   6.448   5.711
   63SAPC   C32 5026   2.034   6.535   5.499
   63SAPC   H2X 5027   1.992   6.629   5.462
   63SAPC   H2Y 5028   1.968   6.460   5.461
   63SAPC   C23 5029   2.488   6.961   5.488
   63SAPC   H3R 5030   2.577   6.894   5.493
   63SAPC   H3S 5031   2.529   7.058   5.451
   63SAPC   C24 5032   2.385   6.910   5.390
   63SAPC   H4R 5033   2.340   6.817   5.430
   63SAPC   H4S 5034   2.435   6.891   5.294
   63SAPC   C25 5035   2.278   7.012   5.372
   63SAPC   H5R 5036   2.319   7.108   5.340
   63SAPC   C26 5037   2.146   6.998   5.389
   63SAPC   H6R 5038   2.082   7.086   5.376
   63SAPC   C27 5039   2.072   6.873   5.430
   63SAPC   H7R 5040   2.077   6.864   5.540
   63SAPC   H7S 5041   2.121   6.782   5.389
   63SAPC   C28 5042   1.927   6.881   5.390
   63SAPC   H8R 5043   1.857   6.859   5.473
   63SAPC   C29 5044   1.873   6.889   5.266
   63SAPC   H9R 5045   1.763   6.894   5.259
   63SAPC  C210 5046   1.944   6.891   5.134
   63SAPC  H10R 5047   1.893   6.828   5.058
   63SAPC  H10S 5048   2.044   6.845   5.144
   63SAPC  C211 5049   1.952   7.029   5.078
   63SAPC  H11R 5050   1.917   7.111   5.143
   63SAPC  C212 5051   2.003   7.056   4.958
   63SAPC  H12R 5052   2.013   7.160   4.925
   63SAPC  C213 5053   2.060   6.956   4.862
   63SAPC  H13R 5054   2.040   6.992   4.758
   63SAPC  H13S 5055   2.013   6.855   4.869
   63SAPC  C214 5056   2.207   6.951   4.885
   63SAPC  H14R 5057   2.250   6.977   4.983
   63SAPC  C215 5058   2.290   6.920   4.788
   63SAPC  H15R 5059   2.398   6.914   4.809
   63SAPC  C216 5060   2.251   6.885   4.649
   63SAPC  H16R 5061   2.148   6.851   4.626
   63SAPC  H16S 5062   2.300   6.792   4.657
   63SAPC  C217 5063   2.315   6.968   4.539
   63SAPC  H17R 5064   2.276   6.935   4.442
   63SAPC  H17S 5065   2.425   6.950   4.536
   63SAPC  C218 5066   2.279   7.115   4.557
   63SAPC  H18R 5067   2.356   7.180   4.512
   63SAPC  H18S 5068   2.276   7.141   4.666
   63SAPC  C219 5069   2.138   7.143   4.503
   63SAPC  H19R 5070   2.114   7.249   4.530
   63SAPC  H19S 5071   2.065   7.075   4.549
   63SAPC  C220 5072   2.116   7.125   4.354
   63SAPC  H20R 5073   2.168   7.044   4.299
   63SAPC  H20S 5074   2.166   7.210   4.328
   63SAPC  H20T 5075   2.025   7.165   4.308
   63SAPC   C33 5076   2.149   6.476   5.428
   63SAPC   H3X 5077   2.182   6.384   5.483
   63SAPC   H3Y 5078   2.219   6.559   5.434
   63SAPC   C34 5079   2.115   6.429   5.290
   63SAPC   H4X 5080   2.063   6.334   5.298
   63SAPC   H4Y 5081   2.191   6.370   5.246
   63SAPC   C35 5082   2.070   6.540   5.194
   63SAPC   H5X 5083   2.144   6.620   5.180
   63SAPC   H5Y 5084   1.985   6.593   5.241
   63SAPC   C36 5085   2.022   6.484   5.060
   63SAPC   H6X 5086   1.951   6.554   5.011
   63SAPC   H6Y 5087   1.975   6.389   5.095
   63SAPC   C37 5088   2.106   6.432   4.953
   63SAPC   H7X 5089   2.063   6.405   4.860
   63SAPC   H7Y 5090   2.138   6.332   4.986
   63SAPC   C38 5091   2.206   6.525   4.901
   63SAPC   H8X 5092   2.239   6.587   4.987
   63SAPC   H8Y 5093   2.168   6.624   4.866
   63SAPC   C39 5094   2.304   6.414   4.814
   63SAPC   H9X 5095   2.361   6.334   4.860
   63SAPC   H9Y 5096   2.402   6.423   4.781
   63SAPC  C310 5097   2.264   6.349   4.685
   63SAPC  H10X 5098   2.241   6.452   4.717
   63SAPC  H10Y 5099   2.172   6.305   4.705
   63SAPC  C311 5100   2.327   6.335   4.530
   63SAPC  H11X 5101   2.421   6.279   4.515
   63SAPC  H11Y 5102   2.423   6.376   4.564
   63SAPC  C312 5103   2.258   6.400   4.374
   63SAPC  H12X 5104   2.164   6.351   4.367
   63SAPC  H12Y 5105   2.322   6.353   4.299
   63SAPC  C313 5106   2.195   6.556   4.311
   63SAPC  H13X 5107   2.171   6.654   4.366
   63SAPC  H13Y 5108   2.093   6.571   4.278
   63SAPC  C314 5109   2.286   6.654   4.283
   63SAPC  H14X 5110   2.310   6.576   4.207
   63SAPC  H14Y 5111   2.342   6.709   4.363
   63SAPC  C315 5112   2.293   6.766   4.221
   63SAPC  H15X 5113   2.280   6.864   4.273
   63SAPC  H15Y 5114   2.220   6.751   4.137
   63SAPC  C316 5115   2.453   6.722   4.218
   63SAPC  H16X 5116   2.416   6.797   4.170
   63SAPC  H16Y 5117   2.473   6.624   4.169
   63SAPC  C317 5118   2.584   6.775   4.256
   63SAPC  H17X 5119   2.631   6.674   4.264
   63SAPC  H17Y 5120   2.549   6.858   4.321
   63SAPC  C318 5121   2.697   6.820   4.181
   63SAPC  H18X 5122   2.799   6.838   4.201
   63SAPC  H18Y 5123   2.673   6.930   4.184
   63SAPC  H18Z 5124   2.751   6.762   4.105
   64SAPC     N 5125   1.100   0.889   6.248
   64SAPC   C12 5126   1.142   0.788   6.139
   64SAPC  H12A 5127   1.171   0.840   6.049
   64SAPC  H12B 5128   1.054   0.729   6.112
   64SAPC   C13 5129   1.212   0.936   6.336
   64SAPC  H13A 5130   1.241   0.856   6.404
   64SAPC  H13B 5131   1.301   0.962   6.279
   64SAPC  H13C 5132   1.179   1.020   6.395
   64SAPC   C14 5133   1.037   1.005   6.179
   64SAPC  H14A 5134   0.962   0.972   6.109
   64SAPC  H14B 5135   0.987   1.070   6.250
   64SAPC  H14C 5136   1.111   1.063   6.125
   64SAPC   C15 5137   0.996   0.827   6.337
   64SAPC  H15A 5138   0.963   0.892   6.417
   64SAPC  H15B 5139   0.909   0.802   6.279
   64SAPC  H15C 5140   1.035   0.735   6.380
   64SAPC   C11 5141   1.250   0.684   6.170
   64SAPC  H11A 5142   1.348   0.733   6.190
   64SAPC  H11B 5143   1.266   0.621   6.079
   64SAPC     P 5144   1.114   0.482   6.278
   64SAPC   O13 5145   1.148   0.396   6.394
   64SAPC   O14 5146   0.977   0.538   6.269
   64SAPC   O12 5147   1.213   0.606   6.283
   64SAPC   O11 5148   1.151   0.412   6.142
   64SAPC    C1 5149   1.157   0.269   6.139
   64SAPC    HA 5150   1.259   0.237   6.172
   64SAPC    HB 5151   1.080   0.219   6.203
   64SAPC    C2 5152   1.135   0.218   5.997
   64SAPC    HS 5153   1.141   0.107   5.999
   64SAPC   O21 5154   1.240   0.273   5.918
   64SAPC   C21 5155   1.251   0.219   5.802
   64SAPC   O22 5156   1.201   0.115   5.762
   64SAPC   C22 5157   1.350   0.306   5.729
   64SAPC   H2R 5158   1.344   0.414   5.756
   64SAPC   H2S 5159   1.434   0.266   5.785
   64SAPC    C3 5160   0.996   0.259   5.940
   64SAPC    HX 5161   0.921   0.234   6.019
   64SAPC    HY 5162   0.975   0.198   5.850
   64SAPC   O31 5163   0.993   0.400   5.911
   64SAPC   C31 5164   0.885   0.441   5.845
   64SAPC   O32 5165   0.800   0.370   5.795
   64SAPC   C32 5166   0.885   0.595   5.843
   64SAPC   H2X 5167   0.887   0.629   5.949
   64SAPC   H2Y 5168   0.790   0.628   5.798
   64SAPC   C23 5169   1.352   0.281   5.578
   64SAPC   H3R 5170   1.343   0.172   5.556
   64SAPC   H3S 5171   1.446   0.316   5.530
   64SAPC   C24 5172   1.250   0.363   5.503
   64SAPC   H4R 5173   1.267   0.335   5.396
   64SAPC   H4S 5174   1.275   0.470   5.518
   64SAPC   C25 5175   1.112   0.335   5.556
   64SAPC   H5R 5176   1.092   0.372   5.657
   64SAPC   C26 5177   1.011   0.274   5.496
   64SAPC   H6R 5178   0.918   0.253   5.549
   64SAPC   C27 5179   1.019   0.221   5.359
   64SAPC   H7R 5180   1.091   0.137   5.363
   64SAPC   H7S 5181   1.066   0.294   5.289
   64SAPC   C28 5182   0.893   0.162   5.309
   64SAPC   H8R 5183   0.805   0.136   5.370
   64SAPC   C29 5184   0.877   0.165   5.180
   64SAPC   H9R 5185   0.806   0.091   5.148
   64SAPC  C210 5186   0.969   0.223   5.079
   64SAPC  H10R 5187   1.068   0.196   5.104
   64SAPC  H10S 5188   0.966   0.334   5.079
   64SAPC  C211 5189   0.985   0.190   4.942
   64SAPC  H11R 5190   0.998   0.084   4.913
   64SAPC  C212 5191   0.922   0.261   4.856
   64SAPC  H12R 5192   0.910   0.177   4.789
   64SAPC  C213 5193   0.822   0.384   4.869
   64SAPC  H13R 5194   0.775   0.410   4.966
   64SAPC  H13S 5195   0.727   0.390   4.807
   64SAPC  C214 5196   0.890   0.495   4.815
   64SAPC  H14R 5197   0.918   0.555   4.899
   64SAPC  C215 5198   0.916   0.518   4.688
   64SAPC  H15R 5199   0.987   0.594   4.668
   64SAPC  C216 5200   0.881   0.437   4.571
   64SAPC  H16R 5201   0.775   0.429   4.597
   64SAPC  H16S 5202   0.931   0.339   4.546
   64SAPC  C217 5203   0.861   0.518   4.450
   64SAPC  H17R 5204   0.781   0.592   4.474
   64SAPC  H17S 5205   0.820   0.462   4.365
   64SAPC  C218 5206   1.000   0.560   4.420
   64SAPC  H18R 5207   1.068   0.472   4.406
   64SAPC  H18S 5208   1.023   0.641   4.491
   64SAPC  C219 5209   1.000   0.624   4.297
   64SAPC  H19R 5210   0.936   0.718   4.315
   64SAPC  H19S 5211   0.960   0.536   4.238
   64SAPC  C220 5212   1.106   0.665   4.212
   64SAPC  H20R 5213   1.096   0.626   4.109
   64SAPC  H20S 5214   1.204   0.652   4.256
   64SAPC  H20T 5215   1.074   0.770   4.203
   64SAPC   C33 5216   1.006   0.646   5.761
   64SAPC   H3X 5217   0.996   0.607   5.657
   64SAPC   H3Y 5218   1.100   0.602   5.802
   64SAPC   C34 5219   1.030   0.799   5.756
   64SAPC   H4X 5220   1.140   0.812   5.751
   64SAPC   H4Y 5221   0.993   0.848   5.848
   64SAPC   C35 5222   0.972   0.867   5.631
   64SAPC   H5X 5223   0.989   0.977   5.638
   64SAPC   H5Y 5224   0.862   0.850   5.629
   64SAPC   C36 5225   1.038   0.815   5.503
   64SAPC   H6X 5226   0.998   0.713   5.480
   64SAPC   H6Y 5227   1.147   0.801   5.517
   64SAPC   C37 5228   1.019   0.903   5.379
   64SAPC   H7X 5229   1.048   1.008   5.399
   64SAPC   H7Y 5230   0.912   0.903   5.348
   64SAPC   C38 5231   1.104   0.846   5.265
   64SAPC   H8X 5232   1.204   0.815   5.303
   64SAPC   H8Y 5233   1.124   0.927   5.191
   64SAPC   C39 5234   1.032   0.726   5.203
   64SAPC   H9X 5235   0.932   0.760   5.167
   64SAPC   H9Y 5236   1.011   0.652   5.284
   64SAPC  C310 5237   1.107   0.658   5.087
   64SAPC  H10X 5238   1.115   0.729   5.002
   64SAPC  H10Y 5239   1.048   0.569   5.056
   64SAPC  C311 5240   1.248   0.606   5.119
   64SAPC  H11X 5241   1.240   0.538   5.207
   64SAPC  H11Y 5242   1.313   0.691   5.151
   64SAPC  C312 5243   1.317   0.528   5.003
   64SAPC  H12X 5244   1.405   0.478   5.050
   64SAPC  H12Y 5245   1.357   0.596   4.926
   64SAPC  C313 5246   1.239   0.416   4.930
   64SAPC  H13X 5247   1.146   0.453   4.881
   64SAPC  H13Y 5248   1.209   0.340   5.005
   64SAPC  C314 5249   1.327   0.351   4.820
   64SAPC  H14X 5250   1.423   0.316   4.863
   64SAPC  H14Y 5251   1.351   0.426   4.742
   64SAPC  C315 5252   1.262   0.233   4.750
   64SAPC  H15X 5253   1.168   0.213   4.800
   64SAPC  H15Y 5254   1.322   0.140   4.765
   64SAPC  C316 5255   1.233   0.273   4.603
   64SAPC  H16X 5256   1.329   0.279   4.547
   64SAPC  H16Y 5257   1.167   0.361   4.603
   64SAPC  C317 5258   1.152   0.184   4.519
   64SAPC  H17X 5259   1.123   0.202   4.413
   64SAPC  H17Y 5260   1.055   0.169   4.574
   64SAPC  C318 5261   1.245   0.071   4.509
   64SAPC  H18X 5262   1.251   0.035   4.615
   64SAPC  H18Y 5263   1.345   0.056   4.473
   64SAPC  H18Z 5264   1.186   0.011   4.435
   65SAPC     N 5265   2.750   2.047   2.064
   65SAPC   C12 5266   2.637   1.946   2.075
   65SAPC  H12A 5267   2.681   1.847   2.074
   65SAPC  H12B 5268   2.573   1.955   1.988
   65SAPC   C13 5269   2.851   2.029   2.175
   65SAPC  H13A 5270   2.802   2.029   2.273
   65SAPC  H13B 5271   2.897   1.930   2.170
   65SAPC  H13C 5272   2.931   2.101   2.174
   65SAPC   C14 5273   2.817   2.029   1.931
   65SAPC  H14A 5274   2.884   1.943   1.930
   65SAPC  H14B 5275   2.742   2.008   1.855
   65SAPC  H14C 5276   2.866   2.118   1.898
   65SAPC   C15 5277   2.689   2.182   2.067
   65SAPC  H15A 5278   2.613   2.191   1.991
   65SAPC  H15B 5279   2.643   2.195   2.165
   65SAPC  H15C 5280   2.765   2.255   2.047
   65SAPC   C11 5281   2.540   1.955   2.195
   65SAPC  H11A 5282   2.465   1.873   2.178
   65SAPC  H11B 5283   2.485   2.052   2.195
   65SAPC     P 5284   2.507   1.925   2.444
   65SAPC   O13 5285   2.405   2.031   2.429
   65SAPC   O14 5286   2.465   1.784   2.455
   65SAPC   O12 5287   2.606   1.935   2.319
   65SAPC   O11 5288   2.608   1.966   2.555
   65SAPC    C1 5289   2.688   2.082   2.548
   65SAPC    HA 5290   2.761   2.077   2.464
   65SAPC    HB 5291   2.621   2.168   2.531
   65SAPC    C2 5292   2.777   2.101   2.676
   65SAPC    HS 5293   2.860   2.169   2.647
   65SAPC   O21 5294   2.835   1.976   2.721
   65SAPC   C21 5295   2.938   1.984   2.808
   65SAPC   O22 5296   2.994   2.086   2.843
   65SAPC   C22 5297   2.969   1.851   2.868
   65SAPC   H2R 5298   2.981   1.769   2.793
   65SAPC   H2S 5299   3.044   1.849   2.948
   65SAPC    C3 5300   2.695   2.168   2.791
   65SAPC    HX 5301   2.659   2.267   2.756
   65SAPC    HY 5302   2.763   2.186   2.877
   65SAPC   O31 5303   2.587   2.086   2.834
   65SAPC   C31 5304   2.462   2.128   2.805
   65SAPC   O32 5305   2.430   2.241   2.777
   65SAPC   C32 5306   2.363   2.025   2.822
   65SAPC   H2X 5307   2.328   1.980   2.724
   65SAPC   H2Y 5308   2.272   2.057   2.878
   65SAPC   C23 5309   2.853   1.821   2.951
   65SAPC   H3R 5310   2.866   1.711   2.967
   65SAPC   H3S 5311   2.761   1.850   2.891
   65SAPC   C24 5312   2.800   1.898   3.058
   65SAPC   H4R 5313   2.702   1.860   3.086
   65SAPC   H4S 5314   2.763   1.996   3.021
   65SAPC   C25 5315   2.885   1.872   3.174
   65SAPC   H5R 5316   2.890   1.768   3.212
   65SAPC   C26 5317   2.904   1.973   3.252
   65SAPC   H6R 5318   2.929   1.947   3.355
   65SAPC   C27 5319   2.842   2.105   3.211
   65SAPC   H7R 5320   2.730   2.110   3.208
   65SAPC   H7S 5321   2.875   2.128   3.107
   65SAPC   C28 5322   2.900   2.208   3.298
   65SAPC   H8R 5323   2.991   2.252   3.256
   65SAPC   C29 5324   2.849   2.258   3.410
   65SAPC   H9R 5325   2.907   2.333   3.462
   65SAPC  C210 5326   2.722   2.230   3.481
   65SAPC  H10R 5327   2.729   2.282   3.580
   65SAPC  H10S 5328   2.717   2.121   3.502
   65SAPC  C211 5329   2.607   2.294   3.406
   65SAPC  H11R 5330   2.609   2.403   3.404
   65SAPC  C212 5331   2.502   2.239   3.347
   65SAPC  H12R 5332   2.432   2.300   3.289
   65SAPC  C213 5333   2.470   2.097   3.341
   65SAPC  H13R 5334   2.559   2.040   3.370
   65SAPC  H13S 5335   2.445   2.072   3.235
   65SAPC  C214 5336   2.352   2.072   3.429
   65SAPC  H14R 5337   2.268   2.042   3.372
   65SAPC  C215 5338   2.321   2.082   3.558
   65SAPC  H15R 5339   2.227   2.040   3.596
   65SAPC  C216 5340   2.405   2.128   3.665
   65SAPC  H16R 5341   2.508   2.130   3.626
   65SAPC  H16S 5342   2.394   2.054   3.746
   65SAPC  C217 5343   2.358   2.264   3.713
   65SAPC  H17R 5344   2.255   2.262   3.754
   65SAPC  H17S 5345   2.353   2.334   3.626
   65SAPC  C218 5346   2.453   2.318   3.819
   65SAPC  H18R 5347   2.428   2.424   3.821
   65SAPC  H18S 5348   2.560   2.309   3.788
   65SAPC  C219 5349   2.438   2.261   3.962
   65SAPC  H19R 5350   2.486   2.333   4.032
   65SAPC  H19S 5351   2.497   2.167   3.969
   65SAPC  C220 5352   2.294   2.233   4.007
   65SAPC  H20R 5353   2.255   2.141   3.958
   65SAPC  H20S 5354   2.227   2.317   3.981
   65SAPC  H20T 5355   2.290   2.218   4.116
   65SAPC   C33 5356   2.438   1.925   2.895
   65SAPC   H3X 5357   2.476   1.934   3.000
   65SAPC   H3Y 5358   2.510   1.868   2.827
   65SAPC   C34 5359   2.321   1.855   2.902
   65SAPC   H4X 5360   2.391   1.764   2.909
   65SAPC   H4Y 5361   2.300   1.801   2.806
   65SAPC   C35 5362   2.191   1.879   3.028
   65SAPC   H5X 5363   2.114   1.948   3.027
   65SAPC   H5Y 5364   2.277   1.937   3.066
   65SAPC   C36 5365   2.105   1.737   3.140
   65SAPC   H6X 5366   2.046   1.672   3.094
   65SAPC   H6Y 5367   2.033   1.803   3.164
   65SAPC   C37 5368   2.185   1.595   3.236
   65SAPC   H7X 5369   2.248   1.517   3.180
   65SAPC   H7Y 5370   2.142   1.524   3.281
   65SAPC   C38 5371   2.281   1.595   3.365
   65SAPC   H8X 5372   2.229   1.577   3.456
   65SAPC   H8Y 5373   2.306   1.689   3.413
   65SAPC   C39 5374   2.419   1.570   3.353
   65SAPC   H9X 5375   2.456   1.572   3.256
   65SAPC   H9Y 5376   2.431   1.463   3.373
   65SAPC  C310 5377   2.498   1.656   3.453
   65SAPC  H10X 5378   2.551   1.590   3.519
   65SAPC  H10Y 5379   2.427   1.623   3.520
   65SAPC  C311 5380   2.559   1.805   3.440
   65SAPC  H11X 5381   2.474   1.864   3.464
   65SAPC  H11Y 5382   2.565   1.853   3.335
   65SAPC  C312 5383   2.681   1.837   3.539
   65SAPC  H12X 5384   2.749   1.918   3.515
   65SAPC  H12Y 5385   2.756   1.761   3.566
   65SAPC  C313 5386   2.623   1.839   3.677
   65SAPC  H13X 5387   2.610   1.727   3.692
   65SAPC  H13Y 5388   2.533   1.897   3.660
   65SAPC  C314 5389   2.669   1.899   3.811
   65SAPC  H14X 5390   2.699   1.816   3.866
   65SAPC  H14Y 5391   2.595   1.910   3.892
   65SAPC  C315 5392   2.748   2.026   3.809
   65SAPC  H15X 5393   2.667   2.097   3.780
   65SAPC  H15Y 5394   2.823   2.011   3.729
   65SAPC  C316 5395   2.810   2.067   3.944
   65SAPC  H16X 5396   2.835   1.979   4.005
   65SAPC  H16Y 5397   2.738   2.114   4.014
   65SAPC  C317 5398   2.936   2.152   3.932
   65SAPC  H17X 5399   2.905   2.252   3.896
   65SAPC  H17Y 5400   3.007   2.112   3.855
   65SAPC  C318 5401   3.010   2.156   4.066
   65SAPC  H18X 5402   2.941   2.188   4.147
   65SAPC  H18Y 5403   3.096   2.226   4.061
   65SAPC  H18Z 5404   3.048   2.056   4.094
   66SAPC     N 5405   5.538   3.542   2.286
   66SAPC   C12 5406   5.650   3.554   2.392
   66SAPC  H12A 5407   5.692   3.456   2.406
   66SAPC  H12B 5408   5.607   3.588   2.484
   66SAPC   C13 5409   5.482   3.680   2.254
   66SAPC  H13A 5410   5.560   3.751   2.227
   66SAPC  H13B 5411   5.412   3.678   2.170
   66SAPC  H13C 5412   5.426   3.722   2.337
   66SAPC   C14 5413   5.587   3.479   2.157
   66SAPC  H14A 5414   5.505   3.459   2.090
   66SAPC  H14B 5415   5.656   3.548   2.107
   66SAPC  H14C 5416   5.644   3.389   2.171
   66SAPC   C15 5417   5.430   3.456   2.340
   66SAPC  H15A 5418   5.345   3.454   2.272
   66SAPC  H15B 5419   5.463   3.354   2.353
   66SAPC  H15C 5420   5.393   3.491   2.436
   66SAPC   C11 5421   5.774   3.638   2.368
   66SAPC  H11A 5422   5.857   3.603   2.435
   66SAPC  H11B 5423   5.756   3.747   2.393
   66SAPC     P 5424   5.940   3.679   2.190
   66SAPC   O13 5425   6.050   3.663   2.287
   66SAPC   O14 5426   5.971   3.674   2.045
   66SAPC   O12 5427   5.810   3.611   2.234
   66SAPC   O11 5428   5.877   3.823   2.228
   66SAPC    C1 5429   5.975   3.921   2.226
   66SAPC    HA 5430   6.076   3.878   2.199
   66SAPC    HB 5431   5.949   3.951   2.124
   66SAPC    C2 5432   6.001   4.035   2.344
   66SAPC    HS 5433   6.103   4.081   2.341
   66SAPC   O21 5434   5.987   3.982   2.472
   66SAPC   C21 5435   6.089   3.907   2.512
   66SAPC   O22 5436   6.190   3.880   2.452
   66SAPC   C22 5437   6.046   3.866   2.651
   66SAPC   H2R 5438   6.013   3.959   2.701
   66SAPC   H2S 5439   5.958   3.802   2.634
   66SAPC    C3 5440   5.913   4.169   2.335
   66SAPC    HX 5441   5.892   4.218   2.241
   66SAPC    HY 5442   5.956   4.263   2.372
   66SAPC   O31 5443   5.781   4.146   2.362
   66SAPC   C31 5444   5.764   4.147   2.487
   66SAPC   O32 5445   5.841   4.183   2.574
   66SAPC   C32 5446   5.631   4.093   2.510
   66SAPC   H2X 5447   5.596   4.026   2.432
   66SAPC   H2Y 5448   5.561   4.165   2.484
   66SAPC   C23 5449   6.154   3.792   2.733
   66SAPC   H3R 5450   6.251   3.845   2.716
   66SAPC   H3S 5451   6.167   3.689   2.695
   66SAPC   C24 5452   6.120   3.786   2.883
   66SAPC   H4R 5453   6.193   3.726   2.939
   66SAPC   H4S 5454   6.016   3.751   2.900
   66SAPC   C25 5455   6.134   3.926   2.921
   66SAPC   H5R 5456   6.043   3.983   2.903
   66SAPC   C26 5457   6.237   3.979   2.985
   66SAPC   H6R 5458   6.247   4.085   2.970
   66SAPC   C27 5459   6.364   3.925   3.040
   66SAPC   H7R 5460   6.438   4.009   3.044
   66SAPC   H7S 5461   6.401   3.859   2.960
   66SAPC   C28 5462   6.356   3.842   3.168
   66SAPC   H8R 5463   6.367   3.740   3.147
   66SAPC   C29 5464   6.321   3.860   3.296
   66SAPC   H9R 5465   6.346   3.795   3.380
   66SAPC  C210 5466   6.278   3.982   3.353
   66SAPC  H10R 5467   6.270   4.037   3.263
   66SAPC  H10S 5468   6.368   4.003   3.409
   66SAPC  C211 5469   6.161   4.040   3.417
   66SAPC  H11R 5470   6.118   4.126   3.366
   66SAPC  C212 5471   6.141   4.033   3.544
   66SAPC  H12R 5472   6.051   4.085   3.581
   66SAPC  C213 5473   6.237   3.964   3.634
   66SAPC  H13R 5474   6.345   3.945   3.607
   66SAPC  H13S 5475   6.191   3.873   3.674
   66SAPC  C214 5476   6.226   4.078   3.722
   66SAPC  H14R 5477   6.286   4.171   3.700
   66SAPC  C215 5478   6.197   4.053   3.845
   66SAPC  H15R 5479   6.243   4.143   3.888
   66SAPC  C216 5480   6.170   3.921   3.928
   66SAPC  H16R 5481   6.270   3.869   3.947
   66SAPC  H16S 5482   6.128   3.838   3.871
   66SAPC  C217 5483   6.081   3.946   4.063
   66SAPC  H17R 5484   5.981   3.979   4.040
   66SAPC  H17S 5485   6.108   4.037   4.123
   66SAPC  C218 5486   6.082   3.842   4.180
   66SAPC  H18R 5487   6.183   3.822   4.210
   66SAPC  H18S 5488   6.066   3.740   4.145
   66SAPC  C219 5489   6.035   3.886   4.321
   66SAPC  H19R 5490   6.096   3.967   4.371
   66SAPC  H19S 5491   6.037   3.800   4.394
   66SAPC  C220 5492   5.896   3.927   4.310
   66SAPC  H20R 5493   5.861   3.949   4.411
   66SAPC  H20S 5494   5.847   3.839   4.263
   66SAPC  H20T 5495   5.893   4.016   4.244
   66SAPC   C33 5496   5.615   4.068   2.659
   66SAPC   H3X 5497   5.507   4.064   2.681
   66SAPC   H3Y 5498   5.661   4.144   2.728
   66SAPC   C34 5499   5.684   3.942   2.675
   66SAPC   H4X 5500   5.793   3.963   2.659
   66SAPC   H4Y 5501   5.641   3.881   2.593
   66SAPC   C35 5502   5.664   3.887   2.811
   66SAPC   H5X 5503   5.557   3.888   2.842
   66SAPC   H5Y 5504   5.721   3.953   2.881
   66SAPC   C36 5505   5.718   3.746   2.800
   66SAPC   H6X 5506   5.821   3.754   2.758
   66SAPC   H6Y 5507   5.657   3.686   2.730
   66SAPC   C37 5508   5.727   3.679   2.934
   66SAPC   H7X 5509   5.625   3.676   2.978
   66SAPC   H7Y 5510   5.794   3.743   2.996
   66SAPC   C38 5511   5.779   3.536   2.923
   66SAPC   H8X 5512   5.875   3.537   2.866
   66SAPC   H8Y 5513   5.706   3.477   2.864
   66SAPC   C39 5514   5.801   3.470   3.062
   66SAPC   H9X 5515   5.862   3.379   3.047
   66SAPC   H9Y 5516   5.703   3.438   3.103
   66SAPC  C310 5517   5.862   3.568   3.164
   66SAPC  H10X 5518   5.789   3.648   3.185
   66SAPC  H10Y 5519   5.948   3.620   3.117
   66SAPC  C311 5520   5.897   3.513   3.304
   66SAPC  H11X 5521   5.968   3.428   3.307
   66SAPC  H11Y 5522   5.810   3.463   3.349
   66SAPC  C312 5523   5.948   3.633   3.388
   66SAPC  H12X 5524   5.867   3.708   3.392
   66SAPC  H12Y 5525   6.035   3.684   3.339
   66SAPC  C313 5526   5.992   3.596   3.530
   66SAPC  H13X 5527   6.083   3.656   3.554
   66SAPC  H13Y 5528   6.017   3.487   3.527
   66SAPC  C314 5529   5.896   3.623   3.646
   66SAPC  H14X 5530   5.935   3.569   3.735
   66SAPC  H14Y 5531   5.797   3.583   3.621
   66SAPC  C315 5532   5.882   3.771   3.688
   66SAPC  H15X 5533   5.831   3.827   3.607
   66SAPC  H15Y 5534   5.982   3.818   3.702
   66SAPC  C316 5535   5.806   3.779   3.822
   66SAPC  H16X 5536   5.869   3.728   3.898
   66SAPC  H16Y 5537   5.710   3.723   3.815
   66SAPC  C317 5538   5.776   3.922   3.868
   66SAPC  H17X 5539   5.721   3.970   3.784
   66SAPC  H17Y 5540   5.872   3.975   3.878
   66SAPC  C318 5541   5.695   3.932   3.998
   66SAPC  H18X 5542   5.587   3.910   3.981
   66SAPC  H18Y 5543   5.701   4.034   4.043
   66SAPC  H18Z 5544   5.734   3.861   4.074
   67SAPC     N 5545   1.852   2.082   2.050
   67SAPC   C12 5546   1.781   2.042   2.179
   67SAPC  H12A 5547   1.848   1.983   2.242
   67SAPC  H12B 5548   1.699   1.978   2.149
   67SAPC   C13 5549   1.862   1.958   1.971
   67SAPC  H13A 5550   1.911   1.976   1.877
   67SAPC  H13B 5551   1.917   1.884   2.028
   67SAPC  H13C 5552   1.763   1.916   1.956
   67SAPC   C14 5553   1.772   2.180   1.972
   67SAPC  H14A 5554   1.835   2.225   1.896
   67SAPC  H14B 5555   1.689   2.127   1.929
   67SAPC  H14C 5556   1.738   2.260   2.038
   67SAPC   C15 5557   1.989   2.137   2.074
   67SAPC  H15A 5558   2.047   2.142   1.983
   67SAPC  H15B 5559   1.985   2.236   2.119
   67SAPC  H15C 5560   2.043   2.074   2.144
   67SAPC   C11 5561   1.718   2.150   2.268
   67SAPC  H11A 5562   1.676   2.098   2.358
   67SAPC  H11B 5563   1.632   2.192   2.211
   67SAPC     P 5564   1.873   2.261   2.446
   67SAPC   O13 5565   1.901   2.127   2.497
   67SAPC   O14 5566   1.980   2.364   2.447
   67SAPC   O12 5567   1.811   2.253   2.299
   67SAPC   O11 5568   1.747   2.302   2.536
   67SAPC    C1 5569   1.674   2.416   2.505
   67SAPC    HA 5570   1.750   2.495   2.516
   67SAPC    HB 5571   1.642   2.413   2.396
   67SAPC    C2 5572   1.547   2.452   2.596
   67SAPC    HS 5573   1.487   2.539   2.565
   67SAPC   O21 5574   1.576   2.472   2.735
   67SAPC   C21 5575   1.493   2.542   2.813
   67SAPC   O22 5576   1.387   2.592   2.785
   67SAPC   C22 5577   1.558   2.552   2.947
   67SAPC   H2R 5578   1.549   2.449   2.983
   67SAPC   H2S 5579   1.665   2.565   2.936
   67SAPC    C3 5580   1.447   2.351   2.581
   67SAPC    HX 5581   1.451   2.334   2.470
   67SAPC    HY 5582   1.350   2.394   2.619
   67SAPC   O31 5583   1.493   2.243   2.655
   67SAPC   C31 5584   1.436   2.136   2.618
   67SAPC   O32 5585   1.340   2.127   2.544
   67SAPC   C32 5586   1.524   2.024   2.667
   67SAPC   H2X 5587   1.593   2.000   2.582
   67SAPC   H2Y 5588   1.455   1.941   2.686
   67SAPC   C23 5589   1.492   2.653   3.042
   67SAPC   H3R 5590   1.387   2.620   3.053
   67SAPC   H3S 5591   1.493   2.758   3.003
   67SAPC   C24 5592   1.563   2.663   3.178
   67SAPC   H4R 5593   1.514   2.743   3.237
   67SAPC   H4S 5594   1.665   2.698   3.157
   67SAPC   C25 5595   1.587   2.539   3.259
   67SAPC   H5R 5596   1.644   2.459   3.211
   67SAPC   C26 5597   1.534   2.516   3.379
   67SAPC   H6R 5598   1.543   2.416   3.424
   67SAPC   C27 5599   1.439   2.603   3.456
   67SAPC   H7R 5600   1.450   2.712   3.443
   67SAPC   H7S 5601   1.430   2.577   3.564
   67SAPC   C28 5602   1.309   2.573   3.398
   67SAPC   H8R 5603   1.266   2.637   3.321
   67SAPC   C29 5604   1.263   2.452   3.399
   67SAPC   H9R 5605   1.167   2.448   3.445
   67SAPC  C210 5606   1.314   2.329   3.447
   67SAPC  H10R 5607   1.405   2.295   3.401
   67SAPC  H10S 5608   1.252   2.264   3.380
   67SAPC  C211 5609   1.298   2.327   3.600
   67SAPC  H11R 5610   1.230   2.402   3.650
   67SAPC  C212 5611   1.308   2.207   3.659
   67SAPC  H12R 5612   1.280   2.192   3.764
   67SAPC  C213 5613   1.336   2.084   3.577
   67SAPC  H13R 5614   1.298   2.085   3.473
   67SAPC  H13S 5615   1.292   1.995   3.626
   67SAPC  C214 5616   1.485   2.086   3.576
   67SAPC  H14R 5617   1.530   2.147   3.495
   67SAPC  C215 5618   1.562   2.032   3.670
   67SAPC  H15R 5619   1.670   2.049   3.662
   67SAPC  C216 5620   1.512   1.958   3.793
   67SAPC  H16R 5621   1.537   1.850   3.778
   67SAPC  H16S 5622   1.403   1.966   3.809
   67SAPC  C217 5623   1.582   1.996   3.924
   67SAPC  H17R 5624   1.673   2.047   3.889
   67SAPC  H17S 5625   1.610   1.903   3.980
   67SAPC  C218 5626   1.509   2.084   4.026
   67SAPC  H18R 5627   1.481   2.182   3.982
   67SAPC  H18S 5628   1.578   2.108   4.110
   67SAPC  C219 5629   1.393   2.011   4.091
   67SAPC  H19R 5630   1.430   1.930   4.157
   67SAPC  H19S 5631   1.328   1.968   4.013
   67SAPC  C220 5632   1.308   2.107   4.167
   67SAPC  H20R 5633   1.223   2.052   4.213
   67SAPC  H20S 5634   1.263   2.179   4.097
   67SAPC  H20T 5635   1.365   2.165   4.244
   67SAPC   C33 5636   1.601   2.064   2.797
   67SAPC   H3X 5637   1.532   2.127   2.858
   67SAPC   H3Y 5638   1.694   2.122   2.775
   67SAPC   C34 5639   1.628   1.944   2.886
   67SAPC   H4X 5640   1.700   1.876   2.833
   67SAPC   H4Y 5641   1.525   1.904   2.894
   67SAPC   C35 5642   1.662   1.963   3.033
   67SAPC   H5X 5643   1.670   1.865   3.086
   67SAPC   H5Y 5644   1.580   2.022   3.081
   67SAPC   C36 5645   1.794   2.036   3.045
   67SAPC   H6X 5646   1.786   2.124   2.978
   67SAPC   H6Y 5647   1.873   1.968   3.004
   67SAPC   C37 5648   1.830   2.083   3.186
   67SAPC   H7X 5649   1.833   1.995   3.253
   67SAPC   H7Y 5650   1.750   2.152   3.223
   67SAPC   C38 5651   1.962   2.161   3.184
   67SAPC   H8X 5652   1.946   2.256   3.127
   67SAPC   H8Y 5653   2.038   2.102   3.128
   67SAPC   C39 5654   2.018   2.207   3.320
   67SAPC   H9X 5655   2.106   2.273   3.311
   67SAPC   H9Y 5656   2.069   2.133   3.374
   67SAPC  C310 5657   1.917   2.239   3.429
   67SAPC  H10X 5658   1.851   2.151   3.447
   67SAPC  H10Y 5659   1.857   2.322   3.389
   67SAPC  C311 5660   1.986   2.275   3.561
   67SAPC  H11X 5661   2.046   2.367   3.544
   67SAPC  H11Y 5662   2.054   2.194   3.595
   67SAPC  C312 5663   1.888   2.301   3.676
   67SAPC  H12X 5664   1.945   2.328   3.768
   67SAPC  H12Y 5665   1.834   2.206   3.697
   67SAPC  C313 5666   1.796   2.420   3.644
   67SAPC  H13X 5667   1.752   2.404   3.543
   67SAPC  H13Y 5668   1.862   2.509   3.640
   67SAPC  C314 5669   1.678   2.445   3.739
   67SAPC  H14X 5670   1.604   2.363   3.729
   67SAPC  H14Y 5671   1.627   2.539   3.704
   67SAPC  C315 5672   1.711   2.466   3.887
   67SAPC  H15X 5673   1.794   2.540   3.898
   67SAPC  H15Y 5674   1.739   2.371   3.935
   67SAPC  C316 5675   1.591   2.521   3.963
   67SAPC  H16X 5676   1.505   2.452   3.968
   67SAPC  H16Y 5677   1.552   2.598   3.896
   67SAPC  C317 5678   1.632   2.571   4.102
   67SAPC  H17X 5679   1.684   2.669   4.096
   67SAPC  H17Y 5680   1.708   2.499   4.141
   67SAPC  C318 5681   1.517   2.583   4.201
   67SAPC  H18X 5682   1.437   2.651   4.165
   67SAPC  H18Y 5683   1.551   2.618   4.301
   67SAPC  H18Z 5684   1.476   2.481   4.211
   68SAPC     N 5685   4.572   0.800   2.338
   68SAPC   C12 5686   4.490   0.916   2.295
   68SAPC  H12A 5687   4.559   1.001   2.293
   68SAPC  H12B 5688   4.417   0.944   2.374
   68SAPC   C13 5689   4.616   0.821   2.480
   68SAPC  H13A 5690   4.675   0.738   2.518
   68SAPC  H13B 5691   4.674   0.912   2.489
   68SAPC  H13C 5692   4.529   0.833   2.545
   68SAPC   C14 5693   4.492   0.673   2.324
   68SAPC  H14A 5694   4.458   0.658   2.221
   68SAPC  H14B 5695   4.546   0.586   2.356
   68SAPC  H14C 5696   4.397   0.676   2.379
   68SAPC   C15 5697   4.693   0.797   2.251
   68SAPC  H15A 5698   4.758   0.881   2.273
   68SAPC  H15B 5699   4.750   0.707   2.267
   68SAPC  H15C 5700   4.662   0.799   2.146
   68SAPC   C11 5701   4.419   0.927   2.161
   68SAPC  H11A 5702   4.491   0.917   2.078
   68SAPC  H11B 5703   4.380   1.032   2.150
   68SAPC     P 5704   4.163   0.869   2.166
   68SAPC   O13 5705   4.118   0.948   2.050
   68SAPC   O14 5706   4.079   0.759   2.217
   68SAPC   O12 5707   4.316   0.829   2.153
   68SAPC   O11 5708   4.166   0.964   2.281
   68SAPC    C1 5709   4.055   1.037   2.330
   68SAPC    HA 5710   4.032   1.128   2.266
   68SAPC    HB 5711   3.967   0.975   2.349
   68SAPC    C2 5712   4.095   1.094   2.462
   68SAPC    HS 5713   4.025   1.178   2.475
   68SAPC   O21 5714   4.242   1.100   2.461
   68SAPC   C21 5715   4.312   1.148   2.347
   68SAPC   O22 5716   4.260   1.217   2.260
   68SAPC   C22 5717   4.465   1.171   2.400
   68SAPC   H2R 5718   4.525   1.092   2.403
   68SAPC   H2S 5719   4.509   1.253   2.339
   68SAPC    C3 5720   4.044   1.025   2.589
   68SAPC    HX 5721   3.933   1.035   2.580
   68SAPC    HY 5722   4.072   1.075   2.685
   68SAPC   O31 5723   4.077   0.890   2.583
   68SAPC   C31 5724   4.199   0.859   2.617
   68SAPC   O32 5725   4.284   0.929   2.669
   68SAPC   C32 5726   4.208   0.711   2.582
   68SAPC   H2X 5727   4.243   0.707   2.477
   68SAPC   H2Y 5728   4.105   0.669   2.584
   68SAPC   C23 5729   4.509   1.169   2.557
   68SAPC   H3R 5730   4.445   1.124   2.639
   68SAPC   H3S 5731   4.487   1.260   2.526
   68SAPC   C24 5732   4.631   1.246   2.609
   68SAPC   H4R 5733   4.639   1.277   2.706
   68SAPC   H4S 5734   4.682   1.327   2.562
   68SAPC   C25 5735   4.692   1.124   2.613
   68SAPC   H5R 5736   4.704   1.099   2.508
   68SAPC   C26 5737   4.732   1.064   2.724
   68SAPC   H6R 5738   4.791   0.979   2.704
   68SAPC   C27 5739   4.725   1.106   2.869
   68SAPC   H7R 5740   4.733   1.209   2.891
   68SAPC   H7S 5741   4.820   1.078   2.917
   68SAPC   C28 5742   4.603   1.060   2.941
   68SAPC   H8R 5743   4.514   1.037   2.879
   68SAPC   C29 5744   4.592   1.068   3.073
   68SAPC   H9R 5745   4.505   1.025   3.125
   68SAPC  C210 5746   4.702   1.124   3.158
   68SAPC  H10R 5747   4.672   1.205   3.225
   68SAPC  H10S 5748   4.793   1.158   3.102
   68SAPC  C211 5749   4.747   1.050   3.269
   68SAPC  H11R 5750   4.845   1.017   3.225
   68SAPC  C212 5751   4.670   0.980   3.358
   68SAPC  H12R 5752   4.712   0.918   3.434
   68SAPC  C213 5753   4.533   0.943   3.388
   68SAPC  H13R 5754   4.504   0.887   3.300
   68SAPC  H13S 5755   4.507   1.049   3.398
   68SAPC  C214 5756   4.505   0.846   3.504
   68SAPC  H14R 5757   4.569   0.756   3.517
   68SAPC  C215 5758   4.440   0.889   3.612
   68SAPC  H15R 5759   4.454   0.837   3.708
   68SAPC  C216 5760   4.391   1.030   3.622
   68SAPC  H16R 5761   4.296   1.023   3.676
   68SAPC  H16S 5762   4.367   1.067   3.520
   68SAPC  C217 5763   4.469   1.144   3.689
   68SAPC  H17R 5764   4.411   1.236   3.662
   68SAPC  H17S 5765   4.571   1.158   3.647
   68SAPC  C218 5766   4.471   1.130   3.841
   68SAPC  H18R 5767   4.538   1.044   3.866
   68SAPC  H18S 5768   4.371   1.109   3.884
   68SAPC  C219 5769   4.525   1.258   3.901
   68SAPC  H19R 5770   4.470   1.344   3.855
   68SAPC  H19S 5771   4.631   1.258   3.866
   68SAPC  C220 5772   4.521   1.280   4.051
   68SAPC  H20R 5773   4.599   1.353   4.082
   68SAPC  H20S 5774   4.536   1.185   4.106
   68SAPC  H20T 5775   4.422   1.324   4.078
   68SAPC   C33 5776   4.299   0.627   2.673
   68SAPC   H3X 5777   4.396   0.680   2.687
   68SAPC   H3Y 5778   4.317   0.533   2.615
   68SAPC   C34 5779   4.236   0.587   2.809
   68SAPC   H4X 5780   4.279   0.489   2.842
   68SAPC   H4Y 5781   4.128   0.568   2.794
   68SAPC   C35 5782   4.258   0.691   2.922
   68SAPC   H5X 5783   4.191   0.778   2.901
   68SAPC   H5Y 5784   4.363   0.727   2.919
   68SAPC   C36 5785   4.231   0.641   3.065
   68SAPC   H6X 5786   4.280   0.542   3.081
   68SAPC   H6Y 5787   4.121   0.625   3.077
   68SAPC   C37 5788   4.281   0.736   3.177
   68SAPC   H7X 5789   4.271   0.840   3.141
   68SAPC   H7Y 5790   4.388   0.717   3.201
   68SAPC   C38 5791   4.197   0.731   3.306
   68SAPC   H8X 5792   4.090   0.735   3.272
   68SAPC   H8Y 5793   4.213   0.814   3.376
   68SAPC   C39 5794   4.223   0.616   3.400
   68SAPC   H9X 5795   4.323   0.583   3.428
   68SAPC   H9Y 5796   4.217   0.540   3.315
   68SAPC  C310 5797   4.113   0.623   3.522
   68SAPC  H10X 5798   4.096   0.532   3.581
   68SAPC  H10Y 5799   4.003   0.632   3.494
   68SAPC  C311 5800   4.124   0.702   3.635
   68SAPC  H11X 5801   4.097   0.794   3.577
   68SAPC  H11Y 5802   4.230   0.674   3.652
   68SAPC  C312 5803   4.020   0.648   3.735
   68SAPC  H12X 5804   4.032   0.539   3.762
   68SAPC  H12Y 5805   3.914   0.654   3.698
   68SAPC  C313 5806   4.041   0.726   3.860
   68SAPC  H13X 5807   4.151   0.723   3.883
   68SAPC  H13Y 5808   3.983   0.673   3.938
   68SAPC  C314 5809   3.993   0.869   3.842
   68SAPC  H14X 5810   3.886   0.869   3.812
   68SAPC  H14Y 5811   4.049   0.919   3.759
   68SAPC  C315 5812   4.016   0.951   3.968
   68SAPC  H15X 5813   4.000   1.058   3.942
   68SAPC  H15Y 5814   4.120   0.937   4.004
   68SAPC  C316 5815   3.921   0.919   4.082
   68SAPC  H16X 5816   3.930   0.814   4.118
   68SAPC  H16Y 5817   3.821   0.936   4.037
   68SAPC  C317 5818   3.915   1.018   4.196
   68SAPC  H17X 5819   3.872   0.963   4.283
   68SAPC  H17Y 5820   3.842   1.097   4.167
   68SAPC  C318 5821   4.049   1.081   4.235
   68SAPC  H18X 5822   4.118   1.001   4.269
   68SAPC  H18Y 5823   4.033   1.154   4.318
   68SAPC  H18Z 5824   4.098   1.135   4.152
   69SAPC     N 5825   3.836   6.770   2.349
   69SAPC   C12 5826   3.918   6.644   2.323
   69SAPC  H12A 5827   3.866   6.580   2.251
   69SAPC  H12B 5828   3.919   6.587   2.415
   69SAPC   C13 5829   3.721   6.741   2.440
   69SAPC  H13A 5830   3.657   6.659   2.405
   69SAPC  H13B 5831   3.756   6.718   2.540
   69SAPC  H13C 5832   3.661   6.829   2.447
   69SAPC   C14 5833   3.923   6.870   2.422
   69SAPC  H14A 5834   4.011   6.900   2.362
   69SAPC  H14B 5835   3.870   6.960   2.447
   69SAPC  H14C 5836   3.965   6.828   2.513
   69SAPC   C15 5837   3.787   6.826   2.218
   69SAPC  H15A 5838   3.866   6.821   2.142
   69SAPC  H15B 5839   3.703   6.768   2.179
   69SAPC  H15C 5840   3.757   6.929   2.228
   69SAPC   C11 5841   4.065   6.661   2.277
   69SAPC  H11A 5842   4.110   6.561   2.255
   69SAPC  H11B 5843   4.124   6.703   2.362
   69SAPC     P 5844   4.173   6.863   2.141
   69SAPC   O13 5845   4.303   6.818   2.086
   69SAPC   O14 5846   4.098   6.965   2.063
   69SAPC   O12 5847   4.075   6.740   2.159
   69SAPC   O11 5848   4.196   6.911   2.291
   69SAPC    C1 5849   4.324   6.962   2.333
   69SAPC    HA 5850   4.398   6.879   2.344
   69SAPC    HB 5851   4.366   7.030   2.257
   69SAPC    C2 5852   4.312   7.043   2.466
   69SAPC    HS 5853   4.410   7.091   2.490
   69SAPC   O21 5854   4.267   6.964   2.576
   69SAPC   C21 5855   4.348   6.875   2.626
   69SAPC   O22 5856   4.459   6.845   2.588
   69SAPC   C22 5857   4.270   6.809   2.743
   69SAPC   H2R 5858   4.169   6.855   2.744
   69SAPC   H2S 5859   4.259   6.701   2.720
   69SAPC    C3 5860   4.211   7.159   2.449
   69SAPC    HX 5861   4.113   7.118   2.416
   69SAPC    HY 5862   4.246   7.224   2.368
   69SAPC   O31 5863   4.205   7.239   2.568
   69SAPC   C31 5864   4.100   7.222   2.646
   69SAPC   O32 5865   4.004   7.149   2.626
   69SAPC   C32 5866   4.125   7.295   2.780
   69SAPC   H2X 5867   4.028   7.322   2.825
   69SAPC   H2Y 5868   4.181   7.388   2.759
   69SAPC   C23 5869   4.328   6.831   2.885
   69SAPC   H3R 5870   4.303   6.935   2.916
   69SAPC   H3S 5871   4.438   6.818   2.881
   69SAPC   C24 5872   4.268   6.738   2.992
   69SAPC   H4R 5873   4.308   6.763   3.093
   69SAPC   H4S 5874   4.304   6.635   2.969
   69SAPC   C25 5875   4.117   6.742   2.987
   69SAPC   H5R 5876   4.075   6.733   2.887
   69SAPC   C26 5877   4.031   6.756   3.089
   69SAPC   H6R 5878   3.923   6.746   3.070
   69SAPC   C27 5879   4.062   6.772   3.233
   69SAPC   H7R 5880   4.000   6.854   3.274
   69SAPC   H7S 5881   4.167   6.808   3.247
   69SAPC   C28 5882   4.035   6.636   3.297
   69SAPC   H8R 5883   4.113   6.561   3.271
   69SAPC   C29 5884   3.944   6.609   3.396
   69SAPC   H9R 5885   3.959   6.512   3.449
   69SAPC  C210 5886   3.847   6.710   3.467
   69SAPC  H10R 5887   3.751   6.680   3.427
   69SAPC  H10S 5888   3.876   6.808   3.425
   69SAPC  C211 5889   3.814   6.759   3.610
   69SAPC  H11R 5890   3.795   6.669   3.673
   69SAPC  C212 5891   3.868   6.867   3.685
   69SAPC  H12R 5892   3.870   6.859   3.796
   69SAPC  C213 5893   3.978   6.969   3.653
   69SAPC  H13R 5894   4.025   6.972   3.552
   69SAPC  H13S 5895   4.071   6.970   3.720
   69SAPC  C214 5896   3.904   7.088   3.644
   69SAPC  H14R 5897   3.797   7.081   3.657
   69SAPC  C215 5898   3.959   7.197   3.603
   69SAPC  H15R 5899   3.881   7.273   3.599
   69SAPC  C216 5900   4.102   7.223   3.559
   69SAPC  H16R 5901   4.093   7.296   3.475
   69SAPC  H16S 5902   4.163   7.138   3.523
   69SAPC  C217 5903   4.197   7.281   3.666
   69SAPC  H17R 5904   4.150   7.369   3.696
   69SAPC  H17S 5905   4.290   7.318   3.623
   69SAPC  C218 5906   4.217   7.209   3.801
   69SAPC  H18R 5907   4.265   7.114   3.776
   69SAPC  H18S 5908   4.116   7.188   3.846
   69SAPC  C219 5909   4.305   7.290   3.900
   69SAPC  H19R 5910   4.282   7.398   3.913
   69SAPC  H19S 5911   4.406   7.296   3.856
   69SAPC  C220 5912   4.314   7.231   4.041
   69SAPC  H20R 5913   4.219   7.234   4.098
   69SAPC  H20S 5914   4.391   7.288   4.098
   69SAPC  H20T 5915   4.345   7.126   4.029
   69SAPC   C33 5916   4.201   7.199   2.875
   69SAPC   H3X 5917   4.295   7.167   2.823
   69SAPC   H3Y 5918   4.140   7.108   2.893
   69SAPC   C34 5919   4.240   7.259   3.011
   69SAPC   H4X 5920   4.151   7.306   3.059
   69SAPC   H4Y 5921   4.318   7.337   2.995
   69SAPC   C35 5922   4.298   7.156   3.109
   69SAPC   H5X 5923   4.237   7.063   3.112
   69SAPC   H5Y 5924   4.287   7.206   3.208
   69SAPC   C36 5925   4.444   7.118   3.074
   69SAPC   H6X 5926   4.486   7.194   3.006
   69SAPC   H6Y 5927   4.446   7.019   3.025
   69SAPC   C37 5928   4.541   7.094   3.189
   69SAPC   H7X 5929   4.606   7.183   3.194
   69SAPC   H7Y 5930   4.622   7.021   3.166
   69SAPC   C38 5931   4.460   7.051   3.312
   69SAPC   H8X 5932   4.367   7.100   3.340
   69SAPC   H8Y 5933   4.503   7.069   3.410
   69SAPC   C39 5934   4.454   6.908   3.326
   69SAPC   H9X 5935   4.556   6.869   3.310
   69SAPC   H9Y 5936   4.382   6.872   3.251
   69SAPC  C310 5937   4.417   6.882   3.469
   69SAPC  H10X 5938   4.312   6.912   3.475
   69SAPC  H10Y 5939   4.474   6.928   3.552
   69SAPC  C311 5940   4.445   6.743   3.494
   69SAPC  H11X 5941   4.498   6.708   3.405
   69SAPC  H11Y 5942   4.359   6.707   3.434
   69SAPC  C312 5943   4.480   6.721   3.660
   69SAPC  H12X 5944   4.578   6.753   3.691
   69SAPC  H12Y 5945   4.489   6.622   3.685
   69SAPC  C313 5946   4.381   6.724   3.797
   69SAPC  H13X 5947   4.276   6.723   3.784
   69SAPC  H13Y 5948   4.311   6.808   3.796
   69SAPC  C314 5949   4.345   6.588   3.885
   69SAPC  H14X 5950   4.423   6.611   3.950
   69SAPC  H14Y 5951   4.361   6.483   3.858
   69SAPC  C315 5952   4.199   6.570   3.932
   69SAPC  H15X 5953   4.137   6.513   3.853
   69SAPC  H15Y 5954   4.153   6.665   3.965
   69SAPC  C316 5955   4.136   6.498   4.037
   69SAPC  H16X 5956   4.170   6.496   4.144
   69SAPC  H16Y 5957   4.150   6.402   3.992
   69SAPC  C317 5958   3.993   6.514   4.032
   69SAPC  H17X 5959   4.003   6.431   4.088
   69SAPC  H17Y 5960   3.947   6.468   3.945
   69SAPC  C318 5961   3.918   6.615   4.113
   69SAPC  H18X 5962   3.983   6.668   4.184
   69SAPC  H18Y 5963   3.837   6.574   4.175
   69SAPC  H18Z 5964   3.870   6.678   4.038
   70SAPC     N 5965   6.936   4.111   2.313
   70SAPC   C12 5966   7.050   4.103   2.413
   70SAPC  H12A 5967   7.031   4.022   2.482
   70SAPC  H12B 5968   7.055   4.195   2.466
   70SAPC   C13 5969   6.970   4.211   2.204
   70SAPC  H13A 5970   7.059   4.179   2.147
   70SAPC  H13B 5971   6.888   4.220   2.134
   70SAPC  H13C 5972   6.993   4.307   2.246
   70SAPC   C14 5973   6.906   3.978   2.249
   70SAPC  H14A 5974   6.856   3.991   2.154
   70SAPC  H14B 5975   7.000   3.924   2.229
   70SAPC  H14C 5976   6.848   3.912   2.312
   70SAPC   C15 5977   6.814   4.151   2.386
   70SAPC  H15A 5978   6.791   4.077   2.462
   70SAPC  H15B 5979   6.827   4.248   2.432
   70SAPC  H15C 5980   6.728   4.158   2.320
   70SAPC   C11 5981   7.190   4.077   2.361
   70SAPC  H11A 5982   7.258   4.045   2.443
   70SAPC  H11B 5983   7.233   4.167   2.310
   70SAPC     P 5984   7.281   3.949   2.164
   70SAPC   O13 5985   7.260   3.818   2.101
   70SAPC   O14 5986   7.285   4.067   2.074
   70SAPC   O12 5987   7.174   3.971   2.272
   70SAPC   O11 5988   7.411   3.958   2.255
   70SAPC    C1 5989   7.494   3.864   2.319
   70SAPC    HA 5990   7.560   3.807   2.255
   70SAPC    HB 5991   7.578   3.917   2.358
   70SAPC    C2 5992   7.433   3.752   2.400
   70SAPC    HS 5993   7.387   3.678   2.330
   70SAPC   O21 5994   7.339   3.803   2.495
   70SAPC   C21 5995   7.212   3.765   2.484
   70SAPC   O22 5996   7.153   3.727   2.386
   70SAPC   C22 5997   7.142   3.782   2.615
   70SAPC   H2R 5998   7.199   3.747   2.703
   70SAPC   H2S 5999   7.110   3.886   2.619
   70SAPC    C3 6000   7.544   3.669   2.472
   70SAPC    HX 6001   7.601   3.601   2.405
   70SAPC    HY 6002   7.492   3.586   2.502
   70SAPC   O31 6003   7.638   3.733   2.567
   70SAPC   C31 6004   7.582   3.782   2.674
   70SAPC   O32 6005   7.475   3.770   2.712
   70SAPC   C32 6006   7.628   3.881   2.772
   70SAPC   H2X 6007   7.642   3.934   2.691
   70SAPC   H2Y 6008   7.724   3.856   2.766
   70SAPC   C23 6009   7.014   3.710   2.627
   70SAPC   H3R 6010   7.042   3.604   2.615
   70SAPC   H3S 6011   6.944   3.741   2.549
   70SAPC   C24 6012   6.956   3.713   2.766
   70SAPC   H4R 6013   7.028   3.650   2.822
   70SAPC   H4S 6014   6.855   3.673   2.771
   70SAPC   C25 6015   6.937   3.842   2.829
   70SAPC   H5R 6016   6.902   3.922   2.765
   70SAPC   C26 6017   6.967   3.865   2.956
   70SAPC   H6R 6018   6.979   3.973   2.975
   70SAPC   C27 6019   7.039   3.775   3.054
   70SAPC   H7R 6020   7.129   3.750   3.012
   70SAPC   H7S 6021   7.009   3.668   3.044
   70SAPC   C28 6022   7.014   3.823   3.201
   70SAPC   H8R 6023   7.007   3.937   3.204
   70SAPC   C29 6024   7.075   3.791   3.322
   70SAPC   H9R 6025   7.086   3.849   3.404
   70SAPC  C210 6026   7.144   3.653   3.347
   70SAPC  H10R 6027   7.099   3.610   3.266
   70SAPC  H10S 6028   7.109   3.590   3.405
   70SAPC  C211 6029   7.300   3.699   3.320
   70SAPC  H11R 6030   7.334   3.704   3.219
   70SAPC  C212 6031   7.416   3.686   3.398
   70SAPC  H12R 6032   7.515   3.687   3.381
   70SAPC  C213 6033   7.436   3.728   3.544
   70SAPC  H13R 6034   7.371   3.703   3.599
   70SAPC  H13S 6035   7.464   3.812   3.514
   70SAPC  C214 6036   7.522   3.592   3.582
   70SAPC  H14R 6037   7.614   3.665   3.544
   70SAPC  C215 6038   7.562   3.516   3.724
   70SAPC  H15R 6039   7.626   3.438   3.736
   70SAPC  C216 6040   7.456   3.454   3.821
   70SAPC  H16R 6041   7.463   3.352   3.838
   70SAPC  H16S 6042   7.410   3.477   3.747
   70SAPC  C217 6043   7.521   3.534   3.962
   70SAPC  H17R 6044   7.620   3.506   3.992
   70SAPC  H17S 6045   7.464   3.498   4.046
   70SAPC  C218 6046   7.503   3.681   3.993
   70SAPC  H18R 6047   7.404   3.697   3.958
   70SAPC  H18S 6048   7.550   3.743   3.931
   70SAPC  C219 6049   7.508   3.778   4.116
   70SAPC  H19R 6050   7.599   3.757   4.164
   70SAPC  H19S 6051   7.414   3.746   4.163
   70SAPC  C220 6052   7.532   3.935   4.112
   70SAPC  H20R 6053   7.595   3.970   4.025
   70SAPC  H20S 6054   7.499   3.999   4.195
   70SAPC  H20T 6055   7.471   3.996   4.051
   70SAPC   C33 6056   7.545   3.953   2.903
   70SAPC   H3X 6057   7.499   3.903   2.977
   70SAPC   H3Y 6058   7.452   3.907   2.877
   70SAPC   C34 6059   7.534   4.109   2.958
   70SAPC   H4X 6060   7.580   4.153   2.874
   70SAPC   H4Y 6061   7.624   4.110   3.014
   70SAPC   C35 6062   7.408   4.215   3.016
   70SAPC   H5X 6063   7.349   4.179   2.952
   70SAPC   H5Y 6064   7.350   4.320   3.009
   70SAPC   C36 6065   7.440   4.214   3.145
   70SAPC   H6X 6066   7.544   4.209   3.170
   70SAPC   H6Y 6067   7.460   4.118   3.136
   70SAPC   C37 6068   7.331   4.256   3.228
   70SAPC   H7X 6069   7.228   4.284   3.218
   70SAPC   H7Y 6070   7.257   4.206   3.167
   70SAPC   C38 6071   7.371   4.261   3.376
   70SAPC   H8X 6072   7.289   4.324   3.395
   70SAPC   H8Y 6073   7.473   4.289   3.392
   70SAPC   C39 6074   7.366   4.166   3.494
   70SAPC   H9X 6075   7.457   4.101   3.513
   70SAPC   H9Y 6076   7.269   4.125   3.471
   70SAPC  C310 6077   7.361   4.173   3.627
   70SAPC  H10X 6078   7.287   4.237   3.657
   70SAPC  H10Y 6079   7.455   4.192   3.666
   70SAPC  C311 6080   7.343   4.073   3.693
   70SAPC  H11X 6081   7.352   4.115   3.798
   70SAPC  H11Y 6082   7.443   4.019   3.669
   70SAPC  C312 6083   7.209   4.012   3.667
   70SAPC  H12X 6084   7.187   3.924   3.727
   70SAPC  H12Y 6085   7.213   3.967   3.567
   70SAPC  C313 6086   7.111   4.119   3.698
   70SAPC  H13X 6087   7.111   4.172   3.599
   70SAPC  H13Y 6088   7.151   4.189   3.778
   70SAPC  C314 6089   6.979   4.062   3.732
   70SAPC  H14X 6090   6.977   3.959   3.691
   70SAPC  H14Y 6091   6.910   4.126   3.672
   70SAPC  C315 6092   6.934   4.074   3.880
   70SAPC  H15X 6093   6.833   4.033   3.886
   70SAPC  H15Y 6094   6.943   4.181   3.908
   70SAPC  C316 6095   7.013   4.003   3.988
   70SAPC  H16X 6096   7.096   4.076   3.969
   70SAPC  H16Y 6097   7.031   3.897   3.960
   70SAPC  C317 6098   6.986   4.011   4.146
   70SAPC  H17X 6099   6.893   3.955   4.153
   70SAPC  H17Y 6100   6.984   4.121   4.156
   70SAPC  C318 6101   7.076   3.959   4.269
   70SAPC  H18X 6102   7.050   3.954   4.374
   70SAPC  H18Y 6103   7.162   4.031   4.277
   70SAPC  H18Z 6104   7.112   3.855   4.248
   71SAPC     N 6105   6.586   1.622   2.114
   71SAPC   C12 6106   6.587   1.567   2.257
   71SAPC  H12A 6107   6.559   1.648   2.325
   71SAPC  H12B 6108   6.688   1.539   2.282
   71SAPC   C13 6109   6.702   1.716   2.105
   71SAPC  H13A 6110   6.791   1.665   2.139
   71SAPC  H13B 6111   6.721   1.753   2.004
   71SAPC  H13C 6112   6.687   1.804   2.168
   71SAPC   C14 6113   6.603   1.509   2.016
   71SAPC  H14A 6114   6.705   1.473   2.018
   71SAPC  H14B 6115   6.536   1.426   2.041
   71SAPC  H14C 6116   6.580   1.538   1.914
   71SAPC   C15 6117   6.457   1.694   2.084
   71SAPC  H15A 6118   6.374   1.623   2.087
   71SAPC  H15B 6119   6.433   1.769   2.160
   71SAPC  H15C 6120   6.457   1.747   1.989
   71SAPC   C11 6121   6.502   1.444   2.298
   71SAPC  H11A 6122   6.518   1.424   2.407
   71SAPC  H11B 6123   6.534   1.353   2.246
   71SAPC     P 6124   6.263   1.493   2.374
   71SAPC   O13 6125   6.322   1.600   2.457
   71SAPC   O14 6126   6.137   1.524   2.305
   71SAPC   O12 6127   6.368   1.461   2.264
   71SAPC   O11 6128   6.256   1.360   2.461
   71SAPC    C1 6129   6.200   1.245   2.397
   71SAPC    HA 6130   6.102   1.265   2.347
   71SAPC    HB 6131   6.271   1.209   2.319
   71SAPC    C2 6132   6.177   1.127   2.497
   71SAPC    HS 6133   6.112   1.053   2.445
   71SAPC   O21 6134   6.122   1.149   2.631
   71SAPC   C21 6135   5.981   1.169   2.618
   71SAPC   O22 6136   5.935   1.167   2.511
   71SAPC   C22 6137   5.886   1.243   2.740
   71SAPC   H2R 6138   5.851   1.174   2.816
   71SAPC   H2S 6139   5.978   1.182   2.779
   71SAPC    C3 6140   6.309   1.056   2.516
   71SAPC    HX 6141   6.331   1.001   2.421
   71SAPC    HY 6142   6.281   0.985   2.598
   71SAPC   O31 6143   6.424   1.136   2.551
   71SAPC   C31 6144   6.431   1.167   2.680
   71SAPC   O32 6145   6.355   1.131   2.768
   71SAPC   C32 6146   6.558   1.243   2.706
   71SAPC   H2X 6147   6.540   1.344   2.664
   71SAPC   H2Y 6148   6.643   1.197   2.652
   71SAPC   C23 6149   5.873   1.456   2.786
   71SAPC   H3R 6150   5.824   1.496   2.872
   71SAPC   H3S 6151   5.808   1.428   2.712
   71SAPC   C24 6152   6.039   1.575   2.847
   71SAPC   H4R 6153   5.987   1.655   2.882
   71SAPC   H4S 6154   6.126   1.603   2.776
   71SAPC   C25 6155   6.201   1.560   2.876
   71SAPC   H5R 6156   6.280   1.516   2.802
   71SAPC   C26 6157   6.234   1.541   3.001
   71SAPC   H6R 6158   6.327   1.486   3.017
   71SAPC   C27 6159   6.134   1.533   3.110
   71SAPC   H7R 6160   6.098   1.440   3.093
   71SAPC   H7S 6161   6.028   1.574   3.100
   71SAPC   C28 6162   6.191   1.483   3.237
   71SAPC   H8R 6163   6.178   1.568   3.301
   71SAPC   C29 6164   6.223   1.360   3.291
   71SAPC   H9R 6165   6.273   1.361   3.387
   71SAPC  C210 6166   6.216   1.214   3.248
   71SAPC  H10R 6167   6.140   1.169   3.179
   71SAPC  H10S 6168   6.191   1.150   3.336
   71SAPC  C211 6169   6.311   1.188   3.142
   71SAPC  H11R 6170   6.329   1.260   3.064
   71SAPC  C212 6171   6.348   1.067   3.132
   71SAPC  H12R 6172   6.416   1.038   3.051
   71SAPC  C213 6173   6.296   0.966   3.226
   71SAPC  H13R 6174   6.269   0.875   3.177
   71SAPC  H13S 6175   6.219   0.975   3.313
   71SAPC  C214 6176   6.377   0.936   3.343
   71SAPC  H14R 6177   6.421   0.828   3.348
   71SAPC  C215 6178   6.465   1.018   3.394
   71SAPC  H15R 6179   6.527   0.966   3.409
   71SAPC  C216 6180   6.478   1.159   3.423
   71SAPC  H16R 6181   6.483   1.208   3.324
   71SAPC  H16S 6182   6.590   1.152   3.445
   71SAPC  C217 6183   6.387   1.165   3.541
   71SAPC  H17R 6184   6.292   1.104   3.536
   71SAPC  H17S 6185   6.365   1.270   3.532
   71SAPC  C218 6186   6.421   1.149   3.693
   71SAPC  H18R 6187   6.515   1.197   3.722
   71SAPC  H18S 6188   6.422   1.043   3.712
   71SAPC  C219 6189   6.305   1.184   3.790
   71SAPC  H19R 6190   6.214   1.142   3.741
   71SAPC  H19S 6191   6.303   1.293   3.796
   71SAPC  C220 6192   6.300   1.131   3.934
   71SAPC  H20R 6193   6.370   1.188   3.995
   71SAPC  H20S 6194   6.317   1.021   3.942
   71SAPC  H20T 6195   6.208   1.156   3.988
   71SAPC   C33 6196   6.584   1.249   2.859
   71SAPC   H3X 6197   6.572   1.154   2.914
   71SAPC   H3Y 6198   6.512   1.324   2.901
   71SAPC   C34 6199   6.727   1.289   2.886
   71SAPC   H4X 6200   6.720   1.399   2.873
   71SAPC   H4Y 6201   6.794   1.238   2.815
   71SAPC   C35 6202   6.802   1.256   3.008
   71SAPC   H5X 6203   6.901   1.311   3.012
   71SAPC   H5Y 6204   6.826   1.149   3.013
   71SAPC   C36 6205   6.711   1.295   3.115
   71SAPC   H6X 6206   6.789   1.280   3.196
   71SAPC   H6Y 6207   6.630   1.235   3.150
   71SAPC   C37 6208   6.623   1.431   3.097
   71SAPC   H7X 6209   6.604   1.472   3.001
   71SAPC   H7Y 6210   6.728   1.492   3.084
   71SAPC   C38 6211   6.487   1.502   3.228
   71SAPC   H8X 6212   6.492   1.456   3.323
   71SAPC   H8Y 6213   6.510   1.401   3.263
   71SAPC   C39 6214   6.518   1.725   3.309
   71SAPC   H9X 6215   6.619   1.784   3.258
   71SAPC   H9Y 6216   6.631   1.778   3.333
   71SAPC  C310 6217   6.442   1.753   3.404
   71SAPC  H10X 6218   6.354   1.726   3.345
   71SAPC  H10Y 6219   6.470   1.862   3.394
   71SAPC  C311 6220   6.471   1.643   3.511
   71SAPC  H11X 6221   6.567   1.688   3.536
   71SAPC  H11Y 6222   6.512   1.543   3.511
   71SAPC  C312 6223   6.373   1.629   3.623
   71SAPC  H12X 6224   6.310   1.718   3.600
   71SAPC  H12Y 6225   6.419   1.622   3.727
   71SAPC  C313 6226   6.289   1.517   3.647
   71SAPC  H13X 6227   6.358   1.446   3.700
   71SAPC  H13Y 6228   6.272   1.505   3.538
   71SAPC  C314 6229   6.175   1.577   3.730
   71SAPC  H14X 6230   6.096   1.503   3.723
   71SAPC  H14Y 6231   6.143   1.673   3.681
   71SAPC  C315 6232   6.200   1.619   3.876
   71SAPC  H15X 6233   6.139   1.709   3.905
   71SAPC  H15Y 6234   6.304   1.650   3.888
   71SAPC  C316 6235   6.229   1.519   3.983
   71SAPC  H16X 6236   6.324   1.464   3.959
   71SAPC  H16Y 6237   6.142   1.452   3.979
   71SAPC  C317 6238   6.255   1.600   4.112
   71SAPC  H17X 6239   6.179   1.680   4.123
   71SAPC  H17Y 6240   6.356   1.646   4.111
   71SAPC  C318 6241   6.248   1.515   4.232
   71SAPC  H18X 6242   6.238   1.563   4.329
   71SAPC  H18Y 6243   6.347   1.466   4.239
   71SAPC  H18Z 6244   6.165   1.442   4.215
   72SAPC     N 6245   5.750   0.574   2.125
   72SAPC   C12 6246   5.897   0.588   2.163
   72SAPC  H12A 6247   5.911   0.673   2.228
   72SAPC  H12B 6248   5.956   0.608   2.073
   72SAPC   C13 6249   5.729   0.443   2.055
   72SAPC  H13A 6250   5.716   0.362   2.126
   72SAPC  H13B 6251   5.646   0.450   1.987
   72SAPC  H13C 6252   5.820   0.419   2.000
   72SAPC   C14 6253   5.659   0.588   2.245
   72SAPC  H14A 6254   5.704   0.538   2.331
   72SAPC  H14B 6255   5.647   0.692   2.271
   72SAPC  H14C 6256   5.560   0.548   2.229
   72SAPC   C15 6257   5.716   0.681   2.029
   72SAPC  H15A 6258   5.779   0.766   2.046
   72SAPC  H15B 6259   5.726   0.645   1.927
   72SAPC  H15C 6260   5.612   0.709   2.043
   72SAPC   C11 6261   5.967   0.469   2.232
   72SAPC  H11A 6262   6.069   0.496   2.266
   72SAPC  H11B 6263   5.982   0.393   2.155
   72SAPC     P 6264   5.921   0.268   2.390
   72SAPC   O13 6265   5.899   0.263   2.536
   72SAPC   O14 6266   5.847   0.173   2.304
   72SAPC   O12 6267   5.890   0.415   2.338
   72SAPC   O11 6268   6.074   0.252   2.349
   72SAPC    C1 6269   6.166   0.158   2.402
   72SAPC    HA 6270   6.120   0.064   2.439
   72SAPC    HB 6271   6.237   0.132   2.320
   72SAPC    C2 6272   6.260   0.221   2.505
   72SAPC    HS 6273   6.350   0.153   2.511
   72SAPC   O21 6274   6.199   0.234   2.629
   72SAPC   C21 6275   6.234   0.138   2.703
   72SAPC   O22 6276   6.254   0.022   2.668
   72SAPC   C22 6277   6.226   0.191   2.839
   72SAPC   H2R 6278   6.277   0.141   2.926
   72SAPC   H2S 6279   6.177   0.291   2.850
   72SAPC    C3 6280   6.311   0.362   2.472
   72SAPC    HX 6281   6.341   0.349   2.367
   72SAPC    HY 6282   6.398   0.383   2.537
   72SAPC   O31 6283   6.211   0.467   2.477
   72SAPC   C31 6284   6.177   0.520   2.595
   72SAPC   O32 6285   6.241   0.509   2.698
   72SAPC   C32 6286   6.050   0.606   2.578
   72SAPC   H2X 6287   5.971   0.540   2.536
   72SAPC   H2Y 6288   6.072   0.684   2.503
   72SAPC   C23 6289   6.105   0.126   2.862
   72SAPC   H3R 6290   6.146   0.014   2.870
   72SAPC   H3S 6291   6.026   0.129   2.782
   72SAPC   C24 6292   6.053   0.210   2.987
   72SAPC   H4R 6293   6.126   0.214   3.072
   72SAPC   H4S 6294   6.081   0.098   3.010
   72SAPC   C25 6295   5.896   0.287   3.010
   72SAPC   H5R 6296   5.865   0.346   2.927
   72SAPC   C26 6297   5.764   0.264   3.071
   72SAPC   H6R 6298   5.672   0.301   3.020
   72SAPC   C27 6299   5.686   0.158   3.152
   72SAPC   H7R 6300   5.702   0.045   3.149
   72SAPC   H7S 6301   5.593   0.133   3.108
   72SAPC   C28 6302   5.645   0.233   3.273
   72SAPC   H8R 6303   5.577   0.310   3.245
   72SAPC   C29 6304   5.645   0.211   3.401
   72SAPC   H9R 6305   5.558   0.239   3.460
   72SAPC  C210 6306   5.691   0.096   3.468
   72SAPC  H10R 6307   5.768   0.079   3.411
   72SAPC  H10S 6308   5.650  -0.007   3.482
   72SAPC  C211 6309   5.750   0.158   3.575
   72SAPC  H11R 6310   5.854   0.193   3.569
   72SAPC  C212 6311   5.706   0.111   3.682
   72SAPC  H12R 6312   5.786   0.142   3.745
   72SAPC  C213 6313   5.601   0.006   3.721
   72SAPC  H13R 6314   5.528   0.022   3.643
   72SAPC  H13S 6315   5.537   0.085   3.767
   72SAPC  C214 6316   5.615  -0.135   3.808
   72SAPC  H14R 6317   5.605  -0.225   3.746
   72SAPC  C215 6318   5.618  -0.169   3.948
   72SAPC  H15R 6319   5.574  -0.257   4.004
   72SAPC  C216 6320   5.603  -0.077   4.065
   72SAPC  H16R 6321   5.510  -0.063   4.112
   72SAPC  H16S 6322   5.546   0.001   4.024
   72SAPC  C217 6323   5.713  -0.017   4.140
   72SAPC  H17R 6324   5.713   0.081   4.198
   72SAPC  H17S 6325   5.744   0.090   4.142
   72SAPC  C218 6326   5.780  -0.101   4.193
   72SAPC  H18R 6327   5.785  -0.176   4.113
   72SAPC  H18S 6328   5.739  -0.115   4.299
   72SAPC  C219 6329   5.893  -0.014   4.168
   72SAPC  H19R 6330   5.923  -0.106   4.204
   72SAPC  H19S 6331   5.854   0.042   4.260
   72SAPC  C220 6332   5.949   0.103   4.065
   72SAPC  H20R 6333   5.904   0.207   4.086
   72SAPC  H20S 6334   6.045   0.070   4.036
   72SAPC  H20T 6335   6.017   0.185   4.092
   72SAPC   C33 6336   5.996   0.673   2.707
   72SAPC   H3X 6337   5.935   0.762   2.679
   72SAPC   H3Y 6338   6.080   0.711   2.769
   72SAPC   C34 6339   5.907   0.579   2.791
   72SAPC   H4X 6340   5.973   0.503   2.838
   72SAPC   H4Y 6341   5.835   0.525   2.726
   72SAPC   C35 6342   5.828   0.652   2.902
   72SAPC   H5X 6343   5.773   0.578   2.964
   72SAPC   H5Y 6344   5.750   0.715   2.855
   72SAPC   C36 6345   5.918   0.741   2.990
   72SAPC   H6X 6346   5.856   0.800   3.061
   72SAPC   H6Y 6347   5.971   0.815   2.927
   72SAPC   C37 6348   6.026   0.665   3.070
   72SAPC   H7X 6349   6.087   0.740   3.125
   72SAPC   H7Y 6350   6.094   0.610   3.002
   72SAPC   C38 6351   5.973   0.563   3.171
   72SAPC   H8X 6352   6.059   0.508   3.215
   72SAPC   H8Y 6353   5.914   0.489   3.119
   72SAPC   C39 6354   5.885   0.618   3.282
   72SAPC   H9X 6355   5.784   0.643   3.244
   72SAPC   H9Y 6356   5.932   0.712   3.318
   72SAPC  C310 6357   5.878   0.513   3.394
   72SAPC  H10X 6358   5.877   0.411   3.348
   72SAPC  H10Y 6359   5.786   0.525   3.454
   72SAPC  C311 6360   5.998   0.526   3.489
   72SAPC  H11X 6361   5.988   0.623   3.543
   72SAPC  H11Y 6362   6.093   0.528   3.430
   72SAPC  C312 6363   6.013   0.412   3.590
   72SAPC  H12X 6364   6.058   0.327   3.534
   72SAPC  H12Y 6365   5.915   0.380   3.631
   72SAPC  C313 6366   6.104   0.462   3.704
   72SAPC  H13X 6367   6.048   0.528   3.773
   72SAPC  H13Y 6368   6.182   0.524   3.654
   72SAPC  C314 6369   6.179   0.356   3.782
   72SAPC  H14X 6370   6.225   0.281   3.714
   72SAPC  H14Y 6371   6.116   0.303   3.857
   72SAPC  C315 6372   6.301   0.415   3.852
   72SAPC  H15X 6373   6.268   0.495   3.923
   72SAPC  H15Y 6374   6.364   0.470   3.779
   72SAPC  C316 6375   6.386   0.294   3.903
   72SAPC  H16X 6376   6.460   0.320   3.974
   72SAPC  H16Y 6377   6.439   0.233   3.833
   72SAPC  C317 6378   6.331   0.206   4.006
   72SAPC  H17X 6379   6.251   0.139   3.977
   72SAPC  H17Y 6380   6.270   0.294   4.023
   72SAPC  C318 6381   6.421   0.154   4.127
   72SAPC  H18X 6382   6.506   0.095   4.093
   72SAPC  H18Y 6383   6.365   0.088   4.196
   72SAPC  H18Z 6384   6.459   0.222   4.206
   73SLPC     N 6385   4.770   3.918   6.113
   73SLPC   C13 6386   4.663   3.997   6.176
   73SLPC  H13A 6387   4.606   4.050   6.099
   73SLPC  H13B 6388   4.588   3.933   6.222
   73SLPC  H13C 6389   4.706   4.064   6.247
   73SLPC   C14 6390   4.826   3.815   6.207
   73SLPC  H14A 6391   4.751   3.746   6.246
   73SLPC  H14B 6392   4.899   3.752   6.156
   73SLPC  H14C 6393   4.872   3.865   6.291
   73SLPC   C15 6394   4.875   3.993   6.042
   73SLPC  H15A 6395   4.932   3.921   5.982
   73SLPC  H15B 6396   4.827   4.061   5.971
   73SLPC  H15C 6397   4.936   4.042   6.114
   73SLPC   C12 6398   4.711   3.852   6.001
   73SLPC  H12A 6399   4.626   3.801   6.047
   73SLPC  H12B 6400   4.779   3.771   5.972
   73SLPC   C11 6401   4.647   3.902   5.870
   73SLPC  H11A 6402   4.625   3.815   5.802
   73SLPC  H11B 6403   4.715   3.965   5.811
   73SLPC     P 6404   4.442   4.065   5.826
   73SLPC   O13 6405   4.376   4.027   5.704
   73SLPC   O14 6406   4.354   4.133   5.922
   73SLPC   O12 6407   4.521   3.955   5.904
   73SLPC   O11 6408   4.559   4.155   5.774
   73SLPC    C1 6409   4.546   4.290   5.812
   73SLPC    HA 6410   4.448   4.333   5.779
   73SLPC    HB 6411   4.551   4.295   5.923
   73SLPC    C2 6412   4.666   4.370   5.760
   73SLPC    HS 6413   4.655   4.474   5.801
   73SLPC   O21 6414   4.675   4.368   5.616
   73SLPC   C21 6415   4.587   4.449   5.565
   73SLPC   O22 6416   4.524   4.531   5.628
   73SLPC   C22 6417   4.596   4.448   5.413
   73SLPC   H2R 6418   4.601   4.557   5.397
   73SLPC   H2S 6419   4.694   4.403   5.388
   73SLPC    C3 6420   4.796   4.311   5.817
   73SLPC    HX 6421   4.775   4.297   5.925
   73SLPC    HY 6422   4.875   4.387   5.813
   73SLPC   O31 6423   4.835   4.183   5.762
   73SLPC   C31 6424   4.904   4.178   5.649
   73SLPC   O32 6425   4.960   4.269   5.592
   73SLPC   C32 6426   4.906   4.037   5.596
   73SLPC   H2X 6427   4.866   3.964   5.668
   73SLPC   H2Y 6428   5.013   4.012   5.578
   73SLPC   C23 6429   4.481   4.379   5.329
   73SLPC   H3R 6430   4.382   4.421   5.347
   73SLPC   H3S 6431   4.482   4.273   5.353
   73SLPC   C24 6432   4.464   4.390   5.177
   73SLPC   H4R 6433   4.440   4.495   5.159
   73SLPC   H4S 6434   4.380   4.338   5.130
   73SLPC   C25 6435   4.573   4.329   5.097
   73SLPC   H5R 6436   4.665   4.274   5.127
   73SLPC   H5S 6437   4.632   4.393   5.150
   73SLPC   C26 6438   4.574   4.371   4.956
   73SLPC   H6R 6439   4.549   4.468   4.911
   73SLPC   H6S 6440   4.481   4.343   4.904
   73SLPC   C27 6441   4.711   4.320   4.916
   73SLPC   H7R 6442   4.663   4.341   4.818
   73SLPC   H7S 6443   4.709   4.215   4.900
   73SLPC   C28 6444   4.860   4.373   4.976
   73SLPC   H8R 6445   4.885   4.355   5.077
   73SLPC   H8S 6446   4.903   4.478   4.982
   73SLPC   C29 6447   4.984   4.349   4.922
   73SLPC   H9R 6448   4.988   4.426   4.842
   73SLPC  C210 6449   5.056   4.237   4.934
   73SLPC  H10R 6450   5.113   4.193   4.850
   73SLPC  C211 6451   5.009   4.128   5.011
   73SLPC  H11R 6452   5.013   4.187   5.103
   73SLPC  H11S 6453   5.089   4.054   4.999
   73SLPC  C212 6454   4.872   4.072   4.996
   73SLPC  H12R 6455   4.801   4.127   5.059
   73SLPC  C213 6456   4.830   3.972   4.918
   73SLPC  H13R 6457   4.722   3.948   4.920
   73SLPC  C214 6458   4.916   3.891   4.826
   73SLPC  H14R 6459   4.934   3.791   4.865
   73SLPC  H14S 6460   5.018   3.931   4.811
   73SLPC  C215 6461   4.848   3.864   4.694
   73SLPC  H15R 6462   4.746   3.820   4.706
   73SLPC  H15S 6463   4.912   3.793   4.640
   73SLPC  C216 6464   4.832   3.983   4.606
   73SLPC  H16R 6465   4.779   4.060   4.665
   73SLPC  H16S 6466   4.772   3.940   4.529
   73SLPC  C217 6467   4.953   4.031   4.528
   73SLPC  H17R 6468   5.001   3.959   4.461
   73SLPC  H17S 6469   5.025   4.037   4.611
   73SLPC  C218 6470   4.920   4.154   4.442
   73SLPC  H18R 6471   4.828   4.199   4.483
   73SLPC  H18S 6472   4.889   4.139   4.339
   73SLPC  H18T 6473   5.001   4.231   4.441
   73SLPC   C33 6474   4.839   4.030   5.457
   73SLPC   H3X 6475   4.864   3.927   5.429
   73SLPC   H3Y 6476   4.897   4.092   5.385
   73SLPC   C34 6477   4.684   4.045   5.454
   73SLPC   H4X 6478   4.647   4.143   5.489
   73SLPC   H4Y 6479   4.643   3.971   5.526
   73SLPC   C35 6480   4.620   4.028   5.314
   73SLPC   H5X 6481   4.676   3.951   5.272
   73SLPC   H5Y 6482   4.642   4.106   5.241
   73SLPC   C36 6483   4.471   4.002   5.294
   73SLPC   H6X 6484   4.409   4.074   5.349
   73SLPC   H6Y 6485   4.431   3.925   5.344
   73SLPC   C37 6486   4.428   3.938   5.161
   73SLPC   H7X 6487   4.342   3.869   5.168
   73SLPC   H7Y 6488   4.500   3.867   5.118
   73SLPC   C38 6489   4.391   4.059   5.083
   73SLPC   H8X 6490   4.487   4.110   5.065
   73SLPC   H8Y 6491   4.325   4.122   5.147
   73SLPC   C39 6492   4.327   4.035   4.952
   73SLPC   H9X 6493   4.255   4.118   4.933
   73SLPC   H9Y 6494   4.271   3.940   4.946
   73SLPC  C310 6495   4.441   4.039   4.855
   73SLPC  H10X 6496   4.522   3.964   4.872
   73SLPC  H10Y 6497   4.474   4.143   4.837
   73SLPC  C311 6498   4.393   3.999   4.729
   73SLPC  H11X 6499   4.293   4.026   4.719
   73SLPC  H11Y 6500   4.349   3.910   4.742
   73SLPC  C312 6501   4.480   4.028   4.613
   73SLPC  H12X 6502   4.405   4.008   4.534
   73SLPC  H12Y 6503   4.555   3.946   4.619
   73SLPC  C313 6504   4.558   4.162   4.587
   73SLPC  H13X 6505   4.624   4.158   4.498
   73SLPC  H13Y 6506   4.615   4.149   4.680
   73SLPC  C314 6507   4.503   4.309   4.613
   73SLPC  H14X 6508   4.604   4.327   4.643
   73SLPC  H14Y 6509   4.470   4.328   4.509
   73SLPC  C315 6510   4.514   4.450   4.564
   73SLPC  H15X 6511   4.609   4.450   4.505
   73SLPC  H15Y 6512   4.525   4.498   4.664
   73SLPC  C316 6513   4.380   4.513   4.512
   73SLPC  H16X 6514   4.412   4.598   4.560
   73SLPC  H16Y 6515   4.278   4.494   4.547
   73SLPC  C317 6516   4.377   4.560   4.377
   73SLPC  H17X 6517   4.290   4.580   4.309
   73SLPC  H17Y 6518   4.400   4.457   4.357
   73SLPC  C318 6519   4.509   4.622   4.365
   73SLPC  H18X 6520   4.524   4.728   4.358
   73SLPC  H18Y 6521   4.516   4.603   4.271
   73SLPC  H18Z 6522   4.597   4.561   4.373
   74SLPC     N 6523   2.250   4.230   6.134
   74SLPC   C13 6524   2.390   4.282   6.145
   74SLPC  H13A 6525   2.447   4.220   6.214
   74SLPC  H13B 6526   2.438   4.276   6.047
   74SLPC  H13C 6527   2.394   4.384   6.180
   74SLPC   C14 6528   2.172   4.311   6.036
   74SLPC  H14A 6529   2.082   4.354   6.078
   74SLPC  H14B 6530   2.231   4.387   5.986
   74SLPC  H14C 6531   2.138   4.246   5.954
   74SLPC   C15 6532   2.183   4.242   6.267
   74SLPC  H15A 6533   2.215   4.163   6.336
   74SLPC  H15B 6534   2.210   4.336   6.312
   74SLPC  H15C 6535   2.076   4.236   6.253
   74SLPC   C12 6536   2.256   4.081   6.091
   74SLPC  H12A 6537   2.156   4.046   6.065
   74SLPC  H12B 6538   2.290   4.022   6.175
   74SLPC   C11 6539   2.344   4.036   5.971
   74SLPC  H11A 6540   2.330   3.927   5.951
   74SLPC  H11B 6541   2.452   4.050   5.993
   74SLPC     P 6542   2.184   4.072   5.769
   74SLPC   O13 6543   2.190   3.934   5.715
   74SLPC   O14 6544   2.065   4.113   5.848
   74SLPC   O12 6545   2.313   4.108   5.855
   74SLPC   O11 6546   2.216   4.171   5.658
   74SLPC    C1 6547   2.222   4.311   5.671
   74SLPC    HA 6548   2.198   4.350   5.772
   74SLPC    HB 6549   2.313   4.351   5.624
   74SLPC    C2 6550   2.125   4.359   5.575
   74SLPC    HS 6551   2.039   4.369   5.647
   74SLPC   O21 6552   2.159   4.261   5.450
   74SLPC   C21 6553   2.042   4.247   5.390
   74SLPC   O22 6554   1.965   4.306   5.442
   74SLPC   C22 6555   1.964   4.188   5.265
   74SLPC   H2R 6556   2.049   4.175   5.204
   74SLPC   H2S 6557   1.925   4.100   5.312
   74SLPC    C3 6558   2.131   4.511   5.548
   74SLPC    HX 6559   2.151   4.571   5.638
   74SLPC    HY 6560   2.029   4.555   5.522
   74SLPC   O31 6561   2.234   4.513   5.453
   74SLPC   C31 6562   2.227   4.596   5.356
   74SLPC   O32 6563   2.158   4.697   5.355
   74SLPC   C32 6564   2.314   4.535   5.235
   74SLPC   H2X 6565   2.334   4.428   5.258
   74SLPC   H2Y 6566   2.395   4.603   5.258
   74SLPC   C23 6567   1.836   4.256   5.179
   74SLPC   H3R 6568   1.849   4.354   5.132
   74SLPC   H3S 6569   1.747   4.295   5.230
   74SLPC   C24 6570   1.793   4.174   5.059
   74SLPC   H4R 6571   1.700   4.123   5.074
   74SLPC   H4S 6572   1.873   4.099   5.042
   74SLPC   C25 6573   1.763   4.250   4.933
   74SLPC   H5R 6574   1.859   4.276   4.901
   74SLPC   H5S 6575   1.699   4.341   4.943
   74SLPC   C26 6576   1.745   4.165   4.810
   74SLPC   H6R 6577   1.662   4.102   4.838
   74SLPC   H6S 6578   1.837   4.105   4.790
   74SLPC   C27 6579   1.720   4.243   4.683
   74SLPC   H7R 6580   1.647   4.329   4.698
   74SLPC   H7S 6581   1.699   4.183   4.595
   74SLPC   C28 6582   1.838   4.308   4.632
   74SLPC   H8R 6583   1.836   4.354   4.730
   74SLPC   H8S 6584   1.788   4.375   4.566
   74SLPC   C29 6585   1.978   4.262   4.598
   74SLPC   H9R 6586   1.993   4.167   4.648
   74SLPC  C210 6587   2.089   4.327   4.551
   74SLPC  H10R 6588   2.185   4.282   4.570
   74SLPC  C211 6589   2.127   4.468   4.513
   74SLPC  H11R 6590   2.098   4.515   4.599
   74SLPC  H11S 6591   2.075   4.514   4.424
   74SLPC  C212 6592   2.246   4.541   4.562
   74SLPC  H12R 6593   2.240   4.617   4.645
   74SLPC  C213 6594   2.343   4.552   4.479
   74SLPC  H13R 6595   2.430   4.606   4.515
   74SLPC  C214 6596   2.344   4.501   4.342
   74SLPC  H14R 6597   2.280   4.410   4.331
   74SLPC  H14S 6598   2.449   4.480   4.319
   74SLPC  C215 6599   2.305   4.608   4.240
   74SLPC  H15R 6600   2.349   4.704   4.264
   74SLPC  H15S 6601   2.202   4.640   4.261
   74SLPC  C216 6602   2.357   4.570   4.098
   74SLPC  H16R 6603   2.467   4.582   4.100
   74SLPC  H16S 6604   2.327   4.639   4.020
   74SLPC  C217 6605   2.323   4.431   4.036
   74SLPC  H17R 6606   2.313   4.357   4.119
   74SLPC  H17S 6607   2.401   4.415   3.962
   74SLPC  C218 6608   2.211   4.407   3.936
   74SLPC  H18R 6609   2.192   4.500   3.876
   74SLPC  H18S 6610   2.147   4.401   4.026
   74SLPC  H18T 6611   2.125   4.341   3.928
   74SLPC   C33 6612   2.313   4.573   5.078
   74SLPC   H3X 6613   2.284   4.678   5.065
   74SLPC   H3Y 6614   2.237   4.549   5.006
   74SLPC   C34 6615   2.399   4.494   4.979
   74SLPC   H4X 6616   2.491   4.487   5.036
   74SLPC   H4Y 6617   2.405   4.559   4.889
   74SLPC   C35 6618   2.357   4.348   4.941
   74SLPC   H5X 6619   2.260   4.336   4.886
   74SLPC   H5Y 6620   2.346   4.294   5.038
   74SLPC   C36 6621   2.460   4.272   4.864
   74SLPC   H6X 6622   2.555   4.322   4.895
   74SLPC   H6Y 6623   2.445   4.288   4.755
   74SLPC   C37 6624   2.459   4.122   4.899
   74SLPC   H7X 6625   2.477   4.109   5.009
   74SLPC   H7Y 6626   2.543   4.075   4.845
   74SLPC   C38 6627   2.329   4.047   4.862
   74SLPC   H8X 6628   2.240   4.099   4.905
   74SLPC   H8Y 6629   2.330   3.943   4.902
   74SLPC   C39 6630   2.304   4.039   4.711
   74SLPC   H9X 6631   2.393   4.000   4.657
   74SLPC   H9Y 6632   2.286   4.143   4.676
   74SLPC  C310 6633   2.178   3.956   4.680
   74SLPC  H10X 6634   2.096   3.998   4.742
   74SLPC  H10Y 6635   2.194   3.850   4.711
   74SLPC  C311 6636   2.139   3.964   4.532
   74SLPC  H11X 6637   2.201   3.890   4.476
   74SLPC  H11Y 6638   2.165   4.067   4.498
   74SLPC  C312 6639   1.990   3.940   4.502
   74SLPC  H12X 6640   1.926   3.994   4.574
   74SLPC  H12Y 6641   1.973   3.833   4.523
   74SLPC  C313 6642   1.941   3.970   4.358
   74SLPC  H13X 6643   1.840   3.926   4.341
   74SLPC  H13Y 6644   2.009   3.924   4.283
   74SLPC  C314 6645   1.909   4.114   4.328
   74SLPC  H14X 6646   1.991   4.182   4.360
   74SLPC  H14Y 6647   1.813   4.141   4.379
   74SLPC  C315 6648   1.891   4.136   4.181
   74SLPC  H15X 6649   1.819   4.068   4.131
   74SLPC  H15Y 6650   1.993   4.119   4.142
   74SLPC  C316 6651   1.849   4.277   4.153
   74SLPC  H16X 6652   1.952   4.323   4.158
   74SLPC  H16Y 6653   1.793   4.328   4.233
   74SLPC  C317 6654   1.771   4.292   4.020
   74SLPC  H17X 6655   1.837   4.263   3.936
   74SLPC  H17Y 6656   1.756   4.396   3.998
   74SLPC  C318 6657   1.628   4.245   4.010
   74SLPC  H18X 6658   1.621   4.137   4.027
   74SLPC  H18Y 6659   1.589   4.270   3.908
   74SLPC  H18Z 6660   1.566   4.301   4.083
   75SLPC     N 6661   5.606   4.691   6.086
   75SLPC   C13 6662   5.725   4.716   6.174
   75SLPC  H13A 6663   5.706   4.795   6.245
   75SLPC  H13B 6664   5.748   4.625   6.228
   75SLPC  H13C 6665   5.812   4.739   6.112
   75SLPC   C14 6666   5.576   4.813   6.006
   75SLPC  H14A 6667   5.482   4.803   5.953
   75SLPC  H14B 6668   5.571   4.901   6.067
   75SLPC  H14C 6669   5.656   4.827   5.933
   75SLPC   C15 6670   5.492   4.656   6.176
   75SLPC  H15A 6671   5.477   4.730   6.253
   75SLPC  H15B 6672   5.398   4.646   6.122
   75SLPC  H15C 6673   5.517   4.562   6.225
   75SLPC   C12 6674   5.634   4.575   5.991
   75SLPC  H12A 6675   5.544   4.554   5.935
   75SLPC  H12B 6676   5.662   4.488   6.050
   75SLPC   C11 6677   5.742   4.584   5.882
   75SLPC  H11A 6678   5.713   4.662   5.807
   75SLPC  H11B 6679   5.738   4.485   5.829
   75SLPC     P 6680   5.990   4.617   5.829
   75SLPC   O13 6681   6.085   4.720   5.876
   75SLPC   O14 6682   6.043   4.482   5.799
   75SLPC   O12 6683   5.872   4.605   5.936
   75SLPC   O11 6684   5.910   4.665   5.702
   75SLPC    C1 6685   5.952   4.771   5.618
   75SLPC    HA 6686   5.952   4.867   5.674
   75SLPC    HB 6687   6.054   4.750   5.582
   75SLPC    C2 6688   5.861   4.791   5.494
   75SLPC    HS 6689   5.877   4.894   5.458
   75SLPC   O21 6690   5.725   4.776   5.533
   75SLPC   C21 6691   5.640   4.833   5.447
   75SLPC   O22 6692   5.667   4.911   5.359
   75SLPC   C22 6693   5.508   4.779   5.472
   75SLPC   H2R 6694   5.457   4.829   5.559
   75SLPC   H2S 6695   5.440   4.792   5.385
   75SLPC    C3 6696   5.895   4.692   5.379
   75SLPC    HX 6697   5.997   4.717   5.344
   75SLPC    HY 6698   5.825   4.707   5.295
   75SLPC   O31 6699   5.886   4.557   5.422
   75SLPC   C31 6700   5.997   4.497   5.462
   75SLPC   O32 6701   6.111   4.527   5.436
   75SLPC   C32 6702   5.961   4.375   5.530
   75SLPC   H2X 6703   5.893   4.392   5.616
   75SLPC   H2Y 6704   6.050   4.321   5.568
   75SLPC   C23 6705   5.541   4.631   5.500
   75SLPC   H3R 6706   5.449   4.645   5.545
   75SLPC   H3S 6707   5.575   4.589   5.596
   75SLPC   C24 6708   5.561   4.535   5.378
   75SLPC   H4R 6709   5.531   4.429   5.399
   75SLPC   H4S 6710   5.669   4.542   5.363
   75SLPC   C25 6711   5.504   4.575   5.241
   75SLPC   H5R 6712   5.521   4.679   5.213
   75SLPC   H5S 6713   5.400   4.587   5.247
   75SLPC   C26 6714   5.513   4.470   5.129
   75SLPC   H6R 6715   5.447   4.496   5.043
   75SLPC   H6S 6716   5.483   4.369   5.166
   75SLPC   C27 6717   5.646   4.469   5.064
   75SLPC   H7R 6718   5.650   4.377   5.003
   75SLPC   H7S 6719   5.718   4.463   5.148
   75SLPC   C28 6720   5.671   4.589   4.970
   75SLPC   H8R 6721   5.596   4.596   4.889
   75SLPC   H8S 6722   5.767   4.558   4.924
   75SLPC   C29 6723   5.686   4.723   5.036
   75SLPC   H9R 6724   5.594   4.775   5.067
   75SLPC  C210 6725   5.800   4.791   5.047
   75SLPC  H10R 6726   5.796   4.889   5.097
   75SLPC  C211 6727   5.933   4.743   4.994
   75SLPC  H11R 6728   5.929   4.683   4.902
   75SLPC  H11S 6729   5.989   4.688   5.073
   75SLPC  C212 6730   6.010   4.862   4.958
   75SLPC  H12R 6731   6.115   4.850   4.988
   75SLPC  C213 6732   5.979   4.968   4.885
   75SLPC  H13R 6733   6.013   5.062   4.930
   75SLPC  C214 6734   5.857   5.004   4.812
   75SLPC  H14R 6735   5.838   5.113   4.826
   75SLPC  H14S 6736   5.773   4.942   4.842
   75SLPC  C215 6737   5.879   4.981   4.664
   75SLPC  H15R 6738   5.947   5.062   4.642
   75SLPC  H15S 6739   5.792   5.015   4.608
   75SLPC  C216 6740   5.929   4.839   4.625
   75SLPC  H16R 6741   5.854   4.766   4.661
   75SLPC  H16S 6742   6.025   4.815   4.676
   75SLPC  C217 6743   5.958   4.824   4.474
   75SLPC  H17R 6744   6.015   4.731   4.454
   75SLPC  H17S 6745   6.023   4.908   4.441
   75SLPC  C218 6746   5.832   4.825   4.389
   75SLPC  H18R 6747   5.857   4.820   4.281
   75SLPC  H18S 6748   5.772   4.916   4.409
   75SLPC  H18T 6749   5.774   4.735   4.418
   75SLPC   C33 6750   5.893   4.301   5.420
   75SLPC   H3X 6751   5.793   4.310   5.377
   75SLPC   H3Y 6752   5.851   4.242   5.504
   75SLPC   C34 6753   5.995   4.247   5.316
   75SLPC   H4X 6754   5.963   4.157   5.270
   75SLPC   H4Y 6755   6.082   4.202   5.362
   75SLPC   C35 6756   5.994   4.313   5.181
   75SLPC   H5X 6757   6.017   4.415   5.212
   75SLPC   H5Y 6758   5.892   4.294   5.140
   75SLPC   C36 6759   6.099   4.276   5.079
   75SLPC   H6X 6760   6.076   4.182   5.041
   75SLPC   H6Y 6761   6.197   4.264   5.124
   75SLPC   C37 6762   6.086   4.315   4.934
   75SLPC   H7X 6763   6.168   4.266   4.877
   75SLPC   H7Y 6764   6.101   4.422   4.941
   75SLPC   C38 6765   5.954   4.270   4.866
   75SLPC   H8X 6766   5.865   4.269   4.933
   75SLPC   H8Y 6767   5.961   4.167   4.824
   75SLPC   C39 6768   5.930   4.362   4.748
   75SLPC   H9X 6769   6.027   4.404   4.719
   75SLPC   H9Y 6770   5.877   4.454   4.778
   75SLPC  C310 6771   5.864   4.294   4.629
   75SLPC  H10X 6772   5.762   4.263   4.663
   75SLPC  H10Y 6773   5.918   4.201   4.598
   75SLPC  C311 6774   5.842   4.390   4.512
   75SLPC  H11X 6775   5.927   4.434   4.457
   75SLPC  H11Y 6776   5.797   4.483   4.552
   75SLPC  C312 6777   5.762   4.327   4.401
   75SLPC  H12X 6778   5.678   4.273   4.450
   75SLPC  H12Y 6779   5.820   4.255   4.338
   75SLPC  C313 6780   5.712   4.439   4.315
   75SLPC  H13X 6781   5.798   4.487   4.262
   75SLPC  H13Y 6782   5.666   4.517   4.381
   75SLPC  C314 6783   5.608   4.388   4.219
   75SLPC  H14X 6784   5.529   4.329   4.268
   75SLPC  H14Y 6785   5.659   4.329   4.139
   75SLPC  C315 6786   5.533   4.502   4.163
   75SLPC  H15X 6787   5.486   4.568   4.239
   75SLPC  H15Y 6788   5.460   4.472   4.083
   75SLPC  C316 6789   5.626   4.593   4.100
   75SLPC  H16X 6790   5.663   4.537   4.009
   75SLPC  H16Y 6791   5.710   4.645   4.150
   75SLPC  C317 6792   5.525   4.694   4.062
   75SLPC  H17X 6793   5.467   4.640   3.984
   75SLPC  H17Y 6794   5.599   4.759   4.025
   75SLPC  C318 6795   5.457   4.812   4.130
   75SLPC  H18X 6796   5.532   4.865   4.192
   75SLPC  H18Y 6797   5.372   4.768   4.181
   75SLPC  H18Z 6798   5.419   4.888   4.056
   76SLPC     N 6799   6.569   3.228   6.073
   76SLPC   C13 6800   6.609   3.142   6.189
   76SLPC  H13A 6801   6.713   3.154   6.216
   76SLPC  H13B 6802   6.547   3.169   6.275
   76SLPC  H13C 6803   6.587   3.038   6.166
   76SLPC   C14 6804   6.573   3.370   6.118
   76SLPC  H14A 6805   6.531   3.437   6.043
   76SLPC  H14B 6806   6.517   3.381   6.210
   76SLPC  H14C 6807   6.677   3.399   6.134
   76SLPC   C15 6808   6.429   3.192   6.039
   76SLPC  H15A 6809   6.426   3.096   5.987
   76SLPC  H15B 6810   6.369   3.180   6.129
   76SLPC  H15C 6811   6.384   3.267   5.976
   76SLPC   C12 6812   6.655   3.207   5.948
   76SLPC  H12A 6813   6.611   3.264   5.867
   76SLPC  H12B 6814   6.646   3.103   5.920
   76SLPC   C11 6815   6.806   3.244   5.947
   76SLPC  H11A 6816   6.852   3.199   5.856
   76SLPC  H11B 6817   6.857   3.196   6.033
   76SLPC     P 6818   6.802   3.478   5.825
   76SLPC   O13 6819   6.693   3.570   5.864
   76SLPC   O14 6820   6.928   3.536   5.774
   76SLPC   O12 6821   6.828   3.385   5.951
   76SLPC   O11 6822   6.745   3.373   5.721
   76SLPC    C1 6823   6.638   3.401   5.633
   76SLPC    HA 6824   6.560   3.467   5.678
   76SLPC    HB 6825   6.676   3.450   5.540
   76SLPC    C2 6826   6.571   3.269   5.592
   76SLPC    HS 6827   6.536   3.212   5.681
   76SLPC   O21 6828   6.658   3.191   5.508
   76SLPC   C21 6829   6.722   3.092   5.565
   76SLPC   O22 6830   6.703   3.052   5.679
   76SLPC   C22 6831   6.820   3.029   5.463
   76SLPC   H2R 6832   6.923   3.050   5.494
   76SLPC   H2S 6833   6.810   2.921   5.466
   76SLPC    C3 6834   6.447   3.300   5.510
   76SLPC    HX 6835   6.371   3.359   5.567
   76SLPC    HY 6836   6.412   3.195   5.492
   76SLPC   O31 6837   6.483   3.363   5.387
   76SLPC   C31 6838   6.394   3.438   5.325
   76SLPC   O32 6839   6.277   3.453   5.350
   76SLPC   C32 6840   6.461   3.516   5.218
   76SLPC   H2X 6841   6.569   3.515   5.239
   76SLPC   H2Y 6842   6.421   3.620   5.226
   76SLPC   C23 6843   6.803   3.051   5.309
   76SLPC   H3R 6844   6.700   3.025   5.278
   76SLPC   H3S 6845   6.870   2.976   5.261
   76SLPC   C24 6846   6.852   3.187   5.258
   76SLPC   H4R 6847   6.923   3.230   5.332
   76SLPC   H4S 6848   6.763   3.254   5.259
   76SLPC   C25 6849   6.922   3.178   5.120
   76SLPC   H5R 6850   6.846   3.147   5.045
   76SLPC   H5S 6851   7.001   3.099   5.119
   76SLPC   C26 6852   6.987   3.309   5.068
   76SLPC   H6R 6853   7.072   3.341   5.132
   76SLPC   H6S 6854   6.909   3.389   5.076
   76SLPC   C27 6855   7.034   3.299   4.921
   76SLPC   H7R 6856   6.954   3.251   4.861
   76SLPC   H7S 6857   7.123   3.234   4.915
   76SLPC   C28 6858   7.061   3.439   4.859
   76SLPC   H8R 6859   7.139   3.491   4.919
   76SLPC   H8S 6860   6.967   3.494   4.878
   76SLPC   C29 6861   7.103   3.448   4.713
   76SLPC   H9R 6862   7.188   3.388   4.679
   76SLPC  C210 6863   7.042   3.522   4.619
   76SLPC  H10R 6864   7.095   3.540   4.524
   76SLPC  C211 6865   6.922   3.606   4.646
   76SLPC  H11R 6866   6.933   3.665   4.740
   76SLPC  H11S 6867   6.830   3.545   4.655
   76SLPC  C212 6868   6.911   3.699   4.532
   76SLPC  H12R 6869   6.973   3.787   4.552
   76SLPC  C213 6870   6.837   3.689   4.419
   76SLPC  H13R 6871   6.821   3.779   4.357
   76SLPC  C214 6872   6.745   3.582   4.376
   76SLPC  H14R 6873   6.762   3.492   4.439
   76SLPC  H14S 6874   6.768   3.565   4.269
   76SLPC  C215 6875   6.596   3.611   4.391
   76SLPC  H15R 6876   6.566   3.699   4.329
   76SLPC  H15S 6877   6.581   3.626   4.496
   76SLPC  C216 6878   6.507   3.489   4.368
   76SLPC  H16R 6879   6.548   3.388   4.391
   76SLPC  H16S 6880   6.550   3.489   4.267
   76SLPC  C217 6881   6.343   3.503   4.385
   76SLPC  H17R 6882   6.324   3.508   4.492
   76SLPC  H17S 6883   6.304   3.403   4.358
   76SLPC  C218 6884   6.248   3.612   4.302
   76SLPC  H18R 6885   6.145   3.632   4.328
   76SLPC  H18S 6886   6.239   3.638   4.195
   76SLPC  H18T 6887   6.321   3.697   4.281
   76SLPC   C33 6888   6.424   3.456   5.083
   76SLPC   H3X 6889   6.317   3.476   5.058
   76SLPC   H3Y 6890   6.439   3.345   5.083
   76SLPC   C34 6891   6.511   3.519   4.977
   76SLPC   H4X 6892   6.614   3.479   4.980
   76SLPC   H4Y 6893   6.516   3.628   5.000
   76SLPC   C35 6894   6.448   3.494   4.840
   76SLPC   H5X 6895   6.500   3.563   4.769
   76SLPC   H5Y 6896   6.339   3.519   4.848
   76SLPC   C36 6897   6.459   3.354   4.784
   76SLPC   H6X 6898   6.380   3.335   4.709
   76SLPC   H6Y 6899   6.445   3.282   4.868
   76SLPC   C37 6900   6.594   3.339   4.714
   76SLPC   H7X 6901   6.671   3.380   4.783
   76SLPC   H7Y 6902   6.595   3.403   4.623
   76SLPC   C38 6903   6.636   3.196   4.684
   76SLPC   H8X 6904   6.638   3.137   4.778
   76SLPC   H8Y 6905   6.741   3.201   4.645
   76SLPC   C39 6906   6.550   3.129   4.577
   76SLPC   H9X 6907   6.553   3.200   4.492
   76SLPC   H9Y 6908   6.444   3.123   4.609
   76SLPC  C310 6909   6.605   2.990   4.535
   76SLPC  H10X 6910   6.594   2.915   4.610
   76SLPC  H10Y 6911   6.714   2.994   4.534
   76SLPC  C311 6912   6.545   2.920   4.415
   76SLPC  H11X 6913   6.438   2.937   4.397
   76SLPC  H11Y 6914   6.585   2.824   4.374
   76SLPC  C312 6915   6.592   2.993   4.310
   76SLPC  H12X 6916   6.532   3.086   4.335
   76SLPC  H12Y 6917   6.550   2.952   4.213
   76SLPC  C313 6918   6.745   3.013   4.313
   76SLPC  H13X 6919   6.793   2.909   4.291
   76SLPC  H13Y 6920   6.793   3.070   4.392
   76SLPC  C314 6921   6.812   3.142   4.249
   76SLPC  H14X 6922   6.766   3.053   4.192
   76SLPC  H14Y 6923   6.891   3.086   4.188
   76SLPC  C315 6924   6.751   3.329   4.183
   76SLPC  H15X 6925   6.832   3.385   4.226
   76SLPC  H15Y 6926   6.663   3.380   4.188
   76SLPC  C316 6927   6.701   3.382   3.992
   76SLPC  H16X 6928   6.750   3.329   3.909
   76SLPC  H16Y 6929   6.723   3.477   3.954
   76SLPC  C317 6930   6.607   3.312   3.864
   76SLPC  H17X 6931   6.607   3.207   3.821
   76SLPC  H17Y 6932   6.617   3.351   3.760
   76SLPC  C318 6933   6.478   3.307   3.922
   76SLPC  H18X 6934   6.393   3.314   3.860
   76SLPC  H18Y 6935   6.508   3.385   3.989
   76SLPC  H18Z 6936   6.433   3.248   3.999
   77SLPC     N 6937   0.751   4.080   5.835
   77SLPC   C13 6938   0.782   3.945   5.892
   77SLPC  H13A 6939   0.757   3.869   5.819
   77SLPC  H13B 6940   0.888   3.932   5.916
   77SLPC  H13C 6941   0.724   3.929   5.983
   77SLPC   C14 6942   0.827   4.104   5.717
   77SLPC  H14A 6943   0.918   4.057   5.746
   77SLPC  H14B 6944   0.813   4.039   5.632
   77SLPC  H14C 6945   0.862   4.205   5.691
   77SLPC   C15 6946   0.768   4.193   5.927
   77SLPC  H15A 6947   0.845   4.182   6.002
   77SLPC  H15B 6948   0.803   4.277   5.868
   77SLPC  H15C 6949   0.683   4.217   5.989
   77SLPC   C12 6950   0.622   4.090   5.774
   77SLPC  H12A 6951   0.623   4.019   5.693
   77SLPC  H12B 6952   0.619   4.190   5.731
   77SLPC   C11 6953   0.509   4.066   5.868
   77SLPC  H11A 6954   0.518   3.961   5.904
   77SLPC  H11B 6955   0.417   4.077   5.808
   77SLPC     P 6956   0.419   4.150   6.099
   77SLPC   O13 6957   0.495   4.098   6.213
   77SLPC   O14 6958   0.342   4.275   6.116
   77SLPC   O12 6959   0.512   4.162   5.974
   77SLPC   O11 6960   0.328   4.033   6.052
   77SLPC    C1 6961   0.238   3.977   6.144
   77SLPC    HA 6962   0.279   3.919   6.226
   77SLPC    HB 6963   0.169   4.058   6.186
   77SLPC    C2 6964   0.156   3.887   6.060
   77SLPC    HS 6965   0.084   3.826   6.124
   77SLPC   O21 6966   0.203   3.807   5.953
   77SLPC   C21 6967   0.296   3.737   5.984
   77SLPC   O22 6968   0.315   3.692   6.098
   77SLPC   C22 6969   0.361   3.708   5.846
   77SLPC   H2R 6970   0.309   3.629   5.792
   77SLPC   H2S 6971   0.333   3.777   5.766
   77SLPC    C3 6972   0.084   3.991   6.002
   77SLPC    HX 6973   0.016   4.033   6.078
   77SLPC    HY 6974   0.026   3.913   5.974
   77SLPC   O31 6975   0.132   4.071   5.885
   77SLPC   C31 6976   0.101   4.097   5.755
   77SLPC   O32 6977   0.017   4.055   5.681
   77SLPC   C32 6978   0.167   4.214   5.704
   77SLPC   H2X 6979   0.253   4.233   5.768
   77SLPC   H2Y 6980   0.088   4.289   5.720
   77SLPC   C23 6981   0.506   3.671   5.867
   77SLPC   H3R 6982   0.521   3.571   5.913
   77SLPC   H3S 6983   0.539   3.743   5.945
   77SLPC   C24 6984   0.595   3.704   5.747
   77SLPC   H4R 6985   0.695   3.712   5.790
   77SLPC   H4S 6986   0.557   3.798   5.701
   77SLPC   C25 6987   0.612   3.610   5.629
   77SLPC   H5R 6988   0.627   3.507   5.667
   77SLPC   H5S 6989   0.697   3.617   5.560
   77SLPC   C26 6990   0.491   3.634   5.543
   77SLPC   H6R 6991   0.411   3.608   5.615
   77SLPC   H6S 6992   0.506   3.575   5.451
   77SLPC   C27 6993   0.454   3.751   5.454
   77SLPC   H7R 6994   0.547   3.760   5.392
   77SLPC   H7S 6995   0.422   3.821   5.532
   77SLPC   C28 6996   0.321   3.747   5.359
   77SLPC   H8R 6997   0.235   3.709   5.407
   77SLPC   H8S 6998   0.326   3.692   5.284
   77SLPC   C29 6999   0.296   3.874   5.279
   77SLPC   H9R 7000   0.207   3.907   5.348
   77SLPC  C210 7001   0.254   3.900   5.141
   77SLPC  H10R 7002   0.196   3.969   5.108
   77SLPC  C211 7003   0.299   3.830   5.009
   77SLPC  H11R 7004   0.392   3.775   5.022
   77SLPC  H11S 7005   0.354   3.878   4.929
   77SLPC  C212 7006   0.141   3.760   4.958
   77SLPC  H12R 7007   0.112   3.654   4.973
   77SLPC  C213 7008   0.077   3.770   4.841
   77SLPC  H13R 7009   0.028   3.675   4.800
   77SLPC  C214 7010   0.144   3.858   4.742
   77SLPC  H14R 7011   0.176   3.940   4.810
   77SLPC  H14S 7012   0.057   3.890   4.684
   77SLPC  C215 7013   0.274   3.849   4.652
   77SLPC  H15R 7014   0.369   3.805   4.688
   77SLPC  H15S 7015   0.304   3.952   4.652
   77SLPC  C216 7016   0.265   3.817   4.504
   77SLPC  H16R 7017   0.361   3.832   4.450
   77SLPC  H16S 7018   0.165   3.844   4.462
   77SLPC  C217 7019   0.267   3.682   4.469
   77SLPC  H17R 7020   0.168   3.658   4.520
   77SLPC  H17S 7021   0.362   3.620   4.485
   77SLPC  C218 7022   0.209   3.644   4.349
   77SLPC  H18R 7023   0.223   3.550   4.388
   77SLPC  H18S 7024   0.266   3.615   4.263
   77SLPC  H18T 7025   0.099   3.659   4.342
   77SLPC   C33 7026   0.188   4.188   5.553
   77SLPC   H3X 7027   0.213   4.285   5.507
   77SLPC   H3Y 7028   0.095   4.156   5.499
   77SLPC   C34 7029   0.298   4.085   5.529
   77SLPC   H4X 7030   0.283   4.044   5.431
   77SLPC   H4Y 7031   0.292   4.002   5.603
   77SLPC   C35 7032   0.441   4.137   5.530
   77SLPC   H5X 7033   0.508   4.050   5.548
   77SLPC   H5Y 7034   0.450   4.210   5.613
   77SLPC   C36 7035   0.492   4.197   5.398
   77SLPC   H6X 7036   0.454   4.300   5.382
   77SLPC   H6Y 7037   0.465   4.135   5.310
   77SLPC   C37 7038   0.643   4.200   5.405
   77SLPC   H7X 7039   0.687   4.097   5.405
   77SLPC   H7Y 7040   0.676   4.249   5.500
   77SLPC   C38 7041   0.707   4.278   5.293
   77SLPC   H8X 7042   0.808   4.251   5.325
   77SLPC   H8Y 7043   0.686   4.387   5.294
   77SLPC   C39 7044   0.691   4.241   5.147
   77SLPC   H9X 7045   0.776   4.289   5.091
   77SLPC   H9Y 7046   0.597   4.291   5.121
   77SLPC  C310 7047   0.678   4.092   5.122
   77SLPC  H10X 7048   0.593   4.045   5.171
   77SLPC  H10Y 7049   0.763   4.051   5.173
   77SLPC  C311 7050   0.667   4.043   4.978
   77SLPC  H11X 7051   0.568   4.060   4.936
   77SLPC  H11Y 7052   0.706   3.938   4.967
   77SLPC  C312 7053   0.736   4.122   4.877
   77SLPC  H12X 7054   0.819   4.140   4.950
   77SLPC  H12Y 7055   0.721   4.232   4.872
   77SLPC  C313 7056   0.745   4.034   4.740
   77SLPC  H13X 7057   0.807   3.948   4.739
   77SLPC  H13Y 7058   0.808   4.058   4.649
   77SLPC  C314 7059   0.631   4.056   4.653
   77SLPC  H14X 7060   0.542   4.016   4.697
   77SLPC  H14Y 7061   0.651   4.046   4.542
   77SLPC  C315 7062   0.598   4.195   4.649
   77SLPC  H15X 7063   0.699   4.226   4.633
   77SLPC  H15Y 7064   0.582   4.268   4.729
   77SLPC  C316 7065   0.505   4.206   4.535
   77SLPC  H16X 7066   0.536   4.155   4.439
   77SLPC  H16Y 7067   0.495   4.314   4.525
   77SLPC  C317 7068   0.378   4.151   4.554
   77SLPC  H17X 7069   0.345   4.182   4.651
   77SLPC  H17Y 7070   0.409   4.047   4.544
   77SLPC  C318 7071   0.282   4.185   4.451
   77SLPC  H18X 7072   0.284   4.286   4.407
   77SLPC  H18Y 7073   0.177   4.165   4.475
   77SLPC  H18Z 7074   0.324   4.122   4.371
   78SLPC     N 7075   3.477   0.643   6.111
   78SLPC   C13 7076   3.558   0.518   6.130
   78SLPC  H13A 7077   3.627   0.527   6.212
   78SLPC  H13B 7078   3.494   0.430   6.144
   78SLPC  H13C 7079   3.611   0.496   6.038
   78SLPC   C14 7080   3.566   0.755   6.073
   78SLPC  H14A 7081   3.595   0.813   6.160
   78SLPC  H14B 7082   3.656   0.724   6.022
   78SLPC  H14C 7083   3.515   0.823   6.005
   78SLPC   C15 7084   3.412   0.683   6.240
   78SLPC  H15A 7085   3.349   0.771   6.228
   78SLPC  H15B 7086   3.347   0.603   6.277
   78SLPC  H15C 7087   3.486   0.705   6.316
   78SLPC   C12 7088   3.369   0.617   6.005
   78SLPC  H12A 7089   3.326   0.711   5.971
   78SLPC  H12B 7090   3.288   0.563   6.054
   78SLPC   C11 7091   3.400   0.532   5.879
   78SLPC  H11A 7092   3.493   0.568   5.828
   78SLPC  H11B 7093   3.315   0.549   5.808
   78SLPC     P 7094   3.471   0.296   5.802
   78SLPC   O13 7095   3.606   0.343   5.768
   78SLPC   O14 7096   3.458   0.156   5.847
   78SLPC   O12 7097   3.409   0.393   5.913
   78SLPC   O11 7098   3.370   0.324   5.684
   78SLPC    C1 7099   3.243   0.259   5.694
   78SLPC    HA 7100   3.213   0.232   5.799
   78SLPC    HB 7101   3.167   0.333   5.661
   78SLPC    C2 7102   3.235   0.133   5.603
   78SLPC    HS 7103   3.240   0.042   5.667
   78SLPC   O21 7104   3.336   0.125   5.507
   78SLPC   C21 7105   3.354   0.004   5.458
   78SLPC   O22 7106   3.284  -0.094   5.465
   78SLPC   C22 7107   3.475   0.022   5.381
   78SLPC   H2R 7108   3.444   0.105   5.313
   78SLPC   H2S 7109   3.551   0.060   5.454
   78SLPC    C3 7110   3.108   0.130   5.522
   78SLPC    HX 7111   3.040   0.113   5.596
   78SLPC    HY 7112   3.103   0.037   5.462
   78SLPC   O31 7113   3.072   0.250   5.454
   78SLPC   C31 7114   3.065   0.237   5.323
   78SLPC   O32 7115   3.051   0.134   5.261
   78SLPC   C32 7116   3.095   0.372   5.263
   78SLPC   H2X 7117   3.013   0.441   5.290
   78SLPC   H2Y 7118   3.102   0.361   5.153
   78SLPC   C23 7119   3.519  -0.101   5.305
   78SLPC   H3R 7120   3.513  -0.193   5.368
   78SLPC   H3S 7121   3.629  -0.100   5.281
   78SLPC   C24 7122   3.441  -0.120   5.172
   78SLPC   H4R 7123   3.357  -0.184   5.167
   78SLPC   H4S 7124   3.519  -0.179   5.127
   78SLPC   C25 7125   3.407  -0.019   5.058
   78SLPC   H5R 7126   3.358   0.072   5.082
   78SLPC   H5S 7127   3.395  -0.070   4.959
   78SLPC   C26 7128   3.522   0.029   5.005
   78SLPC   H6R 7129   3.577  -0.069   5.002
   78SLPC   H6S 7130   3.589  -0.018   5.088
   78SLPC   C27 7131   3.571   0.186   4.908
   78SLPC   H7R 7132   3.529   0.276   4.947
   78SLPC   H7S 7133   3.558   0.179   4.802
   78SLPC   C28 7134   3.730   0.253   4.879
   78SLPC   H8R 7135   3.811   0.185   4.836
   78SLPC   H8S 7136   3.786   0.282   4.970
   78SLPC   C29 7137   3.751   0.382   4.824
   78SLPC   H9R 7138   3.688   0.449   4.875
   78SLPC  C210 7139   3.811   0.404   4.711
   78SLPC  H10R 7140   3.791   0.490   4.650
   78SLPC  C211 7141   3.859   0.295   4.633
   78SLPC  H11R 7142   3.894   0.201   4.676
   78SLPC  H11S 7143   3.948   0.336   4.581
   78SLPC  C212 7144   3.740   0.256   4.552
   78SLPC  H12R 7145   3.701   0.156   4.583
   78SLPC  C213 7146   3.718   0.301   4.428
   78SLPC  H13R 7147   3.641   0.249   4.370
   78SLPC  C214 7148   3.807   0.396   4.349
   78SLPC  H14R 7149   3.909   0.402   4.392
   78SLPC  H14S 7150   3.755   0.490   4.366
   78SLPC  C215 7151   3.827   0.393   4.193
   78SLPC  H15R 7152   3.900   0.317   4.155
   78SLPC  H15S 7153   3.876   0.483   4.151
   78SLPC  C216 7154   3.685   0.361   4.132
   78SLPC  H16R 7155   3.629   0.267   4.148
   78SLPC  H16S 7156   3.726   0.324   4.035
   78SLPC  C217 7157   3.599   0.484   4.168
   78SLPC  H17R 7158   3.668   0.555   4.135
   78SLPC  H17S 7159   3.597   0.517   4.270
   78SLPC  C218 7160   3.462   0.516   4.117
   78SLPC  H18R 7161   3.404   0.609   4.110
   78SLPC  H18S 7162   3.399   0.461   4.176
   78SLPC  H18T 7163   3.468   0.484   4.011
   78SLPC   C33 7164   3.227   0.422   5.325
   78SLPC   H3X 7165   3.308   0.349   5.303
   78SLPC   H3Y 7166   3.217   0.430   5.435
   78SLPC   C34 7167   3.267   0.557   5.270
   78SLPC   H4X 7168   3.368   0.584   5.306
   78SLPC   H4Y 7169   3.204   0.637   5.309
   78SLPC   C35 7170   3.258   0.555   5.120
   78SLPC   H5X 7171   3.155   0.558   5.077
   78SLPC   H5Y 7172   3.312   0.466   5.080
   78SLPC   C36 7173   3.329   0.669   5.064
   78SLPC   H6X 7174   3.425   0.678   5.113
   78SLPC   H6Y 7175   3.285   0.769   5.085
   78SLPC   C37 7176   3.358   0.622   4.922
   78SLPC   H7X 7177   3.418   0.535   4.900
   78SLPC   H7Y 7178   3.440   0.690   4.915
   78SLPC   C38 7179   3.235   0.630   4.828
   78SLPC   H8X 7180   3.208   0.728   4.863
   78SLPC   H8Y 7181   3.154   0.560   4.851
   78SLPC   C39 7182   3.250   0.643   4.677
   78SLPC   H9X 7183   3.292   0.740   4.671
   78SLPC   H9Y 7184   3.167   0.669   4.609
   78SLPC  C310 7185   3.351   0.551   4.614
   78SLPC  H10X 7186   3.453   0.564   4.661
   78SLPC  H10Y 7187   3.363   0.580   4.507
   78SLPC  C311 7188   3.327   0.413   4.643
   78SLPC  H11X 7189   3.227   0.389   4.602
   78SLPC  H11Y 7190   3.331   0.401   4.754
   78SLPC  C312 7191   3.443   0.343   4.580
   78SLPC  H12X 7192   3.534   0.375   4.636
   78SLPC  H12Y 7193   3.461   0.376   4.476
   78SLPC  C313 7194   3.422   0.196   4.597
   78SLPC  H13X 7195   3.380   0.180   4.698
   78SLPC  H13Y 7196   3.519   0.147   4.591
   78SLPC  C314 7197   3.337   0.129   4.492
   78SLPC  H14X 7198   3.244   0.185   4.477
   78SLPC  H14Y 7199   3.295   0.042   4.537
   78SLPC  C315 7200   3.416   0.079   4.369
   78SLPC  H15X 7201   3.497   0.010   4.393
   78SLPC  H15Y 7202   3.477   0.161   4.326
   78SLPC  C316 7203   3.324   0.029   4.256
   78SLPC  H16X 7204   3.230   0.084   4.245
   78SLPC  H16Y 7205   3.270  -0.062   4.271
   78SLPC  C317 7206   3.413   0.005   4.137
   78SLPC  H17X 7207   3.491  -0.068   4.162
   78SLPC  H17Y 7208   3.472   0.093   4.117
   78SLPC  C318 7209   3.341  -0.043   4.017
   78SLPC  H18X 7210   3.399  -0.056   3.925
   78SLPC  H18Y 7211   3.258   0.027   3.996
   78SLPC  H18Z 7212   3.306  -0.144   4.044
   79SLPC     N 7213   7.207   3.886   5.842
   79SLPC   C13 7214   7.105   3.901   5.744
   79SLPC  H13A 7215   7.152   3.958   5.664
   79SLPC  H13B 7216   7.070   3.804   5.716
   79SLPC  H13C 7217   7.032   3.966   5.794
   79SLPC   C14 7218   7.331   3.822   5.769
   79SLPC  H14A 7219   7.330   3.722   5.731
   79SLPC  H14B 7220   7.354   3.879   5.680
   79SLPC  H14C 7221   7.425   3.843   5.822
   79SLPC   C15 7222   7.177   3.788   5.951
   79SLPC  H15A 7223   7.254   3.792   6.027
   79SLPC  H15B 7224   7.081   3.807   5.994
   79SLPC  H15C 7225   7.185   3.688   5.910
   79SLPC   C12 7226   7.203   4.044   5.887
   79SLPC  H12A 7227   7.223   4.117   5.808
   79SLPC  H12B 7228   7.294   4.086   5.927
   79SLPC   C11 7229   7.144   4.094   6.015
   79SLPC  H11A 7230   7.213   4.177   6.055
   79SLPC  H11B 7231   7.139   4.015   6.093
   79SLPC     P 7232   6.960   4.256   6.043
   79SLPC   O13 7233   6.829   4.277   5.979
   79SLPC   O14 7234   6.965   4.211   6.184
   79SLPC   O12 7235   7.023   4.139   5.964
   79SLPC   O11 7236   7.066   4.370   6.019
   79SLPC    C1 7237   7.030   4.503   5.992
   79SLPC    HA 7238   6.921   4.524   6.006
   79SLPC    HB 7239   7.078   4.568   6.068
   79SLPC    C2 7240   7.088   4.534   5.851
   79SLPC    HS 7241   7.055   4.631   5.815
   79SLPC   O21 7242   7.073   4.439   5.746
   79SLPC   C21 7243   6.955   4.428   5.699
   79SLPC   O22 7244   6.854   4.465   5.750
   79SLPC   C22 7245   6.935   4.345   5.578
   79SLPC   H2R 7246   6.942   4.249   5.629
   79SLPC   H2S 7247   6.827   4.355   5.555
   79SLPC    C3 7248   7.235   4.554   5.852
   79SLPC    HX 7249   7.279   4.455   5.866
   79SLPC    HY 7250   7.264   4.610   5.942
   79SLPC   O31 7251   7.271   4.623   5.728
   79SLPC   C31 7252   7.293   4.540   5.625
   79SLPC   O32 7253   7.294   4.420   5.627
   79SLPC   C32 7254   7.311   4.610   5.495
   79SLPC   H2X 7255   7.412   4.640   5.481
   79SLPC   H2Y 7256   7.250   4.702   5.490
   79SLPC   C23 7257   7.023   4.352   5.452
   79SLPC   H3R 7258   7.122   4.319   5.490
   79SLPC   H3S 7259   7.048   4.451   5.414
   79SLPC   C24 7260   6.965   4.267   5.332
   79SLPC   H4R 7261   6.946   4.166   5.373
   79SLPC   H4S 7262   7.053   4.268   5.266
   79SLPC   C25 7263   6.838   4.303   5.242
   79SLPC   H5R 7264   6.750   4.317   5.308
   79SLPC   H5S 7265   6.796   4.219   5.184
   79SLPC   C26 7266   6.863   4.412   5.135
   79SLPC   H6R 7267   6.967   4.449   5.136
   79SLPC   H6S 7268   6.827   4.515   5.148
   79SLPC   C27 7269   6.772   4.426   5.018
   79SLPC   H7R 7270   6.670   4.445   5.049
   79SLPC   H7S 7271   6.769   4.324   4.977
   79SLPC   C28 7272   6.822   4.542   4.938
   79SLPC   H8R 7273   6.845   4.629   5.003
   79SLPC   H8S 7274   6.744   4.582   4.871
   79SLPC   C29 7275   6.926   4.443   4.890
   79SLPC   H9R 7276   7.017   4.448   4.957
   79SLPC  C210 7277   6.956   4.449   4.764
   79SLPC  H10R 7278   7.074   4.433   4.759
   79SLPC  C211 7279   6.876   4.578   4.694
   79SLPC  H11R 7280   6.777   4.547   4.672
   79SLPC  H11S 7281   6.952   4.504   4.659
   79SLPC  C212 7282   6.908   4.748   4.640
   79SLPC  H12R 7283   6.816   4.796   4.665
   79SLPC  C213 7284   7.039   4.828   4.569
   79SLPC  H13R 7285   7.049   4.924   4.596
   79SLPC  C214 7286   7.209   4.784   4.510
   79SLPC  H14R 7287   7.260   4.678   4.528
   79SLPC  H14S 7288   7.290   4.781   4.588
   79SLPC  C215 7289   7.277   4.745   4.378
   79SLPC  H15R 7290   7.387   4.726   4.398
   79SLPC  H15S 7291   7.264   4.835   4.322
   79SLPC  C216 7292   7.229   4.618   4.312
   79SLPC  H16R 7293   7.122   4.603   4.293
   79SLPC  H16S 7294   7.246   4.525   4.368
   79SLPC  C217 7295   7.220   4.632   4.169
   79SLPC  H17R 7296   7.170   4.541   4.127
   79SLPC  H17S 7297   7.323   4.646   4.134
   79SLPC  C218 7298   7.136   4.751   4.131
   79SLPC  H18R 7299   7.119   4.715   4.029
   79SLPC  H18S 7300   7.192   4.848   4.138
   79SLPC  H18T 7301   7.031   4.770   4.158
   79SLPC   C33 7302   7.351   4.521   5.376
   79SLPC   H3X 7303   7.270   4.450   5.362
   79SLPC   H3Y 7304   7.456   4.482   5.376
   79SLPC   C34 7305   7.355   4.594   5.251
   79SLPC   H4X 7306   7.427   4.668   5.218
   79SLPC   H4Y 7307   7.288   4.659   5.295
   79SLPC   C35 7308   7.307   4.520   5.135
   79SLPC   H5X 7309   7.297   4.581   5.050
   79SLPC   H5Y 7310   7.206   4.482   5.141
   79SLPC   C36 7311   7.418   4.476   5.051
   79SLPC   H6X 7312   7.480   4.416   5.116
   79SLPC   H6Y 7313   7.479   4.562   5.020
   79SLPC   C37 7314   7.374   4.449   4.907
   79SLPC   H7X 7315   7.454   4.459   4.838
   79SLPC   H7Y 7316   7.320   4.530   4.858
   79SLPC   C38 7317   7.291   4.327   4.893
   79SLPC   H8X 7318   7.261   4.327   4.787
   79SLPC   H8Y 7319   7.204   4.349   4.958
   79SLPC   C39 7320   7.362   4.198   4.932
   79SLPC   H9X 7321   7.393   4.210   5.038
   79SLPC   H9Y 7322   7.457   4.187   4.873
   79SLPC  C310 7323   7.277   4.071   4.908
   79SLPC  H10X 7324   7.331   3.986   4.952
   79SLPC  H10Y 7325   7.268   4.053   4.798
   79SLPC  C311 7326   7.135   4.067   4.969
   79SLPC  H11X 7327   7.079   4.156   4.934
   79SLPC  H11Y 7328   7.149   4.076   5.079
   79SLPC  C312 7329   7.056   3.936   4.940
   79SLPC  H12X 7330   7.102   3.848   4.991
   79SLPC  H12Y 7331   7.054   3.914   4.832
   79SLPC  C313 7332   6.911   3.934   4.986
   79SLPC  H13X 7333   6.897   3.986   5.084
   79SLPC  H13Y 7334   6.869   3.831   4.996
   79SLPC  C314 7335   6.824   3.998   4.881
   79SLPC  H14X 7336   6.860   4.102   4.861
   79SLPC  H14Y 7337   6.731   3.992   4.941
   79SLPC  C315 7338   6.776   3.929   4.754
   79SLPC  H15X 7339   6.683   3.871   4.775
   79SLPC  H15Y 7340   6.857   3.857   4.734
   79SLPC  C316 7341   6.758   4.025   4.633
   79SLPC  H16X 7342   6.833   4.106   4.634
   79SLPC  H16Y 7343   6.660   4.067   4.610
   79SLPC  C317 7344   6.768   3.955   4.503
   79SLPC  H17X 7345   6.693   3.872   4.500
   79SLPC  H17Y 7346   6.874   3.929   4.509
   79SLPC  C318 7347   6.766   4.028   4.373
   79SLPC  H18X 7348   6.750   3.954   4.291
   79SLPC  H18Y 7349   6.867   4.073   4.359
   79SLPC  H18Z 7350   6.687   4.105   4.372
   80SLPC     N 7351   5.794  -0.101   5.812
   80SLPC   C13 7352   5.860   0.004   5.869
   80SLPC  H13A 7353   5.855   0.069   5.785
   80SLPC  H13B 7354   5.807   0.057   5.950
   80SLPC  H13C 7355   5.967   0.016   5.885
   80SLPC   C14 7356   5.810  -0.191   5.927
   80SLPC  H14A 7357   5.915  -0.202   5.949
   80SLPC  H14B 7358   5.767  -0.148   6.019
   80SLPC  H14C 7359   5.780  -0.290   5.915
   80SLPC   C15 7360   5.859  -0.119   5.681
   80SLPC  H15A 7361   5.821  -0.208   5.641
   80SLPC  H15B 7362   5.862  -0.031   5.618
   80SLPC  H15C 7363   5.962  -0.148   5.690
   80SLPC   C12 7364   5.655  -0.069   5.779
   80SLPC  H12A 7365   5.616  -0.156   5.730
   80SLPC  H12B 7366   5.645   0.017   5.713
   80SLPC   C11 7367   5.577  -0.043   5.900
   80SLPC  H11A 7368   5.587  -0.135   5.962
   80SLPC  H11B 7369   5.471  -0.030   5.865
   80SLPC     P 7370   5.546   0.139   6.070
   80SLPC   O13 7371   5.417   0.098   6.032
   80SLPC   O14 7372   5.599   0.125   6.208
   80SLPC   O12 7373   5.631   0.070   5.967
   80SLPC   O11 7374   5.527   0.285   6.034
   80SLPC    C1 7375   5.625   0.372   5.999
   80SLPC    HA 7376   5.639   0.454   6.070
   80SLPC    HB 7377   5.716   0.326   6.007
   80SLPC    C2 7378   5.601   0.416   5.860
   80SLPC    HS 7379   5.507   0.473   5.864
   80SLPC   O21 7380   5.610   0.299   5.774
   80SLPC   C21 7381   5.513   0.303   5.688
   80SLPC   O22 7382   5.438   0.395   5.683
   80SLPC   C22 7383   5.513   0.192   5.586
   80SLPC   H2R 7384   5.613   0.150   5.580
   80SLPC   H2S 7385   5.436   0.117   5.615
   80SLPC    C3 7386   5.706   0.517   5.825
   80SLPC    HX 7387   5.789   0.461   5.856
   80SLPC    HY 7388   5.712   0.606   5.889
   80SLPC   O31 7389   5.693   0.540   5.686
   80SLPC   C31 7390   5.782   0.501   5.599
   80SLPC   O32 7391   5.900   0.478   5.616
   80SLPC   C32 7392   5.721   0.529   5.468
   80SLPC   H2X 7393   5.681   0.630   5.481
   80SLPC   H2Y 7394   5.630   0.483   5.430
   80SLPC   C23 7395   5.482   0.241   5.443
   80SLPC   H3R 7396   5.562   0.303   5.399
   80SLPC   H3S 7397   5.415   0.322   5.449
   80SLPC   C24 7398   5.421   0.132   5.354
   80SLPC   H4R 7399   5.349   0.160   5.274
   80SLPC   H4S 7400   5.360   0.061   5.412
   80SLPC   C25 7401   5.541   0.085   5.276
   80SLPC   H5R 7402   5.605   0.032   5.348
   80SLPC   H5S 7403   5.591   0.178   5.239
   80SLPC   C26 7404   5.513   0.013   5.145
   80SLPC   H6R 7405   5.607  -0.018   5.097
   80SLPC   H6S 7406   5.457   0.076   5.076
   80SLPC   C27 7407   5.429  -0.105   5.165
   80SLPC   H7R 7408   5.330  -0.084   5.208
   80SLPC   H7S 7409   5.482  -0.140   5.253
   80SLPC   C28 7410   5.428  -0.213   5.056
   80SLPC   H8R 7411   5.370  -0.304   5.078
   80SLPC   H8S 7412   5.534  -0.242   5.047
   80SLPC   C29 7413   5.362  -0.220   4.929
   80SLPC   H9R 7414   5.258  -0.221   4.927
   80SLPC  C210 7415   5.415  -0.174   4.821
   80SLPC  H10R 7416   5.365  -0.158   4.724
   80SLPC  C211 7417   5.536  -0.113   4.815
   80SLPC  H11R 7418   5.527  -0.206   4.759
   80SLPC  H11S 7419   5.590  -0.126   4.909
   80SLPC  C212 7420   5.583   0.000   4.733
   80SLPC  H12R 7421   5.499   0.049   4.686
   80SLPC  C213 7422   5.705   0.031   4.688
   80SLPC  H13R 7423   5.702   0.104   4.608
   80SLPC  C214 7424   5.841  -0.037   4.701
   80SLPC  H14R 7425   5.855  -0.139   4.732
   80SLPC  H14S 7426   5.922   0.006   4.759
   80SLPC  C215 7427   5.874  -0.070   4.562
   80SLPC  H15R 7428   5.819  -0.129   4.487
   80SLPC  H15S 7429   5.941  -0.151   4.572
   80SLPC  C216 7430   5.887   0.053   4.491
   80SLPC  H16R 7431   5.907   0.135   4.547
   80SLPC  H16S 7432   5.790   0.070   4.443
   80SLPC  C217 7433   5.996   0.043   4.409
   80SLPC  H17R 7434   5.951  -0.047   4.373
   80SLPC  H17S 7435   6.101   0.025   4.424
   80SLPC  C218 7436   6.024   0.136   4.321
   80SLPC  H18R 7437   6.027   0.226   4.350
   80SLPC  H18S 7438   5.945   0.199   4.279
   80SLPC  H18T 7439   6.095   0.094   4.240
   80SLPC   C33 7440   5.827   0.508   5.365
   80SLPC   H3X 7441   5.936   0.531   5.389
   80SLPC   H3Y 7442   5.808   0.566   5.275
   80SLPC   C34 7443   5.776   0.404   5.275
   80SLPC   H4X 7444   5.676   0.395   5.242
   80SLPC   H4Y 7445   5.801   0.344   5.363
   80SLPC   C35 7446   5.836   0.410   5.140
   80SLPC   H5X 7447   5.917   0.426   5.205
   80SLPC   H5Y 7448   5.850   0.508   5.095
   80SLPC   C36 7449   5.850   0.292   5.046
   80SLPC   H6X 7450   5.871   0.183   5.050
   80SLPC   H6Y 7451   5.952   0.276   5.052
   80SLPC   C37 7452   5.788   0.329   4.924
   80SLPC   H7X 7453   5.689   0.330   4.973
   80SLPC   H7Y 7454   5.806   0.241   4.857
   80SLPC   C38 7455   5.829   0.465   4.863
   80SLPC   H8X 7456   5.933   0.487   4.838
   80SLPC   H8Y 7457   5.811   0.553   4.925
   80SLPC   C39 7458   5.770   0.460   4.729
   80SLPC   H9X 7459   5.809   0.382   4.661
   80SLPC   H9Y 7460   5.794   0.549   4.677
   80SLPC  C310 7461   5.626   0.440   4.748
   80SLPC  H10X 7462   5.596   0.514   4.826
   80SLPC  H10Y 7463   5.602   0.337   4.781
   80SLPC  C311 7464   5.557   0.462   4.618
   80SLPC  H11X 7465   5.612   0.523   4.544
   80SLPC  H11Y 7466   5.463   0.509   4.650
   80SLPC  C312 7467   5.548   0.342   4.534
   80SLPC  H12X 7468   5.469   0.277   4.578
   80SLPC  H12Y 7469   5.646   0.291   4.547
   80SLPC  C313 7470   5.536   0.381   4.385
   80SLPC  H13X 7471   5.629   0.416   4.340
   80SLPC  H13Y 7472   5.476   0.465   4.348
   80SLPC  C314 7473   5.469   0.267   4.323
   80SLPC  H14X 7474   5.456   0.303   4.217
   80SLPC  H14Y 7475   5.368   0.222   4.345
   80SLPC  C315 7476   5.569   0.170   4.359
   80SLPC  H15X 7477   5.559   0.100   4.449
   80SLPC  H15Y 7478   5.675   0.205   4.352
   80SLPC  C316 7479   5.523   0.118   4.236
   80SLPC  H16X 7480   5.466   0.024   4.258
   80SLPC  H16Y 7481   5.567   0.023   4.284
   80SLPC  C317 7482   5.595   0.204   4.075
   80SLPC  H17X 7483   5.678   0.274   4.093
   80SLPC  H17Y 7484   5.527   0.270   4.036
   80SLPC  C318 7485   5.705   0.150   3.945
   80SLPC  H18X 7486   5.620   0.114   3.909
   80SLPC  H18Y 7487   5.716   0.044   3.912
   80SLPC  H18Z 7488   5.779   0.058   3.946
   81SLPC     N 7489   4.238   3.785   2.315
   81SLPC   C13 7490   4.213   3.925   2.279
   81SLPC  H13A 7491   4.112   3.933   2.243
   81SLPC  H13B 7492   4.228   3.984   2.369
   81SLPC  H13C 7493   4.287   3.956   2.207
   81SLPC   C14 7494   4.372   3.793   2.360
   81SLPC  H14A 7495   4.376   3.855   2.451
   81SLPC  H14B 7496   4.388   3.693   2.397
   81SLPC  H14C 7497   4.453   3.818   2.292
   81SLPC   C15 7498   4.248   3.688   2.203
   81SLPC  H15A 7499   4.285   3.593   2.240
   81SLPC  H15B 7500   4.153   3.677   2.156
   81SLPC  H15C 7501   4.325   3.722   2.132
   81SLPC   C12 7502   4.142   3.732   2.422
   81SLPC  H12A 7503   4.183   3.642   2.468
   81SLPC  H12B 7504   4.056   3.701   2.365
   81SLPC   C11 7505   4.088   3.825   2.536
   81SLPC  H11A 7506   3.997   3.775   2.577
   81SLPC  H11B 7507   4.059   3.924   2.496
   81SLPC     P 7508   4.141   3.899   2.788
   81SLPC   O13 7509   4.012   3.970   2.789
   81SLPC   O14 7510   4.168   3.789   2.883
   81SLPC   O12 7511   4.180   3.848   2.640
   81SLPC   O11 7512   4.244   4.013   2.817
   81SLPC    C1 7513   4.368   3.982   2.766
   81SLPC    HA 7514   4.405   3.880   2.799
   81SLPC    HB 7515   4.363   3.996   2.655
   81SLPC    C2 7516   4.473   4.068   2.820
   81SLPC    HS 7517   4.569   4.066   2.769
   81SLPC   O21 7518   4.474   4.020   2.955
   81SLPC   C21 7519   4.592   4.041   2.993
   81SLPC   O22 7520   4.658   4.130   2.944
   81SLPC   C22 7521   4.624   3.951   3.105
   81SLPC   H2R 7522   4.623   3.844   3.087
   81SLPC   H2S 7523   4.728   3.955   3.137
   81SLPC    C3 7524   4.446   4.211   2.794
   81SLPC    HX 7525   4.411   4.227   2.690
   81SLPC    HY 7526   4.547   4.255   2.786
   81SLPC   O31 7527   4.370   4.254   2.902
   81SLPC   C31 7528   4.252   4.295   2.873
   81SLPC   O32 7529   4.209   4.319   2.761
   81SLPC   C32 7530   4.199   4.341   3.006
   81SLPC   H2X 7531   4.169   4.441   2.991
   81SLPC   H2Y 7532   4.268   4.369   3.085
   81SLPC   C23 7533   4.512   3.986   3.200
   81SLPC   H3R 7534   4.419   3.937   3.172
   81SLPC   H3S 7535   4.484   4.096   3.194
   81SLPC   C24 7536   4.537   3.928   3.332
   81SLPC   H4R 7537   4.603   3.839   3.354
   81SLPC   H4S 7538   4.451   3.941   3.398
   81SLPC   C25 7539   4.612   4.024   3.383
   81SLPC   H5R 7540   4.724   3.994   3.365
   81SLPC   H5S 7541   4.697   3.968   3.446
   81SLPC   C26 7542   4.530   4.201   3.423
   81SLPC   H6R 7543   4.552   4.289   3.362
   81SLPC   H6S 7544   4.589   4.283   3.475
   81SLPC   C27 7545   4.442   4.260   3.545
   81SLPC   H7R 7546   4.512   4.235   3.626
   81SLPC   H7S 7547   4.364   4.194   3.529
   81SLPC   C28 7548   4.445   4.340   3.680
   81SLPC   H8R 7549   4.402   4.418   3.630
   81SLPC   H8S 7550   4.523   4.399   3.732
   81SLPC   C29 7551   4.332   4.339   3.761
   81SLPC   H9R 7552   4.240   4.319   3.714
   81SLPC  C210 7553   4.357   4.332   3.883
   81SLPC  H10R 7554   4.279   4.331   3.956
   81SLPC  C211 7555   4.494   4.323   3.930
   81SLPC  H11R 7556   4.599   4.316   3.883
   81SLPC  H11S 7557   4.475   4.232   3.967
   81SLPC  C212 7558   4.503   4.388   4.042
   81SLPC  H12R 7559   4.576   4.454   4.010
   81SLPC  C213 7560   4.432   4.384   4.148
   81SLPC  H13R 7561   4.470   4.459   4.201
   81SLPC  C214 7562   4.311   4.308   4.185
   81SLPC  H14R 7563   4.326   4.210   4.138
   81SLPC  H14S 7564   4.234   4.371   4.135
   81SLPC  C215 7565   4.252   4.284   4.323
   81SLPC  H15R 7566   4.149   4.248   4.323
   81SLPC  H15S 7567   4.236   4.372   4.386
   81SLPC  C216 7568   4.331   4.195   4.406
   81SLPC  H16R 7569   4.437   4.223   4.377
   81SLPC  H16S 7570   4.353   4.099   4.363
   81SLPC  C217 7571   4.267   4.213   4.553
   81SLPC  H17R 7572   4.254   4.312   4.598
   81SLPC  H17S 7573   4.326   4.188   4.638
   81SLPC  C218 7574   4.145   4.145   4.599
   81SLPC  H18R 7575   4.161   4.043   4.559
   81SLPC  H18S 7576   4.067   4.212   4.560
   81SLPC  H18T 7577   4.150   4.149   4.713
   81SLPC   C33 7578   4.117   4.233   3.067
   81SLPC   H3X 7579   4.179   4.139   3.065
   81SLPC   H3Y 7580   4.028   4.221   3.003
   81SLPC   C34 7581   4.082   4.247   3.213
   81SLPC   H4X 7582   4.011   4.323   3.240
   81SLPC   H4Y 7583   4.166   4.267   3.281
   81SLPC   C35 7584   3.985   4.138   3.243
   81SLPC   H5X 7585   4.031   4.039   3.231
   81SLPC   H5Y 7586   3.900   4.147   3.170
   81SLPC   C36 7587   3.932   4.153   3.382
   81SLPC   H6X 7588   3.877   4.060   3.379
   81SLPC   H6Y 7589   3.853   4.228   3.386
   81SLPC   C37 7590   4.031   4.148   3.497
   81SLPC   H7X 7591   3.983   4.175   3.594
   81SLPC   H7Y 7592   4.111   4.223   3.479
   81SLPC   C38 7593   4.091   4.007   3.507
   81SLPC   H8X 7594   4.140   3.985   3.409
   81SLPC   H8Y 7595   4.013   3.932   3.529
   81SLPC   C39 7596   4.195   3.996   3.614
   81SLPC   H9X 7597   4.244   4.092   3.601
   81SLPC   H9Y 7598   4.270   3.915   3.595
   81SLPC  C310 7599   4.141   3.985   3.756
   81SLPC  H10X 7600   4.062   3.909   3.759
   81SLPC  H10Y 7601   4.106   4.086   3.787
   81SLPC  C311 7602   4.242   3.935   3.854
   81SLPC  H11X 7603   4.271   4.035   3.894
   81SLPC  H11Y 7604   4.318   3.874   3.798
   81SLPC  C312 7605   4.210   3.864   3.983
   81SLPC  H12X 7606   4.186   3.760   3.952
   81SLPC  H12Y 7607   4.129   3.923   4.028
   81SLPC  C313 7608   4.323   3.852   4.083
   81SLPC  H13X 7609   4.289   3.802   4.176
   81SLPC  H13Y 7610   4.357   3.953   4.113
   81SLPC  C314 7611   4.426   3.762   4.013
   81SLPC  H14X 7612   4.453   3.805   3.918
   81SLPC  H14Y 7613   4.389   3.661   3.996
   81SLPC  C315 7614   4.539   3.704   4.082
   81SLPC  H15X 7615   4.503   3.677   4.184
   81SLPC  H15Y 7616   4.618   3.752   4.115
   81SLPC  C316 7617   4.696   3.693   4.042
   81SLPC  H16X 7618   4.747   3.742   3.962
   81SLPC  H16Y 7619   4.660   3.625   3.966
   81SLPC  C317 7620   4.806   3.689   4.161
   81SLPC  H17X 7621   4.861   3.598   4.137
   81SLPC  H17Y 7622   4.759   3.667   4.254
   81SLPC  C318 7623   4.885   3.805   4.233
   81SLPC  H18X 7624   4.839   3.862   4.315
   81SLPC  H18Y 7625   4.911   3.869   4.149
   81SLPC  H18Z 7626   4.975   3.765   4.286
   82SLPC     N 7627   3.053   3.216   2.413
   82SLPC   C13 7628   3.126   3.218   2.544
   82SLPC  H13A 7629   3.166   3.121   2.571
   82SLPC  H13B 7630   3.203   3.293   2.548
   82SLPC  H13C 7631   3.053   3.242   2.622
   82SLPC   C14 7632   2.951   3.106   2.425
   82SLPC  H14A 7633   2.872   3.113   2.352
   82SLPC  H14B 7634   3.003   3.011   2.412
   82SLPC  H14C 7635   2.907   3.105   2.524
   82SLPC   C15 7636   3.144   3.175   2.302
   82SLPC  H15A 7637   3.182   3.074   2.318
   82SLPC  H15B 7638   3.088   3.174   2.209
   82SLPC  H15C 7639   3.226   3.245   2.292
   82SLPC   C12 7640   2.993   3.353   2.382
   82SLPC  H12A 7641   2.952   3.346   2.281
   82SLPC  H12B 7642   3.070   3.429   2.378
   82SLPC   C11 7643   2.882   3.416   2.470
   82SLPC  H11A 7644   2.799   3.348   2.458
   82SLPC  H11B 7645   2.850   3.512   2.423
   82SLPC     P 7646   2.817   3.522   2.701
   82SLPC   O13 7647   2.725   3.596   2.612
   82SLPC   O14 7648   2.757   3.452   2.816
   82SLPC   O12 7649   2.913   3.429   2.611
   82SLPC   O11 7650   2.924   3.606   2.777
   82SLPC    C1 7651   2.866   3.690   2.875
   82SLPC    HA 7652   2.839   3.766   2.808
   82SLPC    HB 7653   2.772   3.660   2.929
   82SLPC    C2 7654   2.965   3.734   2.978
   82SLPC    HS 7655   3.063   3.746   2.928
   82SLPC   O21 7656   2.970   3.642   3.082
   82SLPC   C21 7657   3.023   3.529   3.054
   82SLPC   O22 7658   3.098   3.500   2.962
   82SLPC   C22 7659   2.997   3.447   3.176
   82SLPC   H2R 7660   3.071   3.365   3.172
   82SLPC   H2S 7661   3.005   3.511   3.267
   82SLPC    C3 7662   2.929   3.863   3.046
   82SLPC    HX 7663   2.932   3.944   2.978
   82SLPC    HY 7664   3.011   3.873   3.120
   82SLPC   O31 7665   2.799   3.864   3.102
   82SLPC   C31 7666   2.800   3.947   3.201
   82SLPC   O32 7667   2.892   4.017   3.238
   82SLPC   C32 7668   2.668   3.949   3.263
   82SLPC   H2X 7669   2.588   3.899   3.205
   82SLPC   H2Y 7670   2.647   4.056   3.249
   82SLPC   C23 7671   2.862   3.384   3.176
   82SLPC   H3R 7672   2.858   3.310   3.259
   82SLPC   H3S 7673   2.860   3.333   3.080
   82SLPC   C24 7674   2.752   3.489   3.195
   82SLPC   H4R 7675   2.748   3.557   3.107
   82SLPC   H4S 7676   2.772   3.546   3.287
   82SLPC   C25 7677   2.618   3.425   3.208
   82SLPC   H5R 7678   2.628   3.339   3.278
   82SLPC   H5S 7679   2.600   3.400   3.102
   82SLPC   C26 7680   2.494   3.509   3.226
   82SLPC   H6R 7681   2.398   3.452   3.221
   82SLPC   H6S 7682   2.489   3.575   3.137
   82SLPC   C27 7683   2.500   3.592   3.350
   82SLPC   H7R 7684   2.431   3.676   3.327
   82SLPC   H7S 7685   2.603   3.622   3.373
   82SLPC   C28 7686   2.443   3.531   3.474
   82SLPC   H8R 7687   2.357   3.476   3.443
   82SLPC   H8S 7688   2.405   3.609   3.542
   82SLPC   C29 7689   2.519   3.429   3.547
   82SLPC   H9R 7690   2.534   3.342   3.507
   82SLPC  C210 7691   2.613   3.416   3.632
   82SLPC  H10R 7692   2.631   3.330   3.695
   82SLPC  C211 7693   2.664   3.531   3.674
   82SLPC  H11R 7694   2.685   3.518   3.782
   82SLPC  H11S 7695   2.570   3.596   3.670
   82SLPC  C212 7696   2.776   3.589   3.592
   82SLPC  H12R 7697   2.759   3.688   3.549
   82SLPC  C213 7698   2.896   3.540   3.584
   82SLPC  H13R 7699   2.966   3.602   3.529
   82SLPC  C214 7700   2.944   3.415   3.652
   82SLPC  H14R 7701   3.000   3.363   3.572
   82SLPC  H14S 7702   2.860   3.348   3.677
   82SLPC  C215 7703   3.037   3.425   3.777
   82SLPC  H15R 7704   3.121   3.497   3.772
   82SLPC  H15S 7705   3.082   3.326   3.795
   82SLPC  C216 7706   2.968   3.471   3.902
   82SLPC  H16R 7707   2.870   3.422   3.913
   82SLPC  H16S 7708   2.953   3.575   3.882
   82SLPC  C217 7709   3.053   3.458   4.028
   82SLPC  H17R 7710   3.126   3.541   4.043
   82SLPC  H17S 7711   3.112   3.365   4.012
   82SLPC  C218 7712   2.962   3.439   4.148
   82SLPC  H18R 7713   2.911   3.533   4.177
   82SLPC  H18S 7714   3.016   3.402   4.234
   82SLPC  H18T 7715   2.887   3.361   4.126
   82SLPC   C33 7716   2.685   3.904   3.411
   82SLPC   H3X 7717   2.682   3.797   3.423
   82SLPC   H3Y 7718   2.581   3.909   3.443
   82SLPC   C34 7719   2.801   3.982   3.495
   82SLPC   H4X 7720   2.819   4.082   3.450
   82SLPC   H4Y 7721   2.883   3.910   3.506
   82SLPC   C35 7722   2.787   4.056   3.632
   82SLPC   H5X 7723   2.767   3.955   3.671
   82SLPC   H5Y 7724   2.707   4.133   3.632
   82SLPC   C36 7725   2.857   4.086   3.763
   82SLPC   H6X 7726   2.870   4.192   3.742
   82SLPC   H6Y 7727   2.945   4.025   3.773
   82SLPC   C37 7728   2.781   4.087   3.901
   82SLPC   H7X 7729   2.672   4.112   3.910
   82SLPC   H7Y 7730   2.844   4.160   3.945
   82SLPC   C38 7731   2.817   3.985   4.008
   82SLPC   H8X 7732   2.908   3.934   3.980
   82SLPC   H8Y 7733   2.733   3.960   3.946
   82SLPC   C39 7734   2.756   3.945   4.146
   82SLPC   H9X 7735   2.709   3.841   4.174
   82SLPC   H9Y 7736   2.675   4.015   4.176
   82SLPC  C310 7737   2.852   3.899   4.234
   82SLPC  H10X 7738   2.792   3.872   4.315
   82SLPC  H10Y 7739   2.853   4.005   4.236
   82SLPC  C311 7740   2.984   3.832   4.204
   82SLPC  H11X 7741   3.035   3.909   4.142
   82SLPC  H11Y 7742   2.971   3.737   4.153
   82SLPC  C312 7743   3.062   3.799   4.333
   82SLPC  H12X 7744   3.060   3.902   4.372
   82SLPC  H12Y 7745   3.171   3.795   4.328
   82SLPC  C313 7746   3.000   3.670   4.411
   82SLPC  H13X 7747   3.041   3.585   4.368
   82SLPC  H13Y 7748   2.902   3.660   4.364
   82SLPC  C314 7749   3.002   3.626   4.570
   82SLPC  H14X 7750   2.949   3.683   4.643
   82SLPC  H14Y 7751   3.092   3.683   4.586
   82SLPC  C315 7752   2.876   3.592   4.675
   82SLPC  H15X 7753   2.894   3.566   4.782
   82SLPC  H15Y 7754   2.906   3.511   4.613
   82SLPC  C316 7755   2.720   3.635   4.676
   82SLPC  H16X 7756   2.673   3.656   4.571
   82SLPC  H16Y 7757   2.696   3.720   4.740
   82SLPC  C317 7758   2.625   3.568   4.745
   82SLPC  H17X 7759   2.512   3.562   4.726
   82SLPC  H17Y 7760   2.685   3.515   4.827
   82SLPC  C318 7761   2.640   3.488   4.649
   82SLPC  H18X 7762   2.733   3.431   4.674
   82SLPC  H18Y 7763   2.602   3.495   4.542
   82SLPC  H18Z 7764   2.586   3.414   4.662
   83SLPC     N 7765   3.760   5.448   2.348
   83SLPC   C13 7766   3.708   5.335   2.267
   83SLPC  H13A 7767   3.687   5.251   2.333
   83SLPC  H13B 7768   3.614   5.363   2.220
   83SLPC  H13C 7769   3.777   5.305   2.189
   83SLPC   C14 7770   3.802   5.556   2.254
   83SLPC  H14A 7771   3.716   5.589   2.196
   83SLPC  H14B 7772   3.843   5.643   2.305
   83SLPC  H14C 7773   3.879   5.516   2.190
   83SLPC   C15 7774   3.881   5.402   2.422
   83SLPC  H15A 7775   3.902   5.469   2.505
   83SLPC  H15B 7776   3.864   5.304   2.466
   83SLPC  H15C 7777   3.965   5.396   2.354
   83SLPC   C12 7778   3.653   5.500   2.445
   83SLPC  H12A 7779   3.580   5.557   2.388
   83SLPC  H12B 7780   3.697   5.571   2.515
   83SLPC   C11 7781   3.572   5.399   2.531
   83SLPC  H11A 7782   3.511   5.333   2.466
   83SLPC  H11B 7783   3.499   5.458   2.592
   83SLPC     P 7784   3.679   5.371   2.762
   83SLPC   O13 7785   3.709   5.515   2.756
   83SLPC   O14 7786   3.567   5.324   2.847
   83SLPC   O12 7787   3.656   5.319   2.613
   83SLPC   O11 7788   3.811   5.295   2.793
   83SLPC    C1 7789   3.829   5.165   2.742
   83SLPC    HA 7790   3.734   5.104   2.744
   83SLPC    HB 7791   3.866   5.163   2.638
   83SLPC    C2 7792   3.925   5.095   2.835
   83SLPC    HS 7793   3.917   4.998   2.792
   83SLPC   O21 7794   3.873   5.120   2.969
   83SLPC   C21 7795   3.920   5.038   3.057
   83SLPC   O22 7796   3.964   4.932   3.034
   83SLPC   C22 7797   3.930   5.081   3.197
   83SLPC   H2R 7798   4.034   5.045   3.226
   83SLPC   H2S 7799   3.917   5.188   3.201
   83SLPC    C3 7800   4.077   5.128   2.831
   83SLPC    HX 7801   4.117   5.101   2.731
   83SLPC    HY 7802   4.131   5.059   2.901
   83SLPC   O31 7803   4.095   5.268   2.855
   83SLPC   C31 7804   4.194   5.309   2.932
   83SLPC   O32 7805   4.277   5.244   2.985
   83SLPC   C32 7806   4.198   5.453   2.960
   83SLPC   H2X 7807   4.251   5.504   2.877
   83SLPC   H2Y 7808   4.261   5.461   3.052
   83SLPC   C23 7809   3.825   5.008   3.279
   83SLPC   H3R 7810   3.885   4.928   3.304
   83SLPC   H3S 7811   3.741   4.958   3.227
   83SLPC   C24 7812   3.806   5.044   3.425
   83SLPC   H4R 7813   3.743   4.965   3.473
   83SLPC   H4S 7814   3.750   5.139   3.419
   83SLPC   C25 7815   3.934   5.060   3.509
   83SLPC   H5R 7816   4.002   4.972   3.505
   83SLPC   H5S 7817   3.898   5.069   3.613
   83SLPC   C26 7818   4.006   5.191   3.481
   83SLPC   H6R 7819   3.924   5.265   3.468
   83SLPC   H6S 7820   4.065   5.191   3.387
   83SLPC   C27 7821   4.092   5.244   3.596
   83SLPC   H7R 7822   4.030   5.245   3.688
   83SLPC   H7S 7823   4.115   5.349   3.565
   83SLPC   C28 7824   4.222   5.168   3.626
   83SLPC   H8R 7825   4.274   5.137   3.533
   83SLPC   H8S 7826   4.196   5.075   3.683
   83SLPC   C29 7827   4.312   5.261   3.703
   83SLPC   H9R 7828   4.318   5.364   3.664
   83SLPC  C210 7829   4.381   5.230   3.812
   83SLPC  H10R 7830   4.446   5.305   3.860
   83SLPC  C211 7831   4.380   5.095   3.874
   83SLPC  H11R 7832   4.482   5.062   3.865
   83SLPC  H11S 7833   4.334   5.012   3.817
   83SLPC  C212 7834   4.329   5.112   4.015
   83SLPC  H12R 7835   4.351   5.207   4.065
   83SLPC  C213 7836   4.274   5.017   4.091
   83SLPC  H13R 7837   4.226   5.040   4.186
   83SLPC  C214 7838   4.254   4.878   4.049
   83SLPC  H14R 7839   4.326   4.852   3.968
   83SLPC  H14S 7840   4.217   4.865   3.953
   83SLPC  C215 7841   4.210   4.768   4.160
   83SLPC  H15R 7842   4.289   4.770   4.237
   83SLPC  H15S 7843   4.221   4.671   4.110
   83SLPC  C216 7844   4.068   4.760   4.244
   83SLPC  H16R 7845   4.069   4.857   4.301
   83SLPC  H16S 7846   4.082   4.667   4.301
   83SLPC  C217 7847   3.913   4.725   4.200
   83SLPC  H17R 7848   3.905   4.833   4.175
   83SLPC  H17S 7849   3.819   4.757   4.247
   83SLPC  C218 7850   3.870   4.609   4.089
   83SLPC  H18R 7851   3.932   4.598   3.998
   83SLPC  H18S 7852   3.791   4.634   4.013
   83SLPC  H18T 7853   3.910   4.510   4.109
   83SLPC   C33 7854   4.058   5.495   2.989
   83SLPC   H3X 7855   4.015   5.438   3.075
   83SLPC   H3Y 7856   3.991   5.479   2.900
   83SLPC   C34 7857   4.056   5.639   3.022
   83SLPC   H4X 7858   4.125   5.688   2.955
   83SLPC   H4Y 7859   4.098   5.662   3.122
   83SLPC   C35 7860   3.914   5.680   2.999
   83SLPC   H5X 7861   3.865   5.641   2.908
   83SLPC   H5Y 7862   3.918   5.786   2.965
   83SLPC   C36 7863   3.839   5.631   3.125
   83SLPC   H6X 7864   3.757   5.691   3.158
   83SLPC   H6Y 7865   3.908   5.627   3.211
   83SLPC   C37 7866   3.736   5.520   3.116
   83SLPC   H7X 7867   3.790   5.432   3.077
   83SLPC   H7Y 7868   3.659   5.552   3.042
   83SLPC   C38 7869   3.655   5.498   3.246
   83SLPC   H8X 7870   3.595   5.407   3.226
   83SLPC   H8Y 7871   3.583   5.582   3.266
   83SLPC   C39 7872   3.737   5.479   3.374
   83SLPC   H9X 7873   3.806   5.565   3.389
   83SLPC   H9Y 7874   3.796   5.388   3.354
   83SLPC  C310 7875   3.646   5.464   3.497
   83SLPC  H10X 7876   3.559   5.401   3.470
   83SLPC  H10Y 7877   3.607   5.564   3.528
   83SLPC  C311 7878   3.713   5.398   3.617
   83SLPC  H11X 7879   3.809   5.449   3.643
   83SLPC  H11Y 7880   3.733   5.292   3.590
   83SLPC  C312 7881   3.631   5.405   3.746
   83SLPC  H12X 7882   3.546   5.334   3.737
   83SLPC  H12Y 7883   3.589   5.506   3.761
   83SLPC  C313 7884   3.714   5.373   3.868
   83SLPC  H13X 7885   3.661   5.395   3.964
   83SLPC  H13Y 7886   3.810   5.427   3.875
   83SLPC  C314 7887   3.745   5.227   3.869
   83SLPC  H14X 7888   3.806   5.197   3.780
   83SLPC  H14Y 7889   3.658   5.170   3.845
   83SLPC  C315 7890   3.820   5.210   4.000
   83SLPC  H15X 7891   3.889   5.293   4.018
   83SLPC  H15Y 7892   3.899   5.162   3.959
   83SLPC  C316 7893   3.767   5.159   4.136
   83SLPC  H16X 7894   3.691   5.233   4.166
   83SLPC  H16Y 7895   3.849   5.160   4.210
   83SLPC  C317 7896   3.705   5.023   4.160
   83SLPC  H17X 7897   3.759   4.934   4.182
   83SLPC  H17Y 7898   3.679   4.989   4.058
   83SLPC  C318 7899   3.600   5.027   4.277
   83SLPC  H18X 7900   3.561   4.924   4.298
   83SLPC  H18Y 7901   3.512   5.089   4.252
   83SLPC  H18Z 7902   3.623   5.084   4.364
   84SLPC     N 7903   1.122   2.390   2.326
   84SLPC   C13 7904   1.157   2.530   2.329
   84SLPC  H13A 7905   1.079   2.567   2.263
   84SLPC  H13B 7906   1.132   2.576   2.426
   84SLPC  H13C 7907   1.248   2.577   2.294
   84SLPC   C14 7908   1.225   2.340   2.408
   84SLPC  H14A 7909   1.206   2.373   2.513
   84SLPC  H14B 7910   1.234   2.233   2.418
   84SLPC  H14C 7911   1.319   2.386   2.380
   84SLPC   C15 7912   1.128   2.364   2.182
   84SLPC  H15A 7913   1.043   2.414   2.135
   84SLPC  H15B 7914   1.218   2.413   2.145
   84SLPC  H15C 7915   1.123   2.259   2.162
   84SLPC   C12 7916   0.986   2.352   2.387
   84SLPC  H12A 7917   0.979   2.243   2.381
   84SLPC  H12B 7918   0.910   2.397   2.326
   84SLPC   C11 7919   0.956   2.378   2.537
   84SLPC  H11A 7920   0.849   2.358   2.556
   84SLPC  H11B 7921   0.971   2.484   2.563
   84SLPC     P 7922   1.046   2.313   2.777
   84SLPC   O13 7923   1.120   2.198   2.836
   84SLPC   O14 7924   1.097   2.449   2.804
   84SLPC   O12 7925   1.036   2.295   2.619
   84SLPC   O11 7926   0.892   2.296   2.814
   84SLPC    C1 7927   0.808   2.407   2.827
   84SLPC    HA 7928   0.849   2.496   2.772
   84SLPC    HB 7929   0.706   2.385   2.786
   84SLPC    C2 7930   0.799   2.448   2.973
   84SLPC    HS 7931   0.737   2.535   2.961
   84SLPC   O21 7932   0.931   2.478   3.018
   84SLPC   C21 7933   0.954   2.556   3.112
   84SLPC   O22 7934   0.882   2.629   3.178
   84SLPC   C22 7935   1.072   2.555   3.184
   84SLPC   H2R 7936   1.150   2.514   3.120
   84SLPC   H2S 7937   1.095   2.664   3.208
   84SLPC    C3 7938   0.733   2.339   3.062
   84SLPC    HX 7939   0.807   2.257   3.059
   84SLPC    HY 7940   0.638   2.304   3.016
   84SLPC   O31 7941   0.715   2.375   3.201
   84SLPC   C31 7942   0.602   2.433   3.236
   84SLPC   O32 7943   0.510   2.464   3.162
   84SLPC   C32 7944   0.612   2.467   3.386
   84SLPC   H2X 7945   0.707   2.516   3.413
   84SLPC   H2Y 7946   0.634   2.373   3.431
   84SLPC   C23 7947   1.005   2.490   3.312
   84SLPC   H3R 7948   0.939   2.524   3.392
   84SLPC   H3S 7949   1.060   2.563   3.371
   84SLPC   C24 7950   1.009   2.334   3.322
   84SLPC   H4R 7951   1.076   2.292   3.243
   84SLPC   H4S 7952   0.905   2.303   3.302
   84SLPC   C25 7953   1.032   2.257   3.456
   84SLPC   H5R 7954   1.123   2.217   3.492
   84SLPC   H5S 7955   1.037   2.151   3.426
   84SLPC   C26 7956   1.011   2.315   3.597
   84SLPC   H6R 7957   1.012   2.424   3.616
   84SLPC   H6S 7958   1.067   2.265   3.681
   84SLPC   C27 7959   0.887   2.260   3.626
   84SLPC   H7R 7960   0.828   2.315   3.548
   84SLPC   H7S 7961   0.860   2.297   3.725
   84SLPC   C28 7962   0.905   2.103   3.606
   84SLPC   H8R 7963   0.895   2.068   3.502
   84SLPC   H8S 7964   0.817   2.066   3.617
   84SLPC   C29 7965   0.978   2.009   3.698
   84SLPC   H9R 7966   1.069   1.976   3.657
   84SLPC  C210 7967   0.946   1.959   3.820
   84SLPC  H10R 7968   1.003   1.880   3.868
   84SLPC  C211 7969   0.848   2.003   3.910
   84SLPC  H11R 7970   0.861   1.936   4.003
   84SLPC  H11S 7971   0.774   1.911   3.879
   84SLPC  C212 7972   0.761   2.141   3.909
   84SLPC  H12R 7973   0.668   2.157   3.879
   84SLPC  C213 7974   0.757   2.258   3.963
   84SLPC  H13R 7975   0.640   2.295   3.970
   84SLPC  C214 7976   0.836   2.240   4.076
   84SLPC  H14R 7977   0.872   2.343   4.057
   84SLPC  H14S 7978   0.921   2.167   4.072
   84SLPC  C215 7979   0.755   2.227   4.190
   84SLPC  H15R 7980   0.843   2.221   4.253
   84SLPC  H15S 7981   0.711   2.135   4.225
   84SLPC  C216 7982   0.656   2.340   4.190
   84SLPC  H16R 7983   0.552   2.311   4.155
   84SLPC  H16S 7984   0.681   2.443   4.160
   84SLPC  C217 7985   0.668   2.377   4.323
   84SLPC  H17R 7986   0.605   2.293   4.344
   84SLPC  H17S 7987   0.582   2.443   4.342
   84SLPC  C218 7988   0.809   2.367   4.409
   84SLPC  H18R 7989   0.826   2.454   4.469
   84SLPC  H18S 7990   0.842   2.266   4.436
   84SLPC  H18T 7991   0.813   2.325   4.510
   84SLPC   C33 7992   0.484   2.522   3.450
   84SLPC   H3X 7993   0.463   2.489   3.553
   84SLPC   H3Y 7994   0.394   2.510   3.384
   84SLPC   C34 7995   0.494   2.666   3.468
   84SLPC   H4X 7996   0.396   2.708   3.493
   84SLPC   H4Y 7997   0.470   2.691   3.363
   84SLPC   C35 7998   0.624   2.716   3.547
   84SLPC   H5X 7999   0.636   2.831   3.533
   84SLPC   H5Y 8000   0.730   2.700   3.524
   84SLPC   C36 8001   0.608   2.709   3.684
   84SLPC   H6X 8002   0.496   2.710   3.701
   84SLPC   H6Y 8003   0.658   2.809   3.712
   84SLPC   C37 8004   0.667   2.598   3.756
   84SLPC   H7X 8005   0.772   2.609   3.721
   84SLPC   H7Y 8006   0.617   2.512   3.709
   84SLPC   C38 8007   0.654   2.593   3.911
   84SLPC   H8X 8008   0.721   2.509   3.935
   84SLPC   H8Y 8009   0.554   2.573   3.950
   84SLPC   C39 8010   0.714   2.702   3.996
   84SLPC   H9X 8011   0.722   2.686   4.103
   84SLPC   H9Y 8012   0.657   2.788   4.021
   84SLPC  C310 8013   0.833   2.741   3.918
   84SLPC  H10X 8014   0.871   2.832   3.934
   84SLPC  H10Y 8015   0.800   2.790   3.828
   84SLPC  C311 8016   0.960   2.669   3.949
   84SLPC  H11X 8017   1.055   2.723   3.927
   84SLPC  H11Y 8018   0.952   2.584   3.882
   84SLPC  C312 8019   0.973   2.636   4.096
   84SLPC  H12X 8020   0.879   2.608   4.144
   84SLPC  H12Y 8021   1.002   2.723   4.154
   84SLPC  C313 8022   1.068   2.522   4.114
   84SLPC  H13X 8023   1.174   2.555   4.113
   84SLPC  H13Y 8024   1.047   2.441   4.042
   84SLPC  C314 8025   1.029   2.452   4.239
   84SLPC  H14X 8026   0.924   2.438   4.234
   84SLPC  H14Y 8027   1.026   2.537   4.313
   84SLPC  C315 8028   1.101   2.313   4.265
   84SLPC  H15X 8029   1.209   2.318   4.250
   84SLPC  H15Y 8030   1.088   2.246   4.180
   84SLPC  C316 8031   1.093   2.252   4.410
   84SLPC  H16X 8032   1.003   2.193   4.407
   84SLPC  H16Y 8033   1.075   2.320   4.496
   84SLPC  C317 8034   1.210   2.169   4.464
   84SLPC  H17X 8035   1.311   2.204   4.489
   84SLPC  H17Y 8036   1.233   2.094   4.391
   84SLPC  C318 8037   1.165   2.099   4.586
   84SLPC  H18X 8038   1.242   2.018   4.599
   84SLPC  H18Y 8039   1.066   2.057   4.558
   84SLPC  H18Z 8040   1.153   2.150   4.683
   85SLPC     N 8041   6.980   4.589   2.515
   85SLPC   C13 8042   7.096   4.509   2.550
   85SLPC  H13A 8043   7.092   4.425   2.618
   85SLPC  H13B 8044   7.129   4.465   2.456
   85SLPC  H13C 8045   7.181   4.570   2.581
   85SLPC   C14 8046   6.879   4.497   2.460
   85SLPC  H14A 8047   6.897   4.476   2.355
   85SLPC  H14B 8048   6.876   4.406   2.517
   85SLPC  H14C 8049   6.784   4.549   2.463
   85SLPC   C15 8050   7.002   4.694   2.410
   85SLPC  H15A 8051   6.952   4.787   2.437
   85SLPC  H15B 8052   7.104   4.725   2.409
   85SLPC  H15C 8053   6.986   4.661   2.309
   85SLPC   C12 8054   6.944   4.662   2.640
   85SLPC  H12A 8055   7.017   4.742   2.650
   85SLPC  H12B 8056   6.955   4.594   2.723
   85SLPC   C11 8057   6.812   4.739   2.643
   85SLPC  H11A 8058   6.802   4.781   2.746
   85SLPC  H11B 8059   6.728   4.677   2.625
   85SLPC     P 8060   6.716   4.963   2.567
   85SLPC   O13 8061   6.707   5.041   2.441
   85SLPC   O14 8062   6.593   4.930   2.643
   85SLPC   O12 8063   6.802   4.833   2.537
   85SLPC   O11 8064   6.821   5.027   2.665
   85SLPC    C1 8065   6.899   5.138   2.623
   85SLPC    HA 8066   6.920   5.140   2.514
   85SLPC    HB 8067   6.843   5.230   2.649
   85SLPC    C2 8068   7.032   5.139   2.700
   85SLPC    HS 8069   7.097   5.219   2.657
   85SLPC   O21 8070   7.102   5.014   2.696
   85SLPC   C21 8071   7.233   5.017   2.716
   85SLPC   O22 8072   7.303   5.112   2.743
   85SLPC   C22 8073   7.284   4.884   2.678
   85SLPC   H2R 8074   7.220   4.859   2.593
   85SLPC   H2S 8075   7.391   4.879   2.654
   85SLPC    C3 8076   7.002   5.178   2.845
   85SLPC    HX 8077   6.954   5.277   2.839
   85SLPC    HY 8078   7.101   5.189   2.889
   85SLPC   O31 8079   6.917   5.089   2.921
   85SLPC   C31 8080   6.975   5.001   3.000
   85SLPC   O32 8081   7.095   4.987   3.018
   85SLPC   C32 8082   6.870   4.917   3.069
   85SLPC   H2X 8083   6.770   4.938   3.024
   85SLPC   H2Y 8084   6.868   4.943   3.176
   85SLPC   C23 8085   7.262   4.789   2.788
   85SLPC   H3R 8086   7.158   4.750   2.798
   85SLPC   H3S 8087   7.278   4.845   2.885
   85SLPC   C24 8088   7.363   4.668   2.784
   85SLPC   H4R 8089   7.466   4.693   2.749
   85SLPC   H4S 8090   7.321   4.595   2.714
   85SLPC   C25 8091   7.373   4.603   2.927
   85SLPC   H5R 8092   7.305   4.673   2.932
   85SLPC   H5S 8093   7.290   4.539   2.960
   85SLPC   C26 8094   7.429   4.685   3.041
   85SLPC   H6R 8095   7.485   4.774   3.004
   85SLPC   H6S 8096   7.507   4.627   3.085
   85SLPC   C27 8097   7.320   4.717   3.144
   85SLPC   H7R 8098   7.236   4.659   3.184
   85SLPC   H7S 8099   7.246   4.772   3.080
   85SLPC   C28 8100   7.381   4.755   3.276
   85SLPC   H8R 8101   7.482   4.733   3.305
   85SLPC   H8S 8102   7.334   4.733   3.376
   85SLPC   C29 8103   7.364   4.885   3.236
   85SLPC   H9R 8104   7.431   4.934   3.162
   85SLPC  C210 8105   7.290   4.945   3.320
   85SLPC  H10R 8106   7.304   5.037   3.313
   85SLPC  C211 8107   7.215   4.939   3.439
   85SLPC  H11R 8108   7.286   4.905   3.517
   85SLPC  H11S 8109   7.149   4.867   3.391
   85SLPC  C212 8110   7.152   5.073   3.480
   85SLPC  H12R 8111   7.214   5.166   3.479
   85SLPC  C213 8112   7.025   5.081   3.512
   85SLPC  H13R 8113   6.986   5.178   3.538
   85SLPC  C214 8114   6.932   4.963   3.514
   85SLPC  H14R 8115   6.976   4.879   3.456
   85SLPC  H14S 8116   6.839   4.987   3.460
   85SLPC  C215 8117   6.899   4.906   3.653
   85SLPC  H15R 8118   6.813   4.836   3.649
   85SLPC  H15S 8119   6.874   4.985   3.727
   85SLPC  C216 8120   7.013   4.825   3.710
   85SLPC  H16R 8121   7.060   4.750   3.643
   85SLPC  H16S 8122   6.976   4.769   3.800
   85SLPC  C217 8123   7.116   4.921   3.752
   85SLPC  H17R 8124   7.083   5.023   3.784
   85SLPC  H17S 8125   7.204   4.928   3.686
   85SLPC  C218 8126   7.167   4.869   3.871
   85SLPC  H18R 8127   7.214   4.766   3.871
   85SLPC  H18S 8128   7.116   4.905   3.961
   85SLPC  H18T 8129   7.242   4.942   3.871
   85SLPC   C33 8130   6.909   4.769   3.059
   85SLPC   H3X 8131   7.014   4.750   3.087
   85SLPC   H3Y 8132   6.898   4.739   2.951
   85SLPC   C34 8133   6.840   4.679   3.161
   85SLPC   H4X 8134   6.857   4.570   3.148
   85SLPC   H4Y 8135   6.737   4.709   3.164
   85SLPC   C35 8136   6.831   4.689   3.310
   85SLPC   H5X 8137   6.780   4.785   3.336
   85SLPC   H5Y 8138   6.935   4.676   3.341
   85SLPC   C36 8139   6.751   4.571   3.366
   85SLPC   H6X 8140   6.767   4.472   3.317
   85SLPC   H6Y 8141   6.643   4.590   3.366
   85SLPC   C37 8142   6.749   4.570   3.514
   85SLPC   H7X 8143   6.685   4.654   3.551
   85SLPC   H7Y 8144   6.853   4.571   3.547
   85SLPC   C38 8145   6.690   4.444   3.560
   85SLPC   H8X 8146   6.766   4.367   3.544
   85SLPC   H8Y 8147   6.611   4.421   3.486
   85SLPC   C39 8148   6.615   4.457   3.693
   85SLPC   H9X 8149   6.571   4.373   3.747
   85SLPC   H9Y 8150   6.530   4.513   3.659
   85SLPC  C310 8151   6.677   4.488   3.823
   85SLPC  H10X 8152   6.749   4.565   3.795
   85SLPC  H10Y 8153   6.727   4.395   3.862
   85SLPC  C311 8154   6.565   4.534   3.917
   85SLPC  H11X 8155   6.529   4.453   3.986
   85SLPC  H11Y 8156   6.477   4.569   3.861
   85SLPC  C312 8157   6.612   4.654   3.994
   85SLPC  H12X 8158   6.525   4.709   4.036
   85SLPC  H12Y 8159   6.665   4.724   3.927
   85SLPC  C313 8160   6.713   4.609   4.096
   85SLPC  H13X 8161   6.799   4.560   4.043
   85SLPC  H13Y 8162   6.670   4.531   4.162
   85SLPC  C314 8163   6.770   4.731   4.171
   85SLPC  H14X 8164   6.818   4.803   4.105
   85SLPC  H14Y 8165   6.859   4.694   4.227
   85SLPC  C315 8166   6.669   4.808   4.257
   85SLPC  H15X 8167   6.573   4.755   4.267
   85SLPC  H15Y 8168   6.638   4.902   4.211
   85SLPC  C316 8169   6.725   4.850   4.389
   85SLPC  H16X 8170   6.770   4.773   4.452
   85SLPC  H16Y 8171   6.653   4.895   4.462
   85SLPC  C317 8172   6.843   4.920   4.369
   85SLPC  H17X 8173   6.838   4.988   4.287
   85SLPC  H17Y 8174   6.932   4.858   4.341
   85SLPC  C318 8175   6.843   4.993   4.494
   85SLPC  H18X 8176   6.771   5.038   4.554
   85SLPC  H18Y 8177   6.941   5.029   4.479
   85SLPC  H18Z 8178   6.864   4.960   4.594
   86SLPC     N 8179   7.570   3.169   2.534
   86SLPC   C13 8180   7.700   3.105   2.569
   86SLPC  H13A 8181   7.685   3.012   2.623
   86SLPC  H13B 8182   7.759   3.084   2.480
   86SLPC  H13C 8183   7.760   3.171   2.630
   86SLPC   C14 8184   7.496   3.085   2.434
   86SLPC  H14A 8185   7.408   3.139   2.398
   86SLPC  H14B 8186   7.559   3.057   2.351
   86SLPC  H14C 8187   7.455   2.996   2.483
   86SLPC   C15 8188   7.602   3.305   2.479
   86SLPC  H15A 8189   7.509   3.357   2.453
   86SLPC  H15B 8190   7.648   3.366   2.556
   86SLPC  H15C 8191   7.668   3.299   2.394
   86SLPC   C12 8192   7.480   3.184   2.654
   86SLPC  H12A 8193   7.522   3.260   2.720
   86SLPC  H12B 8194   7.477   3.091   2.708
   86SLPC   C11 8195   7.332   3.215   2.628
   86SLPC  H11A 8196   7.283   3.245   2.725
   86SLPC  H11B 8197   7.278   3.127   2.587
   86SLPC     P 8198   7.215   3.422   2.530
   86SLPC   O13 8199   7.254   3.499   2.413
   86SLPC   O14 8200   7.080   3.372   2.547
   86SLPC   O12 8201   7.323   3.314   2.531
   86SLPC   O11 8202   7.248   3.487   2.666
   86SLPC    C1 8203   7.372   3.540   2.682
   86SLPC    HA 8204   7.458   3.489   2.640
   86SLPC    HB 8205   7.348   3.639   2.644
   86SLPC    C2 8206   7.432   3.540   2.815
   86SLPC    HS 8207   7.534   3.584   2.806
   86SLPC   O21 8208   7.458   3.410   2.861
   86SLPC   C21 8209   7.558   3.380   2.939
   86SLPC   O22 8210   7.671   3.426   2.945
   86SLPC   C22 8211   7.507   3.262   3.007
   86SLPC   H2R 8212   7.504   3.263   3.116
   86SLPC   H2S 8213   7.404   3.238   2.974
   86SLPC    C3 8214   7.318   3.618   2.885
   86SLPC    HX 8215   7.298   3.725   2.873
   86SLPC    HY 8216   7.342   3.682   2.970
   86SLPC   O31 8217   7.213   3.519   2.904
   86SLPC   C31 8218   7.195   3.503   3.032
   86SLPC   O32 8219   7.229   3.583   3.105
   86SLPC   C32 8220   7.131   3.385   3.088
   86SLPC   H2X 8221   7.153   3.305   3.018
   86SLPC   H2Y 8222   7.026   3.413   3.095
   86SLPC   C23 8223   7.617   3.173   2.958
   86SLPC   H3R 8224   7.707   3.189   3.023
   86SLPC   H3S 8225   7.647   3.190   2.852
   86SLPC   C24 8226   7.567   3.036   2.959
   86SLPC   H4R 8227   7.656   2.971   2.954
   86SLPC   H4S 8228   7.496   3.011   2.877
   86SLPC   C25 8229   7.493   3.009   3.083
   86SLPC   H5R 8230   7.435   2.923   3.050
   86SLPC   H5S 8231   7.425   3.078   3.136
   86SLPC   C26 8232   7.596   2.986   3.181
   86SLPC   H6R 8233   7.661   3.075   3.190
   86SLPC   H6S 8234   7.661   2.895   3.159
   86SLPC   C27 8235   7.548   2.972   3.316
   86SLPC   H7R 8236   7.577   2.880   3.374
   86SLPC   H7S 8237   7.559   2.869   3.323
   86SLPC   C28 8238   7.474   3.062   3.412
   86SLPC   H8R 8239   7.435   3.015   3.506
   86SLPC   H8S 8240   7.387   3.092   3.351
   86SLPC   C29 8241   7.566   3.162   3.460
   86SLPC   H9R 8242   7.658   3.150   3.510
   86SLPC  C210 8243   7.535   3.276   3.479
   86SLPC  H10R 8244   7.625   3.336   3.502
   86SLPC  C211 8245   7.385   3.293   3.424
   86SLPC  H11R 8246   7.324   3.253   3.497
   86SLPC  H11S 8247   7.402   3.304   3.323
   86SLPC  C212 8248   7.395   3.430   3.466
   86SLPC  H12R 8249   7.468   3.477   3.407
   86SLPC  C213 8250   7.270   3.493   3.517
   86SLPC  H13R 8251   7.277   3.581   3.588
   86SLPC  C214 8252   7.161   3.464   3.607
   86SLPC  H14R 8253   7.111   3.399   3.535
   86SLPC  H14S 8254   7.111   3.578   3.582
   86SLPC  C215 8255   7.202   3.470   3.738
   86SLPC  H15R 8256   7.255   3.377   3.755
   86SLPC  H15S 8257   7.136   3.460   3.803
   86SLPC  C216 8258   7.230   3.591   3.838
   86SLPC  H16R 8259   7.180   3.685   3.820
   86SLPC  H16S 8260   7.324   3.620   3.811
   86SLPC  C217 8261   7.241   3.546   3.989
   86SLPC  H17R 8262   7.304   3.601   4.061
   86SLPC  H17S 8263   7.280   3.442   3.991
   86SLPC  C218 8264   7.138   3.587   4.083
   86SLPC  H18R 8265   7.132   3.560   4.182
   86SLPC  H18S 8266   7.073   3.502   4.070
   86SLPC  H18T 8267   7.109   3.692   4.080
   86SLPC   C33 8268   7.112   3.357   3.238
   86SLPC   H3X 8269   7.071   3.432   3.307
   86SLPC   H3Y 8270   7.207   3.323   3.277
   86SLPC   C34 8271   6.990   3.267   3.245
   86SLPC   H4X 8272   7.006   3.197   3.164
   86SLPC   H4Y 8273   6.895   3.311   3.215
   86SLPC   C35 8274   6.970   3.226   3.387
   86SLPC   H5X 8275   6.875   3.168   3.398
   86SLPC   H5Y 8276   6.973   3.310   3.458
   86SLPC   C36 8277   7.091   3.158   3.439
   86SLPC   H6X 8278   7.194   3.174   3.422
   86SLPC   H6Y 8279   7.100   3.105   3.351
   86SLPC   C37 8280   7.058   3.084   3.562
   86SLPC   H7X 8281   7.122   3.001   3.562
   86SLPC   H7Y 8282   6.952   3.053   3.564
   86SLPC   C38 8283   7.116   3.141   3.683
   86SLPC   H8X 8284   7.066   3.233   3.666
   86SLPC   H8Y 8285   7.226   3.143   3.681
   86SLPC   C39 8286   7.080   3.056   3.796
   86SLPC   H9X 8287   7.113   2.956   3.766
   86SLPC   H9Y 8288   6.968   3.064   3.806
   86SLPC  C310 8289   7.162   3.069   3.923
   86SLPC  H10X 8290   7.168   3.173   3.935
   86SLPC  H10Y 8291   7.268   3.081   3.909
   86SLPC  C311 8292   7.116   2.990   4.048
   86SLPC  H11X 8293   7.174   2.897   4.042
   86SLPC  H11Y 8294   7.012   2.959   4.051
   86SLPC  C312 8295   7.139   3.058   4.181
   86SLPC  H12X 8296   7.129   2.999   4.274
   86SLPC  H12Y 8297   7.070   3.138   4.207
   86SLPC  C313 8298   7.260   3.140   4.173
   86SLPC  H13X 8299   7.245   3.182   4.272
   86SLPC  H13Y 8300   7.255   3.215   4.092
   86SLPC  C314 8301   7.394   3.079   4.167
   86SLPC  H14X 8302   7.385   2.986   4.106
   86SLPC  H14Y 8303   7.413   3.047   4.270
   86SLPC  C315 8304   7.496   3.176   4.100
   86SLPC  H15X 8305   7.454   3.220   4.008
   86SLPC  H15Y 8306   7.579   3.116   4.078
   86SLPC  C316 8307   7.555   3.299   4.170
   86SLPC  H16X 8308   7.466   3.315   4.215
   86SLPC  H16Y 8309   7.605   3.383   4.127
   86SLPC  C317 8310   7.598   3.298   4.308
   86SLPC  H17X 8311   7.649   3.217   4.261
   86SLPC  H17Y 8312   7.534   3.230   4.364
   86SLPC  C318 8313   7.703   3.395   4.383
   86SLPC  H18X 8314   7.731   3.478   4.320
   86SLPC  H18Y 8315   7.794   3.370   4.438
   86SLPC  H18Z 8316   7.674   3.414   4.483
   87SLPC     N 8317   7.239   1.954   2.389
   87SLPC   C13 8318   7.348   2.001   2.480
   87SLPC  H13A 8319   7.401   2.085   2.436
   87SLPC  H13B 8320   7.308   2.053   2.564
   87SLPC  H13C 8321   7.443   1.953   2.506
   87SLPC   C14 8322   7.205   1.836   2.462
   87SLPC  H14A 8323   7.157   1.868   2.555
   87SLPC  H14B 8324   7.146   1.769   2.405
   87SLPC  H14C 8325   7.297   1.786   2.491
   87SLPC   C15 8326   7.304   1.927   2.260
   87SLPC  H15A 8327   7.386   1.861   2.278
   87SLPC  H15B 8328   7.230   1.891   2.190
   87SLPC  H15C 8329   7.341   2.022   2.222
   87SLPC   C12 8330   7.106   2.037   2.355
   87SLPC  H12A 8331   7.034   1.983   2.299
   87SLPC  H12B 8332   7.135   2.119   2.290
   87SLPC   C11 8333   7.019   2.120   2.453
   87SLPC  H11A 8334   6.967   2.215   2.431
   87SLPC  H11B 8335   7.104   2.178   2.473
   87SLPC     P 8336   6.906   2.103   2.693
   87SLPC   O13 8337   6.962   2.019   2.798
   87SLPC   O14 8338   6.897   2.249   2.694
   87SLPC   O12 8339   6.960   2.041   2.556
   87SLPC   O11 8340   6.764   2.067   2.722
   87SLPC    C1 8341   6.741   1.944   2.662
   87SLPC    HA 8342   6.725   1.967   2.555
   87SLPC    HB 8343   6.819   1.864   2.676
   87SLPC    C2 8344   6.623   1.896   2.733
   87SLPC    HS 8345   6.561   1.983   2.762
   87SLPC   O21 8346   6.664   1.844   2.852
   87SLPC   C21 8347   6.561   1.825   2.924
   87SLPC   O22 8348   6.446   1.865   2.914
   87SLPC   C22 8349   6.631   1.766   3.029
   87SLPC   H2R 8350   6.708   1.692   3.005
   87SLPC   H2S 8351   6.668   1.850   3.086
   87SLPC    C3 8352   6.560   1.789   2.648
   87SLPC    HX 8353   6.519   1.840   2.559
   87SLPC    HY 8354   6.477   1.741   2.703
   87SLPC   O31 8355   6.664   1.702   2.599
   87SLPC   C31 8356   6.672   1.586   2.657
   87SLPC   O32 8357   6.598   1.545   2.745
   87SLPC   C32 8358   6.785   1.509   2.585
   87SLPC   H2X 8359   6.848   1.575   2.525
   87SLPC   H2Y 8360   6.734   1.429   2.525
   87SLPC   C23 8361   6.569   1.669   3.092
   87SLPC   H3R 8362   6.485   1.608   3.039
   87SLPC   H3S 8363   6.457   1.717   3.117
   87SLPC   C24 8364   6.700   1.593   3.267
   87SLPC   H4R 8365   6.629   1.561   3.358
   87SLPC   H4S 8366   6.680   1.616   3.377
   87SLPC   C25 8367   6.780   1.478   3.306
   87SLPC   H5R 8368   6.830   1.569   3.265
   87SLPC   H5S 8369   6.705   1.411   3.289
   87SLPC   C26 8370   6.756   1.414   3.442
   87SLPC   H6R 8371   6.830   1.332   3.420
   87SLPC   H6S 8372   6.657   1.361   3.455
   87SLPC   C27 8373   6.781   1.520   3.552
   87SLPC   H7R 8374   6.810   1.452   3.632
   87SLPC   H7S 8375   6.691   1.561   3.590
   87SLPC   C28 8376   6.861   1.653   3.520
   87SLPC   H8R 8377   6.883   1.716   3.603
   87SLPC   H8S 8378   6.826   1.717   3.436
   87SLPC   C29 8379   6.957   1.563   3.469
   87SLPC   H9R 8380   6.994   1.631   3.390
   87SLPC  C210 8381   7.035   1.481   3.531
   87SLPC  H10R 8382   7.102   1.415   3.469
   87SLPC  C211 8383   7.045   1.478   3.679
   87SLPC  H11R 8384   7.067   1.374   3.683
   87SLPC  H11S 8385   6.955   1.523   3.719
   87SLPC  C212 8386   7.143   1.535   3.778
   87SLPC  H12R 8387   7.220   1.466   3.811
   87SLPC  C213 8388   7.153   1.647   3.847
   87SLPC  H13R 8389   7.248   1.679   3.901
   87SLPC  C214 8390   7.051   1.747   3.827
   87SLPC  H14R 8391   6.995   1.751   3.737
   87SLPC  H14S 8392   7.132   1.817   3.806
   87SLPC  C215 8393   6.950   1.752   3.943
   87SLPC  H15R 8394   6.892   1.839   3.975
   87SLPC  H15S 8395   7.033   1.763   4.004
   87SLPC  C216 8396   6.863   1.631   3.965
   87SLPC  H16R 8397   6.925   1.550   3.935
   87SLPC  H16S 8398   6.793   1.645   3.882
   87SLPC  C217 8399   6.789   1.602   4.099
   87SLPC  H17R 8400   6.730   1.690   4.128
   87SLPC  H17S 8401   6.843   1.571   4.191
   87SLPC  C218 8402   6.717   1.470   4.106
   87SLPC  H18R 8403   6.796   1.397   4.137
   87SLPC  H18S 8404   6.672   1.445   4.009
   87SLPC  H18T 8405   6.648   1.461   4.191
   87SLPC   C33 8406   6.876   1.435   2.682
   87SLPC   H3X 8407   6.947   1.358   2.646
   87SLPC   H3Y 8408   6.791   1.374   2.699
   87SLPC   C34 8409   6.921   1.508   2.807
   87SLPC   H4X 8410   6.986   1.438   2.865
   87SLPC   H4Y 8411   6.843   1.542   2.878
   87SLPC   C35 8412   6.977   1.641   2.770
   87SLPC   H5X 8413   6.927   1.704   2.697
   87SLPC   H5Y 8414   7.065   1.610   2.706
   87SLPC   C36 8415   7.000   1.739   2.890
   87SLPC   H6X 8416   7.036   1.830   2.845
   87SLPC   H6Y 8417   7.076   1.716   2.961
   87SLPC   C37 8418   6.936   1.769   3.017
   87SLPC   H7X 8419   6.904   1.672   3.062
   87SLPC   H7Y 8420   6.862   1.833   2.967
   87SLPC   C38 8421   7.030   1.849   3.113
   87SLPC   H8X 8422   7.107   1.914   3.063
   87SLPC   H8Y 8423   7.090   1.781   3.177
   87SLPC   C39 8424   6.930   1.924   3.196
   87SLPC   H9X 8425   6.861   1.845   3.231
   87SLPC   H9Y 8426   6.877   1.991   3.123
   87SLPC  C310 8427   6.979   1.994   3.320
   87SLPC  H10X 8428   7.073   2.034   3.286
   87SLPC  H10Y 8429   7.022   1.933   3.401
   87SLPC  C311 8430   6.873   2.091   3.377
   87SLPC  H11X 8431   6.831   2.156   3.297
   87SLPC  H11Y 8432   6.916   2.154   3.457
   87SLPC  C312 8433   6.761   2.012   3.443
   87SLPC  H12X 8434   6.812   1.940   3.511
   87SLPC  H12Y 8435   6.704   1.958   3.366
   87SLPC  C313 8436   6.667   2.097   3.529
   87SLPC  H13X 8437   6.616   2.169   3.463
   87SLPC  H13Y 8438   6.726   2.144   3.610
   87SLPC  C314 8439   6.559   2.020   3.597
   87SLPC  H14X 8440   6.492   1.991   3.515
   87SLPC  H14Y 8441   6.491   2.068   3.671
   87SLPC  C315 8442   6.623   1.904   3.665
   87SLPC  H15X 8443   6.682   1.902   3.759
   87SLPC  H15Y 8444   6.667   1.842   3.583
   87SLPC  C316 8445   6.519   1.823   3.716
   87SLPC  H16X 8446   6.571   1.722   3.728
   87SLPC  H16Y 8447   6.460   1.837   3.623
   87SLPC  C317 8448   6.397   1.856   3.795
   87SLPC  H17X 8449   6.314   1.790   3.774
   87SLPC  H17Y 8450   6.331   1.934   3.759
   87SLPC  C318 8451   6.442   1.830   3.934
   87SLPC  H18X 8452   6.356   1.817   4.002
   87SLPC  H18Y 8453   6.505   1.917   3.954
   87SLPC  H18Z 8454   6.501   1.734   3.936
   88SLPC     N 8455   0.256  -0.286   2.554
   88SLPC   C13 8456   0.370  -0.244   2.465
   88SLPC  H13A 8457   0.361  -0.137   2.445
   88SLPC  H13B 8458   0.466  -0.259   2.510
   88SLPC  H13C 8459   0.366  -0.296   2.369
   88SLPC   C14 8460   0.273  -0.423   2.581
   88SLPC  H14A 8461   0.269  -0.479   2.488
   88SLPC  H14B 8462   0.373  -0.448   2.619
   88SLPC  H14C 8463   0.199  -0.469   2.645
   88SLPC   C15 8464   0.130  -0.275   2.475
   88SLPC  H15A 8465   0.085  -0.177   2.491
   88SLPC  H15B 8466   0.151  -0.281   2.369
   88SLPC  H15C 8467   0.060  -0.353   2.503
   88SLPC   C12 8468   0.252  -0.215   2.687
   88SLPC  H12A 8469   0.350  -0.217   2.734
   88SLPC  H12B 8470   0.186  -0.271   2.752
   88SLPC   C11 8471   0.205  -0.070   2.684
   88SLPC  H11A 8472   0.220  -0.022   2.783
   88SLPC  H11B 8473   0.096  -0.070   2.661
   88SLPC     P 8474   0.217   0.118   2.507
   88SLPC   O13 8475   0.326   0.189   2.435
   88SLPC   O14 8476   0.098   0.073   2.432
   88SLPC   O12 8477   0.282  -0.002   2.586
   88SLPC   O11 8478   0.167   0.203   2.628
   88SLPC    C1 8479   0.175   0.344   2.626
   88SLPC    HA 8480   0.256   0.386   2.560
   88SLPC    HB 8481   0.078   0.387   2.591
   88SLPC    C2 8482   0.208   0.390   2.769
   88SLPC    HS 8483   0.261   0.489   2.757
   88SLPC   O21 8484   0.275   0.306   2.858
   88SLPC   C21 8485   0.383   0.272   2.814
   88SLPC   O22 8486   0.441   0.317   2.715
   88SLPC   C22 8487   0.426   0.174   2.922
   88SLPC   H2R 8488   0.412   0.220   3.023
   88SLPC   H2S 8489   0.367   0.083   2.907
   88SLPC    C3 8490   0.096   0.413   2.854
   88SLPC    HX 8491   0.042   0.461   2.782
   88SLPC    HY 8492   0.135   0.473   2.941
   88SLPC   O31 8493   0.006   0.308   2.878
   88SLPC   C31 8494   0.005   0.269   3.000
   88SLPC   O32 8495   0.061   0.320   3.095
   88SLPC   C32 8496  -0.080   0.145   3.002
   88SLPC   H2X 8497  -0.135   0.131   2.906
   88SLPC   H2Y 8498  -0.154   0.158   3.083
   88SLPC   C23 8499   0.567   0.138   2.904
   88SLPC   H3R 8500   0.607   0.221   2.964
   88SLPC   H3S 8501   0.586   0.137   2.796
   88SLPC   C24 8502   0.630   0.030   2.984
   88SLPC   H4R 8503   0.592   0.038   3.087
   88SLPC   H4S 8504   0.734   0.062   2.995
   88SLPC   C25 8505   0.613  -0.106   2.922
   88SLPC   H5R 8506   0.664  -0.111   2.822
   88SLPC   H5S 8507   0.504  -0.117   2.901
   88SLPC   C26 8508   0.653  -0.220   3.014
   88SLPC   H6R 8509   0.763  -0.227   3.023
   88SLPC   H6S 8510   0.619  -0.315   2.968
   88SLPC   C27 8511   0.604  -0.211   3.159
   88SLPC   H7R 8512   0.646  -0.123   3.212
   88SLPC   H7S 8513   0.649  -0.299   3.212
   88SLPC   C28 8514   0.451  -0.222   3.174
   88SLPC   H8R 8515   0.436  -0.287   3.263
   88SLPC   H8S 8516   0.408  -0.280   3.090
   88SLPC   C29 8517   0.374  -0.094   3.194
   88SLPC   H9R 8518   0.302  -0.068   3.115
   88SLPC  C210 8519   0.390  -0.010   3.298
   88SLPC  H10R 8520   0.328   0.080   3.307
   88SLPC  C211 8521   0.490  -0.033   3.408
   88SLPC  H11R 8522   0.582   0.020   3.376
   88SLPC  H11S 8523   0.517  -0.140   3.419
   88SLPC  C212 8524   0.440   0.016   3.540
   88SLPC  H12R 8525   0.385   0.112   3.539
   88SLPC  C213 8526   0.460  -0.045   3.659
   88SLPC  H13R 8527   0.424   0.011   3.747
   88SLPC  C214 8528   0.536  -0.175   3.688
   88SLPC  H14R 8529   0.608  -0.184   3.774
   88SLPC  H14S 8530   0.606  -0.199   3.607
   88SLPC  C215 8531   0.442  -0.279   3.744
   88SLPC  H15R 8532   0.502  -0.362   3.789
   88SLPC  H15S 8533   0.382  -0.316   3.659
   88SLPC  C216 8534   0.357  -0.228   3.861
   88SLPC  H16R 8535   0.302  -0.135   3.838
   88SLPC  H16S 8536   0.425  -0.207   3.947
   88SLPC  C217 8537   0.260  -0.336   3.909
   88SLPC  H17R 8538   0.322  -0.427   3.927
   88SLPC  H17S 8539   0.185  -0.361   3.830
   88SLPC  C218 8540   0.190  -0.289   4.035
   88SLPC  H18R 8541   0.266  -0.258   4.110
   88SLPC  H18S 8542   0.123  -0.366   4.077
   88SLPC  H18T 8543   0.129  -0.199   4.010
   88SLPC   C33 8544   0.014   0.029   3.029
   88SLPC   H3X 8545   0.060   0.048   3.129
   88SLPC   H3Y 8546   0.095   0.027   2.953
   88SLPC   C34 8547  -0.060  -0.105   3.030
   88SLPC   H4X 8548  -0.068  -0.136   2.923
   88SLPC   H4Y 8549  -0.164  -0.091   3.069
   88SLPC   C35 8550   0.015  -0.211   3.112
   88SLPC   H5X 8551   0.122  -0.206   3.084
   88SLPC   H5Y 8552  -0.023  -0.312   3.083
   88SLPC   C36 8553  -0.002  -0.197   3.265
   88SLPC   H6X 8554  -0.110  -0.200   3.290
   88SLPC   H6Y 8555   0.040  -0.100   3.301
   88SLPC   C37 8556   0.063  -0.310   3.349
   88SLPC   H7X 8557   0.173  -0.304   3.333
   88SLPC   H7Y 8558   0.029  -0.409   3.310
   88SLPC   C38 8559   0.026  -0.303   3.499
   88SLPC   H8X 8560   0.088  -0.376   3.556
   88SLPC   H8Y 8561  -0.080  -0.337   3.509
   88SLPC   C39 8562   0.044  -0.165   3.568
   88SLPC   H9X 8563  -0.010  -0.086   3.513
   88SLPC   H9Y 8564   0.151  -0.137   3.563
   88SLPC  C310 8565   0.000  -0.158   3.716
   88SLPC  H10X 8566   0.088  -0.149   3.783
   88SLPC  H10Y 8567  -0.057  -0.249   3.744
   88SLPC  C311 8568  -0.092  -0.042   3.750
   88SLPC  H11X 8569  -0.110  -0.039   3.859
   88SLPC  H11Y 8570  -0.190  -0.055   3.705
   88SLPC  C312 8571  -0.058   0.096   3.704
   88SLPC  H12X 8572  -0.140   0.156   3.740
   88SLPC  H12Y 8573  -0.060   0.107   3.594
   88SLPC  C313 8574   0.063   0.147   3.774
   88SLPC  H13X 8575   0.151   0.113   3.715
   88SLPC  H13Y 8576   0.068   0.101   3.876
   88SLPC  C314 8577   0.050   0.298   3.787
   88SLPC  H14X 8578   0.023   0.335   3.887
   88SLPC  H14Y 8579   0.001   0.352   3.704
   88SLPC  C315 8580   0.181   0.350   3.783
   88SLPC  H15X 8581   0.184   0.462   3.781
   88SLPC  H15Y 8582   0.226   0.311   3.690
   88SLPC  C316 8583   0.251   0.284   3.901
   88SLPC  H16X 8584   0.298   0.382   3.906
   88SLPC  H16Y 8585   0.315   0.199   3.871
   88SLPC  C317 8586   0.214   0.270   4.044
   88SLPC  H17X 8587   0.133   0.200   4.046
   88SLPC  H17Y 8588   0.178   0.373   4.071
   88SLPC  C318 8589   0.326   0.207   4.134
   88SLPC  H18X 8590   0.378   0.230   4.228
   88SLPC  H18Y 8591   0.359   0.301   4.183
   88SLPC  H18Z 8592   0.379   0.115   4.121
   89SAPE     N 8593   4.052   2.602   6.447
   89SAPE   HN1 8594   4.039   2.688   6.390
   89SAPE   HN2 8595   3.990   2.607   6.530
   89SAPE   HN3 8596   4.152   2.594   6.477
   89SAPE   C12 8597   4.016   2.481   6.363
   89SAPE  H12A 8598   4.032   2.392   6.428
   89SAPE  H12B 8599   4.090   2.480   6.280
   89SAPE   C11 8600   3.872   2.479   6.304
   89SAPE  H11A 8601   3.802   2.428   6.374
   89SAPE  H11B 8602   3.871   2.414   6.212
   89SAPE     P 8603   3.703   2.637   6.177
   89SAPE   O13 8604   3.585   2.572   6.237
   89SAPE   O14 8605   3.698   2.783   6.150
   89SAPE   O12 8606   3.826   2.611   6.275
   89SAPE   O11 8607   3.745   2.559   6.047
   89SAPE    C1 8608   3.857   2.598   5.970
   89SAPE    HA 8609   3.940   2.639   6.031
   89SAPE    HB 8610   3.896   2.507   5.918
   89SAPE    C2 8611   3.823   2.706   5.864
   89SAPE    HS 8612   3.833   2.804   5.915
   89SAPE   O21 8613   3.692   2.699   5.806
   89SAPE   C21 8614   3.643   2.583   5.768
   89SAPE   O22 8615   3.696   2.474   5.762
   89SAPE   C22 8616   3.498   2.608   5.734
   89SAPE   H2R 8617   3.445   2.601   5.831
   89SAPE   H2S 8618   3.485   2.708   5.690
   89SAPE    C3 8619   3.921   2.702   5.749
   89SAPE    HX 8620   4.027   2.717   5.779
   89SAPE    HY 8621   3.890   2.797   5.693
   89SAPE   O31 8622   3.903   2.572   5.680
   89SAPE   C31 8623   3.944   2.593   5.559
   89SAPE   O32 8624   3.994   2.704   5.540
   89SAPE   C32 8625   3.930   2.456   5.468
   89SAPE   H2X 8626   3.827   2.421   5.481
   89SAPE   H2Y 8627   3.993   2.382   5.521
   89SAPE   C23 8628   3.441   2.505   5.636
   89SAPE   H3R 8629   3.331   2.512   5.640
   89SAPE   H3S 8630   3.473   2.403   5.672
   89SAPE   C24 8631   3.484   2.521   5.490
   89SAPE   H4R 8632   3.429   2.447   5.429
   89SAPE   H4S 8633   3.592   2.494   5.485
   89SAPE   C25 8634   3.437   2.634   5.411
   89SAPE   H5R 8635   3.330   2.651   5.421
   89SAPE   C26 8636   3.514   2.706   5.329
   89SAPE   H6R 8637   3.462   2.778   5.264
   89SAPE   C27 8638   3.662   2.686   5.303
   89SAPE   H7R 8639   3.679   2.656   5.198
   89SAPE   H7S 8640   3.707   2.604   5.363
   89SAPE   C28 8641   3.731   2.815   5.335
   89SAPE   H8R 8642   3.722   2.852   5.439
   89SAPE   C29 8643   3.807   2.883   5.247
   89SAPE   H9R 8644   3.863   2.970   5.285
   89SAPE  C210 8645   3.839   2.840   5.103
   89SAPE  H10R 8646   3.856   2.732   5.105
   89SAPE  H10S 8647   3.940   2.884   5.089
   89SAPE  C211 8648   3.743   2.879   4.988
   89SAPE  H11R 8649   3.637   2.870   5.019
   89SAPE  C212 8650   3.770   2.913   4.854
   89SAPE  H12R 8651   3.685   2.970   4.807
   89SAPE  C213 8652   3.909   2.949   4.781
   89SAPE  H13R 8653   3.963   2.972   4.868
   89SAPE  H13S 8654   3.898   3.041   4.733
   89SAPE  C214 8655   4.021   2.864   4.701
   89SAPE  H14R 8656   4.068   2.770   4.690
   89SAPE  C215 8657   4.096   2.878   4.598
   89SAPE  H15R 8658   4.171   2.799   4.568
   89SAPE  C216 8659   4.065   2.957   4.489
   89SAPE  H16R 8660   4.180   2.956   4.491
   89SAPE  H16S 8661   4.024   3.051   4.535
   89SAPE  C217 8662   4.010   2.879   4.367
   89SAPE  H17R 8663   4.067   2.935   4.292
   89SAPE  H17S 8664   3.901   2.901   4.364
   89SAPE  C218 8665   4.040   2.727   4.319
   89SAPE  H18R 8666   3.968   2.642   4.339
   89SAPE  H18S 8667   4.139   2.697   4.350
   89SAPE  C219 8668   4.035   2.685   4.177
   89SAPE  H19R 8669   4.046   2.572   4.170
   89SAPE  H19S 8670   4.125   2.739   4.144
   89SAPE  C220 8671   3.899   2.730   4.130
   89SAPE  H20R 8672   3.890   2.840   4.140
   89SAPE  H20S 8673   3.816   2.684   4.191
   89SAPE  H20T 8674   3.891   2.697   4.025
   89SAPE   C33 8675   3.960   2.429   5.310
   89SAPE   H3X 8676   4.050   2.459   5.261
   89SAPE   H3Y 8677   3.892   2.477   5.240
   89SAPE   C34 8678   4.022   2.296   5.276
   89SAPE   H4X 8679   4.098   2.267   5.354
   89SAPE   H4Y 8680   4.081   2.287   5.180
   89SAPE   C35 8681   3.901   2.216   5.260
   89SAPE   H5X 8682   3.822   2.227   5.336
   89SAPE   H5Y 8683   3.951   2.124   5.272
   89SAPE   C36 8684   3.856   2.186   5.122
   89SAPE   H6X 8685   3.810   2.086   5.136
   89SAPE   H6Y 8686   3.947   2.182   5.057
   89SAPE   C37 8687   3.765   2.279   5.051
   89SAPE   H7X 8688   3.745   2.235   4.950
   89SAPE   H7Y 8689   3.828   2.369   5.042
   89SAPE   C38 8690   3.636   2.307   5.125
   89SAPE   H8X 8691   3.660   2.325   5.233
   89SAPE   H8Y 8692   3.566   2.222   5.118
   89SAPE   C39 8693   3.557   2.423   5.066
   89SAPE   H9X 8694   3.632   2.503   5.051
   89SAPE   H9Y 8695   3.481   2.451   5.142
   89SAPE  C310 8696   3.484   2.396   4.934
   89SAPE  H10X 8697   3.402   2.322   4.949
   89SAPE  H10Y 8698   3.556   2.354   4.860
   89SAPE  C311 8699   3.414   2.523   4.879
   89SAPE  H11X 8700   3.349   2.567   4.958
   89SAPE  H11Y 8701   3.347   2.494   4.795
   89SAPE  C312 8702   3.507   2.634   4.830
   89SAPE  H12X 8703   3.566   2.672   4.917
   89SAPE  H12Y 8704   3.444   2.717   4.791
   89SAPE  C313 8705   3.602   2.591   4.719
   89SAPE  H13X 8706   3.672   2.513   4.756
   89SAPE  H13Y 8707   3.663   2.678   4.690
   89SAPE  C314 8708   3.533   2.539   4.593
   89SAPE  H14X 8709   3.474   2.621   4.546
   89SAPE  H14Y 8710   3.461   2.458   4.616
   89SAPE  C315 8711   3.639   2.486   4.496
   89SAPE  H15X 8712   3.699   2.564   4.453
   89SAPE  H15Y 8713   3.596   2.444   4.408
   89SAPE  C316 8714   3.712   2.357   4.525
   89SAPE  H16X 8715   3.641   2.276   4.551
   89SAPE  H16Y 8716   3.777   2.370   4.611
   89SAPE  C317 8717   3.783   2.312   4.398
   89SAPE  H17X 8718   3.850   2.393   4.361
   89SAPE  H17Y 8719   3.710   2.295   4.317
   89SAPE  C318 8720   3.854   2.180   4.419
   89SAPE  H18X 8721   3.932   2.165   4.342
   89SAPE  H18Y 8722   3.780   2.097   4.413
   89SAPE  H18Z 8723   3.900   2.179   4.521
   90SAPE     N 8724   5.116   3.055   6.395
   90SAPE   HN1 8725   5.071   3.136   6.445
   90SAPE   HN2 8726   5.042   2.984   6.383
   90SAPE   HN3 8727   5.197   3.019   6.448
   90SAPE   C12 8728   5.163   3.095   6.257
   90SAPE  H12A 8729   5.213   3.007   6.212
   90SAPE  H12B 8730   5.236   3.178   6.269
   90SAPE   C11 8731   5.048   3.135   6.164
   90SAPE  H11A 8732   4.992   3.044   6.134
   90SAPE  H11B 8733   5.089   3.179   6.071
   90SAPE     P 8734   4.981   3.380   6.240
   90SAPE   O13 8735   4.860   3.457   6.201
   90SAPE   O14 8736   5.035   3.401   6.375
   90SAPE   O12 8737   4.957   3.224   6.226
   90SAPE   O11 8738   5.096   3.413   6.137
   90SAPE    C1 8739   5.151   3.542   6.163
   90SAPE    HA 8740   5.074   3.622   6.163
   90SAPE    HB 8741   5.207   3.549   6.260
   90SAPE    C2 8742   5.254   3.579   6.058
   90SAPE    HS 8743   5.269   3.687   6.081
   90SAPE   O21 8744   5.218   3.560   5.921
   90SAPE   C21 8745   5.110   3.617   5.878
   90SAPE   O22 8746   5.041   3.700   5.936
   90SAPE   C22 8747   5.091   3.572   5.733
   90SAPE   H2R 8748   5.146   3.625   5.660
   90SAPE   H2S 8749   5.122   3.469   5.714
   90SAPE    C3 8750   5.384   3.499   6.085
   90SAPE    HX 8751   5.429   3.520   6.184
   90SAPE    HY 8752   5.452   3.557   6.035
   90SAPE   O31 8753   5.382   3.358   6.048
   90SAPE   C31 8754   5.427   3.291   5.942
   90SAPE   O32 8755   5.497   3.317   5.850
   90SAPE   C32 8756   5.382   3.154   5.931
   90SAPE   H2X 8757   5.282   3.151   5.975
   90SAPE   H2Y 8758   5.462   3.099   5.985
   90SAPE   C23 8759   4.951   3.598   5.695
   90SAPE   H3R 8760   4.907   3.698   5.722
   90SAPE   H3S 8761   4.917   3.518   5.761
   90SAPE   C24 8762   4.906   3.554   5.560
   90SAPE   H4R 8763   4.798   3.533   5.566
   90SAPE   H4S 8764   4.942   3.460   5.521
   90SAPE   C25 8765   4.930   3.652   5.459
   90SAPE   H5R 8766   4.889   3.750   5.483
   90SAPE   C26 8767   4.987   3.624   5.343
   90SAPE   H6R 8768   4.986   3.703   5.267
   90SAPE   C27 8769   5.038   3.492   5.297
   90SAPE   H7R 8770   5.075   3.507   5.193
   90SAPE   H7S 8771   4.961   3.413   5.298
   90SAPE   C28 8772   5.153   3.450   5.383
   90SAPE   H8R 8773   5.175   3.509   5.475
   90SAPE   C29 8774   5.246   3.368   5.344
   90SAPE   H9R 8775   5.330   3.380   5.408
   90SAPE  C210 8776   5.260   3.296   5.212
   90SAPE  H10R 8777   5.193   3.346   5.142
   90SAPE  H10S 8778   5.216   3.198   5.231
   90SAPE  C211 8779   5.389   3.261   5.141
   90SAPE  H11R 8780   5.472   3.254   5.201
   90SAPE  C212 8781   5.427   3.270   5.015
   90SAPE  H12R 8782   5.534   3.258   4.987
   90SAPE  C213 8783   5.335   3.324   4.912
   90SAPE  H13R 8784   5.239   3.276   4.906
   90SAPE  H13S 8785   5.385   3.329   4.813
   90SAPE  C214 8786   5.304   3.457   4.959
   90SAPE  H14R 8787   5.209   3.495   5.001
   90SAPE  C215 8788   5.394   3.538   4.929
   90SAPE  H15R 8789   5.347   3.632   4.948
   90SAPE  C216 8790   5.525   3.521   4.850
   90SAPE  H16R 8791   5.586   3.432   4.861
   90SAPE  H16S 8792   5.599   3.599   4.880
   90SAPE  C217 8793   5.513   3.516   4.694
   90SAPE  H17R 8794   5.607   3.501   4.645
   90SAPE  H17S 8795   5.516   3.612   4.663
   90SAPE  C218 8796   5.401   3.458   4.607
   90SAPE  H18R 8797   5.298   3.486   4.644
   90SAPE  H18S 8798   5.443   3.359   4.610
   90SAPE  C219 8799   5.401   3.476   4.457
   90SAPE  H19R 8800   5.489   3.499   4.386
   90SAPE  H19S 8801   5.329   3.561   4.476
   90SAPE  C220 8802   5.308   3.440   4.364
   90SAPE  H20R 8803   5.207   3.427   4.405
   90SAPE  H20S 8804   5.362   3.361   4.308
   90SAPE  H20T 8805   5.301   3.533   4.298
   90SAPE   C33 8806   5.392   3.119   5.778
   90SAPE   H3X 8807   5.361   3.014   5.768
   90SAPE   H3Y 8808   5.498   3.122   5.741
   90SAPE   C34 8809   5.306   3.204   5.680
   90SAPE   H4X 8810   5.343   3.188   5.577
   90SAPE   H4Y 8811   5.321   3.313   5.703
   90SAPE   C35 8812   5.155   3.182   5.690
   90SAPE   H5X 8813   5.109   3.275   5.651
   90SAPE   H5Y 8814   5.129   3.170   5.797
   90SAPE   C36 8815   5.092   3.068   5.609
   90SAPE   H6X 8816   4.985   3.062   5.639
   90SAPE   H6Y 8817   5.137   2.970   5.633
   90SAPE   C37 8818   5.095   3.092   5.458
   90SAPE   H7X 8819   5.201   3.083   5.426
   90SAPE   H7Y 8820   5.054   3.191   5.430
   90SAPE   C38 8821   5.013   2.988   5.384
   90SAPE   H8X 8822   4.910   2.978   5.425
   90SAPE   H8Y 8823   5.077   2.904   5.412
   90SAPE   C39 8824   5.017   2.984   5.233
   90SAPE   H9X 8825   4.976   2.888   5.194
   90SAPE   H9Y 8826   5.124   2.985   5.204
   90SAPE  C310 8827   4.936   3.098   5.173
   90SAPE  H10X 8828   4.955   3.192   5.229
   90SAPE  H10Y 8829   4.828   3.072   5.182
   90SAPE  C311 8830   4.978   3.123   5.029
   90SAPE  H11X 8831   4.964   3.033   4.965
   90SAPE  H11Y 8832   5.084   3.153   5.026
   90SAPE  C312 8833   4.891   3.225   4.961
   90SAPE  H12X 8834   4.904   3.325   5.010
   90SAPE  H12Y 8835   4.786   3.195   4.987
   90SAPE  C313 8836   4.912   3.215   4.806
   90SAPE  H13X 8837   4.849   3.133   4.768
   90SAPE  H13Y 8838   5.020   3.210   4.782
   90SAPE  C314 8839   4.868   3.337   4.731
   90SAPE  H14X 8840   4.919   3.392   4.805
   90SAPE  H14Y 8841   4.766   3.351   4.728
   90SAPE  C315 8842   4.911   3.428   4.623
   90SAPE  H15X 8843   4.904   3.354   4.547
   90SAPE  H15Y 8844   5.016   3.455   4.625
   90SAPE  C316 8845   4.818   3.553   4.603
   90SAPE  H16X 8846   4.787   3.616   4.686
   90SAPE  H16Y 8847   4.714   3.541   4.572
   90SAPE  C317 8848   4.876   3.627   4.489
   90SAPE  H17X 8849   4.974   3.668   4.511
   90SAPE  H17Y 8850   4.800   3.704   4.455
   90SAPE  C318 8851   4.923   3.537   4.385
   90SAPE  H18X 8852   4.908   3.431   4.370
   90SAPE  H18Y 8853   4.964   3.579   4.296
   90SAPE  H18Z 8854   4.821   3.544   4.362
   91SAPE     N 8855   1.837   3.287   6.534
   91SAPE   HN1 8856   1.928   3.327   6.565
   91SAPE   HN2 8857   1.767   3.363   6.544
   91SAPE   HN3 8858   1.808   3.203   6.590
   91SAPE   C12 8859   1.841   3.252   6.388
   91SAPE  H12A 8860   1.735   3.240   6.355
   91SAPE  H12B 8861   1.893   3.155   6.377
   91SAPE   C11 8862   1.906   3.365   6.308
   91SAPE  H11A 8863   1.944   3.324   6.210
   91SAPE  H11B 8864   1.995   3.408   6.360
   91SAPE     P 8865   1.809   3.555   6.156
   91SAPE   O13 8866   1.673   3.602   6.137
   91SAPE   O14 8867   1.917   3.654   6.167
   91SAPE   O12 8868   1.810   3.468   6.290
   91SAPE   O11 8869   1.841   3.445   6.045
   91SAPE    C1 8870   1.753   3.341   6.000
   91SAPE    HA 8871   1.787   3.244   6.039
   91SAPE    HB 8872   1.657   3.344   6.050
   91SAPE    C2 8873   1.741   3.341   5.843
   91SAPE    HS 8874   1.833   3.288   5.813
   91SAPE   O21 8875   1.735   3.477   5.794
   91SAPE   C21 8876   1.821   3.504   5.697
   91SAPE   O22 8877   1.875   3.420   5.627
   91SAPE   C22 8878   1.838   3.654   5.674
   91SAPE   H2R 8879   1.802   3.714   5.760
   91SAPE   H2S 8880   1.938   3.683   5.643
   91SAPE    C3 8881   1.620   3.262   5.782
   91SAPE    HX 8882   1.522   3.312   5.790
   91SAPE    HY 8883   1.608   3.172   5.840
   91SAPE   O31 8884   1.635   3.230   5.643
   91SAPE   C31 8885   1.731   3.144   5.615
   91SAPE   O32 8886   1.796   3.078   5.694
   91SAPE   C32 8887   1.751   3.137   5.466
   91SAPE   H2X 8888   1.803   3.043   5.442
   91SAPE   H2Y 8889   1.813   3.223   5.435
   91SAPE   C23 8890   1.767   3.684   5.545
   91SAPE   H3R 8891   1.678   3.665   5.598
   91SAPE   H3S 8892   1.779   3.611   5.462
   91SAPE   C24 8893   1.738   3.821   5.497
   91SAPE   H4R 8894   1.833   3.874   5.497
   91SAPE   H4S 8895   1.669   3.872   5.570
   91SAPE   C25 8896   1.677   3.805   5.358
   91SAPE   H5R 8897   1.567   3.800   5.351
   91SAPE   C26 8898   1.723   3.831   5.238
   91SAPE   H6R 8899   1.648   3.839   5.157
   91SAPE   C27 8900   1.853   3.884   5.203
   91SAPE   H7R 8901   1.830   3.988   5.209
   91SAPE   H7S 8902   1.865   3.861   5.097
   91SAPE   C28 8903   1.971   3.854   5.291
   91SAPE   H8R 8904   1.998   3.931   5.365
   91SAPE   C29 8905   2.036   3.739   5.297
   91SAPE   H9R 8906   2.118   3.728   5.369
   91SAPE  C210 8907   2.001   3.621   5.214
   91SAPE  H10R 8908   2.085   3.609   5.148
   91SAPE  H10S 8909   1.915   3.638   5.146
   91SAPE  C211 8910   1.968   3.501   5.299
   91SAPE  H11R 8911   1.943   3.527   5.403
   91SAPE  C212 8912   2.003   3.374   5.274
   91SAPE  H12R 8913   1.988   3.300   5.355
   91SAPE  C213 8914   2.082   3.327   5.155
   91SAPE  H13R 8915   2.183   3.297   5.187
   91SAPE  H13S 8916   2.102   3.410   5.086
   91SAPE  C214 8917   2.017   3.211   5.086
   91SAPE  H14R 8918   1.991   3.125   5.150
   91SAPE  C215 8919   1.994   3.205   4.954
   91SAPE  H15R 8920   1.942   3.117   4.913
   91SAPE  C216 8921   2.031   3.314   4.858
   91SAPE  H16R 8922   2.127   3.363   4.887
   91SAPE  H16S 8923   1.955   3.394   4.853
   91SAPE  C217 8924   2.051   3.263   4.715
   91SAPE  H17R 8925   1.967   3.203   4.677
   91SAPE  H17S 8926   2.129   3.186   4.719
   91SAPE  C218 8927   2.072   3.390   4.628
   91SAPE  H18R 8928   2.150   3.456   4.675
   91SAPE  H18S 8929   1.978   3.444   4.623
   91SAPE  C219 8930   2.097   3.383   4.478
   91SAPE  H19R 8931   2.198   3.402   4.485
   91SAPE  H19S 8932   2.106   3.474   4.419
   91SAPE  C220 8933   2.050   3.257   4.404
   91SAPE  H20R 8934   1.958   3.289   4.354
   91SAPE  H20S 8935   2.050   3.166   4.468
   91SAPE  H20T 8936   2.098   3.207   4.321
   91SAPE   C33 8937   1.627   3.150   5.380
   91SAPE   H3X 8938   1.556   3.230   5.409
   91SAPE   H3Y 8939   1.567   3.061   5.386
   91SAPE   C34 8940   1.680   3.138   5.237
   91SAPE   H4X 8941   1.720   3.034   5.220
   91SAPE   H4Y 8942   1.734   3.226   5.204
   91SAPE   C35 8943   1.577   3.147   5.138
   91SAPE   H5X 8944   1.513   3.238   5.153
   91SAPE   H5Y 8945   1.538   3.046   5.174
   91SAPE   C36 8946   1.589   3.142   4.992
   91SAPE   H6X 8947   1.576   3.240   4.943
   91SAPE   H6Y 8948   1.489   3.131   4.960
   91SAPE   C37 8949   1.638   3.008   4.940
   91SAPE   H7X 8950   1.574   2.916   4.950
   91SAPE   H7Y 8951   1.727   2.992   5.000
   91SAPE   C38 8952   1.662   3.029   4.797
   91SAPE   H8X 8953   1.730   2.957   4.748
   91SAPE   H8Y 8954   1.686   3.136   4.785
   91SAPE   C39 8955   1.537   3.007   4.729
   91SAPE   H9X 8956   1.468   3.091   4.756
   91SAPE   H9Y 8957   1.495   2.901   4.731
   91SAPE  C310 8958   1.540   3.041   4.600
   91SAPE  H10X 8959   1.475   2.988   4.535
   91SAPE  H10Y 8960   1.578   2.947   4.565
   91SAPE  C311 8961   1.573   3.194   4.585
   91SAPE  H11X 8962   1.593   3.246   4.492
   91SAPE  H11Y 8963   1.653   3.240   4.639
   91SAPE  C312 8964   1.468   3.280   4.576
   91SAPE  H12X 8965   1.481   3.382   4.537
   91SAPE  H12Y 8966   1.404   3.246   4.660
   91SAPE  C313 8967   1.384   3.285   4.468
   91SAPE  H13X 8968   1.289   3.257   4.518
   91SAPE  H13Y 8969   1.337   3.186   4.479
   91SAPE  C314 8970   1.410   3.389   4.335
   91SAPE  H14X 8971   1.335   3.402   4.249
   91SAPE  H14Y 8972   1.486   3.355   4.267
   91SAPE  C315 8973   1.399   3.532   4.322
   91SAPE  H15X 8974   1.503   3.548   4.348
   91SAPE  H15Y 8975   1.328   3.582   4.385
   91SAPE  C316 8976   1.351   3.594   4.194
   91SAPE  H16X 8977   1.242   3.576   4.167
   91SAPE  H16Y 8978   1.406   3.561   4.103
   91SAPE  C317 8979   1.378   3.735   4.248
   91SAPE  H17X 8980   1.417   3.797   4.167
   91SAPE  H17Y 8981   1.469   3.730   4.311
   91SAPE  C318 8982   1.256   3.796   4.322
   91SAPE  H18X 8983   1.167   3.783   4.260
   91SAPE  H18Y 8984   1.265   3.904   4.340
   91SAPE  H18Z 8985   1.228   3.746   4.418
   92SAPE     N 8986   3.245   5.570   6.337
   92SAPE   HN1 8987   3.161   5.574   6.398
   92SAPE   HN2 8988   3.314   5.509   6.383
   92SAPE   HN3 8989   3.278   5.668   6.328
   92SAPE   C12 8990   3.195   5.526   6.202
   92SAPE  H12A 8991   3.129   5.439   6.220
   92SAPE  H12B 8992   3.280   5.491   6.141
   92SAPE   C11 8993   3.119   5.642   6.138
   92SAPE  H11A 8994   3.070   5.612   6.043
   92SAPE  H11B 8995   3.187   5.726   6.112
   92SAPE     P 8996   2.888   5.628   6.270
   92SAPE   O13 8997   2.894   5.603   6.416
   92SAPE   O14 8998   2.775   5.706   6.216
   92SAPE   O12 8999   3.025   5.694   6.230
   92SAPE   O11 9000   2.892   5.486   6.201
   92SAPE    C1 9001   2.853   5.373   6.283
   92SAPE    HA 9002   2.944   5.329   6.330
   92SAPE    HB 9003   2.776   5.397   6.359
   92SAPE    C2 9004   2.787   5.259   6.209
   92SAPE    HS 9005   2.733   5.181   6.263
   92SAPE   O21 9006   2.903   5.193   6.160
   92SAPE   C21 9007   3.030   5.139   6.174
   92SAPE   O22 9008   3.063   5.090   6.278
   92SAPE   C22 9009   3.133   5.146   6.040
   92SAPE   H2R 9010   3.235   5.119   6.069
   92SAPE   H2S 9011   3.116   5.060   5.973
   92SAPE    C3 9012   2.677   5.320   6.100
   92SAPE    HX 9013   2.615   5.389   6.162
   92SAPE    HY 9014   2.601   5.245   6.068
   92SAPE   O31 9015   2.722   5.403   5.989
   92SAPE   C31 9016   2.684   5.382   5.862
   92SAPE   O32 9017   2.617   5.293   5.816
   92SAPE   C32 9018   2.739   5.482   5.766
   92SAPE   H2X 9019   2.842   5.516   5.797
   92SAPE   H2Y 9020   2.669   5.564   5.771
   92SAPE   C23 9021   3.158   5.282   5.954
   92SAPE   H3R 9022   3.122   5.369   6.007
   92SAPE   H3S 9023   3.090   5.313   5.880
   92SAPE   C24 9024   3.257   5.279   5.835
   92SAPE   H4R 9025   3.254   5.179   5.787
   92SAPE   H4S 9026   3.345   5.294   5.897
   92SAPE   C25 9027   3.267   5.380   5.722
   92SAPE   H5R 9028   3.238   5.485   5.751
   92SAPE   C26 9029   3.264   5.343   5.591
   92SAPE   H6R 9030   3.243   5.432   5.525
   92SAPE   C27 9031   3.247   5.199   5.521
   92SAPE   H7R 9032   3.344   5.155   5.527
   92SAPE   H7S 9033   3.231   5.234   5.416
   92SAPE   C28 9034   3.147   5.074   5.548
   92SAPE   H8R 9035   3.137   5.068   5.658
   92SAPE   C29 9036   3.049   4.997   5.475
   92SAPE   H9R 9037   2.949   4.981   5.527
   92SAPE  C210 9038   3.006   5.010   5.328
   92SAPE  H10R 9039   3.055   4.923   5.292
   92SAPE  H10S 9040   3.066   5.089   5.279
   92SAPE  C211 9041   2.898   4.974   5.231
   92SAPE  H11R 9042   2.798   4.995   5.285
   92SAPE  C212 9043   2.900   5.040   5.110
   92SAPE  H12R 9044   2.820   5.088   5.101
   92SAPE  C213 9045   2.971   5.151   5.026
   92SAPE  H13R 9046   3.049   5.213   5.074
   92SAPE  H13S 9047   2.908   5.243   4.994
   92SAPE  C214 9048   2.993   5.088   4.901
   92SAPE  H14R 9049   3.100   5.075   4.895
   92SAPE  C215 9050   2.914   5.075   4.794
   92SAPE  H15R 9051   2.935   4.989   4.734
   92SAPE  C216 9052   2.775   5.120   4.765
   92SAPE  H16R 9053   2.728   5.148   4.853
   92SAPE  H16S 9054   2.717   5.032   4.732
   92SAPE  C217 9055   2.737   5.248   4.691
   92SAPE  H17R 9056   2.774   5.236   4.589
   92SAPE  H17S 9057   2.789   5.336   4.740
   92SAPE  C218 9058   2.588   5.279   4.680
   92SAPE  H18R 9059   2.548   5.315   4.776
   92SAPE  H18S 9060   2.500   5.222   4.677
   92SAPE  C219 9061   2.554   5.360   4.561
   92SAPE  H19R 9062   2.641   5.415   4.521
   92SAPE  H19S 9063   2.495   5.427   4.621
   92SAPE  C220 9064   2.443   5.314   4.475
   92SAPE  H20R 9065   2.485   5.224   4.430
   92SAPE  H20S 9066   2.418   5.390   4.400
   92SAPE  H20T 9067   2.354   5.299   4.543
   92SAPE   C33 9068   2.732   5.435   5.620
   92SAPE   H3X 9069   2.638   5.395   5.581
   92SAPE   H3Y 9070   2.766   5.331   5.606
   92SAPE   C34 9071   2.809   5.553   5.542
   92SAPE   H4X 9072   2.913   5.575   5.575
   92SAPE   H4Y 9073   2.746   5.638   5.552
   92SAPE   C35 9074   2.836   5.542   5.393
   92SAPE   H5X 9075   2.749   5.532   5.335
   92SAPE   H5Y 9076   2.826   5.453   5.440
   92SAPE   C36 9077   2.969   5.544   5.310
   92SAPE   H6X 9078   2.956   5.510   5.204
   92SAPE   H6Y 9079   3.062   5.494   5.340
   92SAPE   C37 9080   3.025   5.677   5.332
   92SAPE   H7X 9081   3.122   5.688   5.280
   92SAPE   H7Y 9082   3.044   5.674   5.442
   92SAPE   C38 9083   2.924   5.782   5.295
   92SAPE   H8X 9084   2.970   5.874   5.334
   92SAPE   H8Y 9085   2.826   5.770   5.348
   92SAPE   C39 9086   2.900   5.789   5.145
   92SAPE   H9X 9087   2.822   5.863   5.120
   92SAPE   H9Y 9088   2.862   5.695   5.108
   92SAPE  C310 9089   3.023   5.809   5.057
   92SAPE  H10X 9090   3.081   5.714   5.055
   92SAPE  H10Y 9091   3.087   5.886   5.105
   92SAPE  C311 9092   2.976   5.851   4.917
   92SAPE  H11X 9093   2.916   5.944   4.925
   92SAPE  H11Y 9094   2.908   5.772   4.877
   92SAPE  C312 9095   3.087   5.883   4.815
   92SAPE  H12X 9096   3.135   5.976   4.853
   92SAPE  H12Y 9097   3.042   5.906   4.716
   92SAPE  C313 9098   3.193   5.774   4.800
   92SAPE  H13X 9099   3.228   5.753   4.903
   92SAPE  H13Y 9100   3.281   5.813   4.744
   92SAPE  C314 9101   3.142   5.641   4.739
   92SAPE  H14X 9102   3.055   5.608   4.801
   92SAPE  H14Y 9103   3.223   5.566   4.755
   92SAPE  C315 9104   3.095   5.636   4.591
   92SAPE  H15X 9105   3.011   5.710   4.577
   92SAPE  H15Y 9106   3.055   5.535   4.569
   92SAPE  C316 9107   3.198   5.661   4.477
   92SAPE  H16X 9108   3.217   5.769   4.505
   92SAPE  H16Y 9109   3.151   5.666   4.379
   92SAPE  C317 9110   3.322   5.559   4.462
   92SAPE  H17X 9111   3.320   5.457   4.500
   92SAPE  H17Y 9112   3.339   5.607   4.558
   92SAPE  C318 9113   3.447   5.553   4.354
   92SAPE  H18X 9114   3.487   5.646   4.315
   92SAPE  H18Y 9115   3.417   5.569   4.253
   92SAPE  H18Z 9116   3.554   5.556   4.391
   93SAPE     N 9117   5.722   3.492   6.500
   93SAPE   HN1 9118   5.820   3.459   6.518
   93SAPE   HN2 9119   5.722   3.596   6.494
   93SAPE   HN3 9120   5.657   3.458   6.575
   93SAPE   C12 9121   5.676   3.443   6.365
   93SAPE  H12A 9122   5.694   3.525   6.292
   93SAPE  H12B 9123   5.567   3.426   6.369
   93SAPE   C11 9124   5.747   3.313   6.325
   93SAPE  H11A 9125   5.697   3.274   6.233
   93SAPE  H11B 9126   5.731   3.237   6.405
   93SAPE     P 9127   5.950   3.322   6.160
   93SAPE   O13 9128   6.094   3.351   6.157
   93SAPE   O14 9129   5.895   3.203   6.093
   93SAPE   O12 9130   5.889   3.332   6.308
   93SAPE   O11 9131   5.877   3.443   6.100
   93SAPE    C1 9132   5.923   3.573   6.131
   93SAPE    HA 9133   5.868   3.617   6.218
   93SAPE    HB 9134   6.034   3.587   6.145
   93SAPE    C2 9135   5.896   3.655   6.011
   93SAPE    HS 9136   5.874   3.753   6.062
   93SAPE   O21 9137   5.791   3.620   5.928
   93SAPE   C21 9138   5.679   3.613   5.977
   93SAPE   O22 9139   5.640   3.640   6.091
   93SAPE   C22 9140   5.600   3.542   5.869
   93SAPE   H2R 9141   5.625   3.451   5.920
   93SAPE   H2S 9142   5.490   3.553   5.865
   93SAPE    C3 9143   6.007   3.662   5.904
   93SAPE    HX 9144   6.103   3.693   5.938
   93SAPE    HY 9145   5.976   3.727   5.819
   93SAPE   O31 9146   6.045   3.540   5.857
   93SAPE   C31 9147   5.988   3.503   5.749
   93SAPE   O32 9148   5.921   3.569   5.671
   93SAPE   C32 9149   6.052   3.368   5.737
   93SAPE   H2X 9150   6.063   3.326   5.839
   93SAPE   H2Y 9151   6.153   3.389   5.697
   93SAPE   C23 9152   5.636   3.532   5.720
   93SAPE   H3R 9153   5.700   3.447   5.697
   93SAPE   H3S 9154   5.702   3.620   5.708
   93SAPE   C24 9155   5.513   3.531   5.626
   93SAPE   H4R 9156   5.472   3.625   5.602
   93SAPE   H4S 9157   5.409   3.495   5.640
   93SAPE   C25 9158   5.577   3.542   5.502
   93SAPE   H5R 9159   5.602   3.642   5.478
   93SAPE   C26 9160   5.593   3.449   5.416
   93SAPE   H6R 9161   5.624   3.468   5.314
   93SAPE   C27 9162   5.540   3.321   5.447
   93SAPE   H7R 9163   5.486   3.302   5.361
   93SAPE   H7S 9164   5.468   3.322   5.529
   93SAPE   C28 9165   5.659   3.241   5.462
   93SAPE   H8R 9166   5.714   3.264   5.552
   93SAPE   C29 9167   5.704   3.157   5.371
   93SAPE   H9R 9168   5.798   3.108   5.395
   93SAPE  C210 9169   5.642   3.127   5.240
   93SAPE  H10R 9170   5.661   3.206   5.164
   93SAPE  H10S 9171   5.536   3.095   5.250
   93SAPE  C211 9172   5.689   3.006   5.187
   93SAPE  H11R 9173   5.652   2.925   5.246
   93SAPE  C212 9174   5.758   2.983   5.082
   93SAPE  H12R 9175   5.782   2.881   5.083
   93SAPE  C213 9176   5.817   3.068   4.976
   93SAPE  H13R 9177   5.912   3.018   4.945
   93SAPE  H13S 9178   5.841   3.164   5.024
   93SAPE  C214 9179   5.721   3.088   4.861
   93SAPE  H14R 9180   5.618   3.109   4.892
   93SAPE  C215 9181   5.741   3.074   4.729
   93SAPE  H15R 9182   5.651   3.082   4.666
   93SAPE  C216 9183   5.867   3.033   4.657
   93SAPE  H16R 9184   5.839   2.972   4.567
   93SAPE  H16S 9185   5.929   2.966   4.722
   93SAPE  C217 9186   5.963   3.145   4.614
   93SAPE  H17R 9187   6.053   3.098   4.567
   93SAPE  H17S 9188   5.998   3.200   4.704
   93SAPE  C218 9189   5.905   3.245   4.514
   93SAPE  H18R 9190   5.831   3.309   4.567
   93SAPE  H18S 9191   5.852   3.194   4.430
   93SAPE  C219 9192   6.012   3.335   4.454
   93SAPE  H19R 9193   6.094   3.273   4.412
   93SAPE  H19S 9194   6.054   3.397   4.537
   93SAPE  C220 9195   5.953   3.425   4.346
   93SAPE  H20R 9196   5.905   3.367   4.265
   93SAPE  H20S 9197   6.032   3.484   4.299
   93SAPE  H20T 9198   5.878   3.494   4.390
   93SAPE   C33 9199   5.970   3.272   5.651
   93SAPE   H3X 9200   5.954   3.322   5.553
   93SAPE   H3Y 9201   5.869   3.255   5.696
   93SAPE   C34 9202   6.036   3.135   5.634
   93SAPE   H4X 9203   5.969   3.077   5.568
   93SAPE   H4Y 9204   6.044   3.082   5.732
   93SAPE   C35 9205   6.174   3.136   5.569
   93SAPE   H5X 9206   6.205   3.032   5.549
   93SAPE   H5Y 9207   6.245   3.180   5.643
   93SAPE   C36 9208   6.170   3.218   5.440
   93SAPE   H6X 9209   6.265   3.223   5.385
   93SAPE   H6Y 9210   6.144   3.321   5.473
   93SAPE   C37 9211   6.092   3.165   5.319
   93SAPE   H7X 9212   5.995   3.127   5.352
   93SAPE   H7Y 9213   6.154   3.081   5.280
   93SAPE   C38 9214   6.071   3.265   5.203
   93SAPE   H8X 9215   6.013   3.216   5.122
   93SAPE   H8Y 9216   6.166   3.300   5.157
   93SAPE   C39 9217   5.988   3.383   5.249
   93SAPE   H9X 9218   6.031   3.430   5.340
   93SAPE   H9Y 9219   5.885   3.348   5.272
   93SAPE  C310 9220   5.983   3.492   5.147
   93SAPE  H10X 9221   5.963   3.456   5.044
   93SAPE  H10Y 9222   6.082   3.544   5.148
   93SAPE  C311 9223   5.873   3.588   5.183
   93SAPE  H11X 9224   5.879   3.621   5.290
   93SAPE  H11Y 9225   5.771   3.551   5.165
   93SAPE  C312 9226   5.902   3.706   5.098
   93SAPE  H12X 9227   6.001   3.729   5.137
   93SAPE  H12Y 9228   5.834   3.786   5.127
   93SAPE  C313 9229   5.949   3.710   4.957
   93SAPE  H13X 9230   6.045   3.655   4.951
   93SAPE  H13Y 9231   5.966   3.813   4.918
   93SAPE  C314 9232   5.850   3.644   4.873
   93SAPE  H14X 9233   5.759   3.700   4.879
   93SAPE  H14Y 9234   5.826   3.546   4.917
   93SAPE  C315 9235   5.894   3.649   4.731
   93SAPE  H15X 9236   5.878   3.548   4.690
   93SAPE  H15Y 9237   6.000   3.683   4.724
   93SAPE  C316 9238   5.836   3.765   4.654
   93SAPE  H16X 9239   5.871   3.753   4.547
   93SAPE  H16Y 9240   5.831   3.866   4.697
   93SAPE  C317 9241   5.697   3.770   4.632
   93SAPE  H17X 9242   5.616   3.762   4.683
   93SAPE  H17Y 9243   5.696   3.663   4.589
   93SAPE  C318 9244   5.645   3.916   4.587
   93SAPE  H18X 9245   5.544   3.938   4.625
   93SAPE  H18Y 9246   5.554   3.927   4.525
   93SAPE  H18Z 9247   5.688   3.941   4.489
   94SAPE     N 9248   4.135   5.708   6.084
   94SAPE   HN1 9249   4.066   5.669   6.015
   94SAPE   HN2 9250   4.222   5.732   6.033
   94SAPE   HN3 9251   4.155   5.631   6.150
   94SAPE   C12 9252   4.080   5.824   6.161
   94SAPE  H12A 9253   3.996   5.788   6.224
   94SAPE  H12B 9254   4.043   5.900   6.089
   94SAPE   C11 9255   4.190   5.880   6.249
   94SAPE  H11A 9256   4.270   5.924   6.186
   94SAPE  H11B 9257   4.240   5.802   6.309
   94SAPE     P 9258   4.107   6.120   6.306
   94SAPE   O13 9259   3.978   6.124   6.233
   94SAPE   O14 9260   4.127   6.205   6.424
   94SAPE   O12 9261   4.132   5.970   6.343
   94SAPE   O11 9262   4.223   6.140   6.209
   94SAPE    C1 9263   4.223   6.257   6.132
   94SAPE    HA 9264   4.145   6.337   6.146
   94SAPE    HB 9265   4.308   6.302   6.183
   94SAPE    C2 9266   4.228   6.211   5.985
   94SAPE    HS 9267   4.243   6.302   5.921
   94SAPE   O21 9268   4.109   6.139   5.953
   94SAPE   C21 9269   4.035   6.190   5.859
   94SAPE   O22 9270   4.052   6.294   5.797
   94SAPE   C22 9271   3.918   6.095   5.837
   94SAPE   H2R 9272   3.909   6.028   5.925
   94SAPE   H2S 9273   3.826   6.157   5.832
   94SAPE    C3 9274   4.350   6.111   5.969
   94SAPE    HX 9275   4.336   6.024   6.031
   94SAPE    HY 9276   4.442   6.155   6.016
   94SAPE   O31 9277   4.370   6.050   5.838
   94SAPE   C31 9278   4.432   6.145   5.773
   94SAPE   O32 9279   4.439   6.254   5.824
   94SAPE   C32 9280   4.460   6.095   5.623
   94SAPE   H2X 9281   4.357   6.114   5.592
   94SAPE   H2Y 9282   4.437   5.992   5.611
   94SAPE   C23 9283   3.934   6.011   5.707
   94SAPE   H3R 9284   3.984   6.068   5.626
   94SAPE   H3S 9285   3.831   5.990   5.669
   94SAPE   C24 9286   4.001   5.874   5.729
   94SAPE   H4R 9287   3.968   5.812   5.643
   94SAPE   H4S 9288   3.955   5.824   5.817
   94SAPE   C25 9289   4.151   5.869   5.742
   94SAPE   H5R 9290   4.197   5.890   5.840
   94SAPE   C26 9291   4.232   5.844   5.638
   94SAPE   H6R 9292   4.340   5.840   5.655
   94SAPE   C27 9293   4.183   5.819   5.498
   94SAPE   H7R 9294   4.122   5.906   5.466
   94SAPE   H7S 9295   4.112   5.733   5.497
   94SAPE   C28 9296   4.298   5.799   5.402
   94SAPE   H8R 9297   4.395   5.772   5.446
   94SAPE   C29 9298   4.294   5.825   5.271
   94SAPE   H9R 9299   4.384   5.806   5.211
   94SAPE  C210 9300   4.176   5.877   5.193
   94SAPE  H10R 9301   4.097   5.923   5.258
   94SAPE  H10S 9302   4.129   5.787   5.157
   94SAPE  C211 9303   4.210   5.967   5.077
   94SAPE  H11R 9304   4.222   6.072   5.107
   94SAPE  C212 9305   4.234   5.937   4.946
   94SAPE  H12R 9306   4.256   6.022   4.881
   94SAPE  C213 9307   4.238   5.808   4.866
   94SAPE  H13R 9308   4.178   5.732   4.900
   94SAPE  H13S 9309   4.333   5.754   4.881
   94SAPE  C214 9310   4.184   5.802   4.727
   94SAPE  H14R 9311   4.081   5.763   4.715
   94SAPE  C215 9312   4.251   5.838   4.619
   94SAPE  H15R 9313   4.205   5.818   4.522
   94SAPE  C216 9314   4.391   5.893   4.618
   94SAPE  H16R 9315   4.462   5.815   4.582
   94SAPE  H16S 9316   4.423   5.926   4.719
   94SAPE  C217 9317   4.408   6.006   4.515
   94SAPE  H17R 9318   4.509   6.052   4.526
   94SAPE  H17S 9319   4.333   6.086   4.534
   94SAPE  C218 9320   4.397   5.946   4.374
   94SAPE  H18R 9321   4.289   5.927   4.350
   94SAPE  H18S 9322   4.455   5.852   4.364
   94SAPE  C219 9323   4.450   6.035   4.268
   94SAPE  H19R 9324   4.412   6.002   4.167
   94SAPE  H19S 9325   4.559   6.051   4.255
   94SAPE  C220 9326   4.397   6.165   4.305
   94SAPE  H20R 9327   4.291   6.152   4.272
   94SAPE  H20S 9328   4.461   6.235   4.246
   94SAPE  H20T 9329   4.374   6.219   4.396
   94SAPE   C33 9330   4.587   6.123   5.523
   94SAPE   H3X 9331   4.671   6.074   5.573
   94SAPE   H3Y 9332   4.641   6.217   5.505
   94SAPE   C34 9333   4.584   6.109   5.370
   94SAPE   H4X 9334   4.536   6.012   5.355
   94SAPE   H4Y 9335   4.691   6.117   5.337
   94SAPE   C35 9336   4.516   6.215   5.280
   94SAPE   H5X 9337   4.544   6.322   5.289
   94SAPE   H5Y 9338   4.410   6.195   5.297
   94SAPE   C36 9339   4.523   6.189   5.133
   94SAPE   H6X 9340   4.467   6.094   5.121
   94SAPE   H6Y 9341   4.630   6.179   5.107
   94SAPE   C37 9342   4.457   6.292   5.042
   94SAPE   H7X 9343   4.488   6.396   5.066
   94SAPE   H7Y 9344   4.347   6.286   5.054
   94SAPE   C38 9345   4.483   6.246   4.899
   94SAPE   H8X 9346   4.442   6.142   4.892
   94SAPE   H8Y 9347   4.591   6.245   4.877
   94SAPE   C39 9348   4.412   6.325   4.793
   94SAPE   H9X 9349   4.436   6.282   4.693
   94SAPE   H9Y 9350   4.448   6.431   4.797
   94SAPE  C310 9351   4.262   6.319   4.812
   94SAPE  H10X 9352   4.243   6.395   4.888
   94SAPE  H10Y 9353   4.213   6.225   4.838
   94SAPE  C311 9354   4.193   6.377   4.698
   94SAPE  H11X 9355   4.228   6.343   4.598
   94SAPE  H11Y 9356   4.237   6.477   4.712
   94SAPE  C312 9357   4.043   6.369   4.712
   94SAPE  H12X 9358   3.991   6.466   4.739
   94SAPE  H12Y 9359   4.001   6.288   4.773
   94SAPE  C313 9360   3.993   6.336   4.577
   94SAPE  H13X 9361   4.045   6.424   4.531
   94SAPE  H13Y 9362   3.881   6.341   4.588
   94SAPE  C314 9363   4.028   6.228   4.473
   94SAPE  H14X 9364   4.006   6.136   4.530
   94SAPE  H14Y 9365   4.135   6.242   4.446
   94SAPE  C315 9366   3.941   6.200   4.344
   94SAPE  H15X 9367   3.833   6.185   4.359
   94SAPE  H15Y 9368   3.990   6.113   4.295
   94SAPE  C316 9369   3.940   6.289   4.226
   94SAPE  H16X 9370   4.048   6.324   4.226
   94SAPE  H16Y 9371   3.888   6.381   4.231
   94SAPE  C317 9372   3.846   6.271   4.098
   94SAPE  H17X 9373   3.814   6.370   4.056
   94SAPE  H17Y 9374   3.747   6.237   4.126
   94SAPE  C318 9375   3.910   6.204   3.979
   94SAPE  H18X 9376   3.876   6.209   3.875
   94SAPE  H18Y 9377   3.921   6.100   4.015
   94SAPE  H18Z 9378   4.009   6.254   3.964
   95SAPE     N 9379   0.902   3.407   6.044
   95SAPE   HN1 9380   0.861   3.445   5.957
   95SAPE   HN2 9381   0.986   3.462   6.073
   95SAPE   HN3 9382   0.936   3.309   6.029
   95SAPE   C12 9383   0.808   3.401   6.160
   95SAPE  H12A 9384   0.726   3.334   6.128
   95SAPE  H12B 9385   0.764   3.502   6.179
   95SAPE   C11 9386   0.883   3.353   6.285
   95SAPE  H11A 9387   0.943   3.261   6.264
   95SAPE  H11B 9388   0.810   3.323   6.363
   95SAPE     P 9389   1.109   3.492   6.308
   95SAPE   O13 9390   1.106   3.625   6.244
   95SAPE   O14 9391   1.196   3.472   6.426
   95SAPE   O12 9392   0.959   3.459   6.343
   95SAPE   O11 9393   1.138   3.385   6.195
   95SAPE    C1 9394   1.275   3.365   6.162
   95SAPE    HA 9395   1.347   3.389   6.245
   95SAPE    HB 9396   1.292   3.257   6.143
   95SAPE    C2 9397   1.309   3.454   6.040
   95SAPE    HS 9398   1.300   3.562   6.070
   95SAPE   O21 9399   1.230   3.415   5.926
   95SAPE   C21 9400   1.171   3.510   5.859
   95SAPE   O22 9401   1.153   3.626   5.892
   95SAPE   C22 9402   1.108   3.445   5.738
   95SAPE   H2R 9403   1.190   3.405   5.674
   95SAPE   H2S 9404   1.043   3.363   5.773
   95SAPE    C3 9405   1.454   3.437   6.003
   95SAPE    HX 9406   1.467   3.329   5.979
   95SAPE    HY 9407   1.514   3.458   6.093
   95SAPE   O31 9408   1.493   3.513   5.888
   95SAPE   C31 9409   1.494   3.644   5.894
   95SAPE   O32 9410   1.476   3.714   5.991
   95SAPE   C32 9411   1.506   3.699   5.752
   95SAPE   H2X 9412   1.612   3.723   5.755
   95SAPE   H2Y 9413   1.468   3.802   5.747
   95SAPE   C23 9414   1.017   3.539   5.659
   95SAPE   H3R 9415   0.945   3.593   5.726
   95SAPE   H3S 9416   0.958   3.472   5.589
   95SAPE   C24 9417   1.096   3.638   5.578
   95SAPE   H4R 9418   1.171   3.585   5.516
   95SAPE   H4S 9419   1.148   3.716   5.635
   95SAPE   C25 9420   0.974   3.687   5.508
   95SAPE   H5R 9421   0.911   3.766   5.551
   95SAPE   C26 9422   0.959   3.668   5.385
   95SAPE   H6R 9423   0.884   3.738   5.344
   95SAPE   C27 9424   1.063   3.597   5.299
   95SAPE   H7R 9425   1.166   3.577   5.330
   95SAPE   H7S 9426   1.127   3.677   5.266
   95SAPE   C28 9427   1.011   3.490   5.209
   95SAPE   H8R 9428   1.028   3.402   5.270
   95SAPE   C29 9429   0.956   3.471   5.085
   95SAPE   H9R 9430   0.920   3.369   5.065
   95SAPE  C210 9431   0.915   3.558   4.969
   95SAPE  H10R 9432   0.906   3.656   5.010
   95SAPE  H10S 9433   0.809   3.554   4.940
   95SAPE  C211 9434   1.006   3.553   4.847
   95SAPE  H11R 9435   1.098   3.494   4.859
   95SAPE  C212 9436   0.991   3.623   4.733
   95SAPE  H12R 9437   1.079   3.638   4.668
   95SAPE  C213 9438   0.881   3.721   4.699
   95SAPE  H13R 9439   0.927   3.808   4.656
   95SAPE  H13S 9440   0.816   3.761   4.780
   95SAPE  C214 9441   0.773   3.678   4.619
   95SAPE  H14R 9442   0.722   3.593   4.665
   95SAPE  C215 9443   0.744   3.739   4.505
   95SAPE  H15R 9444   0.655   3.707   4.454
   95SAPE  C216 9445   0.820   3.857   4.448
   95SAPE  H16R 9446   0.919   3.887   4.492
   95SAPE  H16S 9447   0.762   3.946   4.454
   95SAPE  C217 9448   0.838   3.854   4.299
   95SAPE  H17R 9449   0.891   3.951   4.278
   95SAPE  H17S 9450   0.741   3.856   4.246
   95SAPE  C218 9451   0.926   3.739   4.259
   95SAPE  H18R 9452   1.003   3.726   4.339
   95SAPE  H18S 9453   0.968   3.771   4.163
   95SAPE  C219 9454   0.863   3.602   4.235
   95SAPE  H19R 9455   0.877   3.543   4.328
   95SAPE  H19S 9456   0.924   3.555   4.154
   95SAPE  C220 9457   0.717   3.598   4.192
   95SAPE  H20R 9458   0.652   3.646   4.268
   95SAPE  H20S 9459   0.685   3.493   4.182
   95SAPE  H20T 9460   0.702   3.649   4.095
   95SAPE   C33 9461   1.442   3.607   5.638
   95SAPE   H3X 9462   1.344   3.655   5.624
   95SAPE   H3Y 9463   1.439   3.500   5.665
   95SAPE   C34 9464   1.498   3.610   5.494
   95SAPE   H4X 9465   1.591   3.549   5.491
   95SAPE   H4Y 9466   1.505   3.720   5.494
   95SAPE   C35 9467   1.455   3.545   5.364
   95SAPE   H5X 9468   1.360   3.593   5.340
   95SAPE   H5Y 9469   1.454   3.437   5.387
   95SAPE   C36 9470   1.553   3.559   5.244
   95SAPE   H6X 9471   1.656   3.518   5.257
   95SAPE   H6Y 9472   1.564   3.664   5.221
   95SAPE   C37 9473   1.492   3.549   5.107
   95SAPE   H7X 9474   1.406   3.621   5.107
   95SAPE   H7Y 9475   1.454   3.446   5.095
   95SAPE   C38 9476   1.593   3.594   4.999
   95SAPE   H8X 9477   1.669   3.513   4.986
   95SAPE   H8Y 9478   1.648   3.686   5.027
   95SAPE   C39 9479   1.531   3.630   4.866
   95SAPE   H9X 9480   1.609   3.677   4.802
   95SAPE   H9Y 9481   1.446   3.702   4.880
   95SAPE  C310 9482   1.483   3.506   4.796
   95SAPE  H10X 9483   1.420   3.447   4.868
   95SAPE  H10Y 9484   1.571   3.439   4.776
   95SAPE  C311 9485   1.391   3.543   4.672
   95SAPE  H11X 9486   1.464   3.552   4.586
   95SAPE  H11Y 9487   1.347   3.640   4.680
   95SAPE  C312 9488   1.256   3.450   4.661
   95SAPE  H12X 9489   1.236   3.356   4.715
   95SAPE  H12Y 9490   1.343   3.404   4.690
   95SAPE  C313 9491   1.168   3.437   4.518
   95SAPE  H13X 9492   1.260   3.471   4.490
   95SAPE  H13Y 9493   1.108   3.526   4.510
   95SAPE  C314 9494   1.127   3.320   4.394
   95SAPE  H14X 9495   1.039   3.335   4.333
   95SAPE  H14Y 9496   1.096   3.245   4.468
   95SAPE  C315 9497   1.215   3.225   4.292
   95SAPE  H15X 9498   1.298   3.161   4.320
   95SAPE  H15Y 9499   1.302   3.243   4.244
   95SAPE  C316 9500   1.203   3.135   4.195
   95SAPE  H16X 9501   1.154   3.192   4.121
   95SAPE  H16Y 9502   1.144   3.079   4.270
   95SAPE  C317 9503   1.347   3.091   4.138
   95SAPE  H17X 9504   1.339   2.990   4.117
   95SAPE  H17Y 9505   1.417   3.032   4.188
   95SAPE  C318 9506   1.434   3.190   4.059
   95SAPE  H18X 9507   1.491   3.154   3.975
   95SAPE  H18Y 9508   1.519   3.238   4.114
   95SAPE  H18Z 9509   1.356   3.244   4.008
   96SAPE     N 9510   3.621   6.087   6.270
   96SAPE   HN1 9511   3.725   6.104   6.275
   96SAPE   HN2 9512   3.585   6.076   6.368
   96SAPE   HN3 9513   3.598   5.999   6.220
   96SAPE   C12 9514   3.555   6.204   6.200
   96SAPE  H12A 9515   3.451   6.177   6.172
   96SAPE  H12B 9516   3.612   6.225   6.108
   96SAPE   C11 9517   3.558   6.329   6.288
   96SAPE  H11A 9518   3.664   6.354   6.313
   96SAPE  H11B 9519   3.502   6.309   6.382
   96SAPE     P 9520   3.367   6.499   6.256
   96SAPE   O13 9521   3.272   6.385   6.252
   96SAPE   O14 9522   3.381   6.570   6.385
   96SAPE   O12 9523   3.508   6.440   6.214
   96SAPE   O11 9524   3.342   6.602   6.141
   96SAPE    C1 9525   3.429   6.714   6.114
   96SAPE    HA 9526   3.381   6.808   6.148
   96SAPE    HB 9527   3.526   6.707   6.169
   96SAPE    C2 9528   3.462   6.720   5.963
   96SAPE    HS 9529   3.521   6.813   5.943
   96SAPE   O21 9530   3.343   6.712   5.884
   96SAPE   C21 9531   3.325   6.798   5.789
   96SAPE   O22 9532   3.392   6.896   5.761
   96SAPE   C22 9533   3.208   6.743   5.711
   96SAPE   H2R 9534   3.194   6.634   5.721
   96SAPE   H2S 9535   3.117   6.791   5.752
   96SAPE    C3 9536   3.548   6.597   5.928
   96SAPE    HX 9537   3.480   6.509   5.935
   96SAPE    HY 9538   3.631   6.579   6.000
   96SAPE   O31 9539   3.591   6.604   5.792
   96SAPE   C31 9540   3.713   6.646   5.775
   96SAPE   O32 9541   3.793   6.682   5.859
   96SAPE   C32 9542   3.743   6.626   5.629
   96SAPE   H2X 9543   3.685   6.705   5.574
   96SAPE   H2Y 9544   3.700   6.534   5.589
   96SAPE   C23 9545   3.241   6.768   5.565
   96SAPE   H3R 9546   3.328   6.707   5.534
   96SAPE   H3S 9547   3.262   6.877   5.551
   96SAPE   C24 9548   3.133   6.724   5.472
   96SAPE   H4R 9549   3.068   6.802   5.442
   96SAPE   H4S 9550   3.071   6.639   5.501
   96SAPE   C25 9551   3.181   6.700   5.341
   96SAPE   H5R 9552   3.077   6.684   5.300
   96SAPE   C26 9553   3.267   6.787   5.279
   96SAPE   H6R 9554   3.263   6.791   5.170
   96SAPE   C27 9555   3.334   6.921   5.316
   96SAPE   H7R 9556   3.302   6.984   5.403
   96SAPE   H7S 9557   3.331   6.994   5.234
   96SAPE   C28 9558   3.460   6.848   5.326
   96SAPE   H8R 9559   3.463   6.764   5.395
   96SAPE   C29 9560   3.565   6.864   5.250
   96SAPE   H9R 9561   3.648   6.800   5.272
   96SAPE  C210 9562   3.586   6.955   5.140
   96SAPE  H10R 9563   3.640   7.040   5.190
   96SAPE  H10S 9564   3.494   6.989   5.088
   96SAPE  C211 9565   3.671   6.885   5.043
   96SAPE  H11R 9566   3.765   6.943   5.039
   96SAPE  C212 9567   3.632   6.846   4.923
   96SAPE  H12R 9568   3.707   6.815   4.851
   96SAPE  C213 9569   3.509   6.858   4.847
   96SAPE  H13R 9570   3.460   6.957   4.868
   96SAPE  H13S 9571   3.458   6.774   4.893
   96SAPE  C214 9572   3.531   6.832   4.697
   96SAPE  H14R 9573   3.626   6.847   4.645
   96SAPE  C215 9574   3.437   6.835   4.611
   96SAPE  H15R 9575   3.461   6.832   4.507
   96SAPE  C216 9576   3.301   6.863   4.647
   96SAPE  H16R 9577   3.255   6.945   4.595
   96SAPE  H16S 9578   3.296   6.886   4.748
   96SAPE  C217 9579   3.212   6.770   4.603
   96SAPE  H17R 9580   3.111   6.804   4.638
   96SAPE  H17S 9581   3.241   6.670   4.643
   96SAPE  C218 9582   3.229   6.776   4.461
   96SAPE  H18R 9583   3.324   6.750   4.408
   96SAPE  H18S 9584   3.213   6.878   4.416
   96SAPE  C219 9585   3.160   6.645   4.459
   96SAPE  H19R 9586   3.235   6.574   4.428
   96SAPE  H19S 9587   3.180   6.650   4.353
   96SAPE  C220 9588   3.008   6.591   4.528
   96SAPE  H20R 9589   2.992   6.605   4.631
   96SAPE  H20S 9590   2.928   6.540   4.468
   96SAPE  H20T 9591   2.910   6.640   4.498
   96SAPE   C33 9592   3.896   6.619   5.606
   96SAPE   H3X 9593   3.960   6.551   5.663
   96SAPE   H3Y 9594   3.934   6.701   5.670
   96SAPE   C34 9595   3.926   6.615   5.453
   96SAPE   H4X 9596   4.033   6.624   5.423
   96SAPE   H4Y 9597   3.868   6.684   5.390
   96SAPE   C35 9598   3.875   6.488   5.397
   96SAPE   H5X 9599   3.765   6.493   5.402
   96SAPE   H5Y 9600   3.926   6.417   5.467
   96SAPE   C36 9601   3.897   6.464   5.251
   96SAPE   H6X 9602   3.885   6.358   5.222
   96SAPE   H6Y 9603   3.993   6.499   5.231
   96SAPE   C37 9604   3.862   6.563   5.144
   96SAPE   H7X 9605   3.911   6.520   5.051
   96SAPE   H7Y 9606   3.904   6.662   5.171
   96SAPE   C38 9607   3.723   6.570   5.105
   96SAPE   H8X 9608   3.719   6.627   5.009
   96SAPE   H8Y 9609   3.674   6.624   5.187
   96SAPE   C39 9610   3.674   6.429   5.087
   96SAPE   H9X 9611   3.627   6.398   5.182
   96SAPE   H9Y 9612   3.756   6.356   5.064
   96SAPE  C310 9613   3.582   6.425   4.968
   96SAPE  H10X 9614   3.631   6.475   4.882
   96SAPE  H10Y 9615   3.494   6.486   4.997
   96SAPE  C311 9616   3.543   6.282   4.931
   96SAPE  H11X 9617   3.547   6.218   5.023
   96SAPE  H11Y 9618   3.616   6.236   4.861
   96SAPE  C312 9619   3.404   6.277   4.868
   96SAPE  H12X 9620   3.330   6.284   4.951
   96SAPE  H12Y 9621   3.393   6.179   4.818
   96SAPE  C313 9622   3.372   6.391   4.768
   96SAPE  H13X 9623   3.377   6.488   4.821
   96SAPE  H13Y 9624   3.268   6.376   4.731
   96SAPE  C314 9625   3.458   6.396   4.642
   96SAPE  H14X 9626   3.564   6.415   4.670
   96SAPE  H14Y 9627   3.424   6.483   4.581
   96SAPE  C315 9628   3.442   6.261   4.569
   96SAPE  H15X 9629   3.337   6.250   4.534
   96SAPE  H15Y 9630   3.469   6.180   4.637
   96SAPE  C316 9631   3.533   6.226   4.454
   96SAPE  H16X 9632   3.493   6.143   4.393
   96SAPE  H16Y 9633   3.642   6.213   4.477
   96SAPE  C317 9634   3.527   6.338   4.369
   96SAPE  H17X 9635   3.424   6.382   4.360
   96SAPE  H17Y 9636   3.555   6.291   4.270
   96SAPE  C318 9637   3.626   6.445   4.407
   96SAPE  H18X 9638   3.609   6.554   4.390
   96SAPE  H18Y 9639   3.690   6.431   4.317
   96SAPE  H18Z 9640   3.681   6.431   4.501
   97SAPE     N 9641   6.514   2.448   6.276
   97SAPE   HN1 9642   6.618   2.448   6.265
   97SAPE   HN2 9643   6.500   2.360   6.331
   97SAPE   HN3 9644   6.468   2.446   6.183
   97SAPE   C12 9645   6.478   2.566   6.360
   97SAPE  H12A 9646   6.518   2.655   6.307
   97SAPE  H12B 9647   6.529   2.551   6.458
   97SAPE   C11 9648   6.327   2.586   6.378
   97SAPE  H11A 9649   6.311   2.671   6.449
   97SAPE  H11B 9650   6.280   2.496   6.421
   97SAPE     P 9651   6.243   2.763   6.202
   97SAPE   O13 9652   6.113   2.807   6.255
   97SAPE   O14 9653   6.367   2.840   6.229
   97SAPE   O12 9654   6.267   2.613   6.253
   97SAPE   O11 9655   6.229   2.733   6.048
   97SAPE    C1 9656   6.143   2.627   6.003
   97SAPE    HA 9657   6.076   2.586   6.082
   97SAPE    HB 9658   6.078   2.666   5.922
   97SAPE    C2 9659   6.225   2.512   5.943
   97SAPE    HS 9660   6.293   2.471   6.021
   97SAPE   O21 9661   6.296   2.560   5.829
   97SAPE   C21 9662   6.413   2.609   5.846
   97SAPE   O22 9663   6.478   2.613   5.950
   97SAPE   C22 9664   6.457   2.656   5.707
   97SAPE   H2R 9665   6.459   2.567   5.641
   97SAPE   H2S 9666   6.380   2.728   5.671
   97SAPE    C3 9667   6.132   2.400   5.894
   97SAPE    HX 9668   6.039   2.451   5.857
   97SAPE    HY 9669   6.104   2.332   5.979
   97SAPE   O31 9670   6.198   2.336   5.781
   97SAPE   C31 9671   6.140   2.232   5.735
   97SAPE   O32 9672   6.060   2.163   5.790
   97SAPE   C32 9673   6.177   2.198   5.596
   97SAPE   H2X 9674   6.138   2.095   5.575
   97SAPE   H2Y 9675   6.286   2.200   5.589
   97SAPE   C23 9676   6.597   2.716   5.709
   97SAPE   H3R 9677   6.666   2.637   5.745
   97SAPE   H3S 9678   6.600   2.803   5.779
   97SAPE   C24 9679   6.647   2.777   5.579
   97SAPE   H4R 9680   6.745   2.819   5.610
   97SAPE   H4S 9681   6.580   2.860   5.547
   97SAPE   C25 9682   6.678   2.714   5.451
   97SAPE   H5R 9683   6.779   2.666   5.445
   97SAPE   C26 9684   6.584   2.674   5.366
   97SAPE   H6R 9685   6.619   2.635   5.272
   97SAPE   C27 9686   6.437   2.667   5.352
   97SAPE   H7R 9687   6.383   2.637   5.443
   97SAPE   H7S 9688   6.414   2.583   5.281
   97SAPE   C28 9689   6.410   2.801   5.297
   97SAPE   H8R 9690   6.461   2.882   5.347
   97SAPE   C29 9691   6.335   2.828   5.192
   97SAPE   H9R 9692   6.308   2.929   5.164
   97SAPE  C210 9693   6.264   2.730   5.114
   97SAPE  H10R 9694   6.305   2.626   5.130
   97SAPE  H10S 9695   6.264   2.749   5.004
   97SAPE  C211 9696   6.130   2.757   5.177
   97SAPE  H11R 9697   6.079   2.846   5.213
   97SAPE  C212 9698   6.046   2.686   5.123
   97SAPE  H12R 9699   5.967   2.656   5.181
   97SAPE  C213 9700   6.084   2.596   5.024
   97SAPE  H13R 9701   6.049   2.524   5.095
   97SAPE  H13S 9702   6.173   2.541   5.040
   97SAPE  C214 9703   6.030   2.596   4.883
   97SAPE  H14R 9704   5.938   2.648   4.903
   97SAPE  C215 9705   6.040   2.510   4.773
   97SAPE  H15R 9706   5.934   2.507   4.738
   97SAPE  C216 9707   6.119   2.364   4.743
   97SAPE  H16R 9708   6.085   2.257   4.775
   97SAPE  H16S 9709   6.144   2.271   4.807
   97SAPE  C217 9710   6.155   2.326   4.621
   97SAPE  H17R 9711   6.211   2.421   4.632
   97SAPE  H17S 9712   6.084   2.316   4.545
   97SAPE  C218 9713   6.233   2.202   4.632
   97SAPE  H18R 9714   6.195   2.103   4.664
   97SAPE  H18S 9715   6.292   2.245   4.717
   97SAPE  C219 9716   6.308   2.214   4.510
   97SAPE  H19R 9717   6.345   2.317   4.534
   97SAPE  H19S 9718   6.257   2.246   4.420
   97SAPE  C220 9719   6.393   2.097   4.466
   97SAPE  H20R 9720   6.464   2.149   4.399
   97SAPE  H20S 9721   6.402   2.000   4.518
   97SAPE  H20T 9722   6.472   2.066   4.535
   97SAPE   C33 9723   6.110   2.298   5.506
   97SAPE   H3X 9724   6.147   2.401   5.522
   97SAPE   H3Y 9725   6.000   2.299   5.515
   97SAPE   C34 9726   6.141   2.261   5.365
   97SAPE   H4X 9727   6.047   2.295   5.327
   97SAPE   H4Y 9728   6.142   2.151   5.343
   97SAPE   C35 9729   6.265   2.346   5.320
   97SAPE   H5X 9730   6.324   2.311   5.406
   97SAPE   H5Y 9731   6.246   2.453   5.332
   97SAPE   C36 9732   6.310   2.337   5.167
   97SAPE   H6X 9733   6.251   2.400   5.110
   97SAPE   H6Y 9734   6.245   2.248   5.170
   97SAPE   C37 9735   6.452   2.362   5.069
   97SAPE   H7X 9736   6.535   2.288   5.079
   97SAPE   H7Y 9737   6.444   2.442   5.130
   97SAPE   C38 9738   6.583   2.327   4.967
   97SAPE   H8X 9739   6.598   2.238   4.901
   97SAPE   H8Y 9740   6.692   2.305   4.984
   97SAPE   C39 9741   6.512   2.434   4.898
   97SAPE   H9X 9742   6.398   2.437   4.900
   97SAPE   H9Y 9743   6.520   2.439   4.795
   97SAPE  C310 9744   6.587   2.550   4.934
   97SAPE  H10X 9745   6.693   2.510   4.932
   97SAPE  H10Y 9746   6.553   2.580   5.035
   97SAPE  C311 9747   6.567   2.649   4.824
   97SAPE  H11X 9748   6.643   2.628   4.745
   97SAPE  H11Y 9749   6.588   2.742   4.879
   97SAPE  C312 9750   6.429   2.657   4.755
   97SAPE  H12X 9751   6.344   2.646   4.825
   97SAPE  H12Y 9752   6.417   2.579   4.676
   97SAPE  C313 9753   6.415   2.792   4.689
   97SAPE  H13X 9754   6.455   2.781   4.585
   97SAPE  H13Y 9755   6.472   2.869   4.747
   97SAPE  C314 9756   6.274   2.838   4.668
   97SAPE  H14X 9757   6.278   2.947   4.642
   97SAPE  H14Y 9758   6.221   2.825   4.765
   97SAPE  C315 9759   6.210   2.760   4.553
   97SAPE  H15X 9760   6.111   2.722   4.584
   97SAPE  H15Y 9761   6.275   2.672   4.534
   97SAPE  C316 9762   6.183   2.847   4.429
   97SAPE  H16X 9763   6.264   2.920   4.418
   97SAPE  H16Y 9764   6.091   2.903   4.439
   97SAPE  C317 9765   6.159   2.775   4.300
   97SAPE  H17X 9766   6.160   2.834   4.205
   97SAPE  H17Y 9767   6.087   2.690   4.305
   97SAPE  C318 9768   6.276   2.705   4.279
   97SAPE  H18X 9769   6.365   2.773   4.284
   97SAPE  H18Y 9770   6.258   2.649   4.186
   97SAPE  H18Z 9771   6.282   2.621   4.346
   98SAPE     N 9772   5.700   1.552   6.364
   98SAPE   HN1 9773   5.724   1.526   6.461
   98SAPE   HN2 9774   5.741   1.647   6.346
   98SAPE   HN3 9775   5.597   1.552   6.352
   98SAPE   C12 9776   5.747   1.446   6.266
   98SAPE  H12A 9777   5.858   1.450   6.263
   98SAPE  H12B 9778   5.708   1.475   6.166
   98SAPE   C11 9779   5.695   1.307   6.307
   98SAPE  H11A 9780   5.748   1.273   6.398
   98SAPE  H11B 9781   5.720   1.229   6.230
   98SAPE     P 9782   5.453   1.299   6.220
   98SAPE   O13 9783   5.318   1.293   6.275
   98SAPE   O14 9784   5.480   1.415   6.134
   98SAPE   O12 9785   5.555   1.311   6.339
   98SAPE   O11 9786   5.505   1.171   6.153
   98SAPE    C1 9787   5.438   1.049   6.171
   98SAPE    HA 9788   5.499   0.977   6.230
   98SAPE    HB 9789   5.332   1.051   6.209
   98SAPE    C2 9790   5.422   0.994   6.035
   98SAPE    HS 9791   5.391   0.892   6.057
   98SAPE   O21 9792   5.538   1.020   5.943
   98SAPE   C21 9793   5.583   0.977   5.826
   98SAPE   O22 9794   5.542   0.906   5.739
   98SAPE   C22 9795   5.713   1.002   5.789
   98SAPE   H2R 9796   5.759   1.078   5.851
   98SAPE   H2S 9797   5.751   0.899   5.817
   98SAPE    C3 9798   5.287   1.044   5.976
   98SAPE    HX 9799   5.203   0.990   6.025
   98SAPE    HY 9800   5.275   1.015   5.874
   98SAPE   O31 9801   5.280   1.180   5.970
   98SAPE   C31 9802   5.233   1.229   5.860
   98SAPE   O32 9803   5.159   1.178   5.777
   98SAPE   C32 9804   5.290   1.359   5.858
   98SAPE   H2X 9805   5.378   1.353   5.793
   98SAPE   H2Y 9806   5.312   1.391   5.962
   98SAPE   C23 9807   5.687   1.032   5.634
   98SAPE   H3R 9808   5.632   0.962   5.565
   98SAPE   H3S 9809   5.777   1.042   5.572
   98SAPE   C24 9810   5.613   1.160   5.611
   98SAPE   H4R 9811   5.658   1.193   5.514
   98SAPE   H4S 9812   5.646   1.222   5.696
   98SAPE   C25 9813   5.464   1.134   5.605
   98SAPE   H5R 9814   5.418   1.099   5.698
   98SAPE   C26 9815   5.391   1.125   5.495
   98SAPE   H6R 9816   5.284   1.101   5.500
   98SAPE   C27 9817   5.449   1.142   5.360
   98SAPE   H7R 9818   5.542   1.085   5.365
   98SAPE   H7S 9819   5.483   1.246   5.343
   98SAPE   C28 9820   5.350   1.106   5.252
   98SAPE   H8R 9821   5.254   1.158   5.267
   98SAPE   C29 9822   5.351   1.039   5.137
   98SAPE   H9R 9823   5.258   1.058   5.086
   98SAPE  C210 9824   5.448   0.961   5.046
   98SAPE  H10R 9825   5.424   0.872   4.991
   98SAPE  H10S 9826   5.491   0.879   5.108
   98SAPE  C211 9827   5.526   1.048   4.944
   98SAPE  H11R 9828   5.580   1.134   4.975
   98SAPE  C212 9829   5.557   1.032   4.817
   98SAPE  H12R 9830   5.621   1.103   4.763
   98SAPE  C213 9831   5.521   0.923   4.735
   98SAPE  H13R 9832   5.484   0.964   4.642
   98SAPE  H13S 9833   5.448   0.879   4.792
   98SAPE  C214 9834   5.607   0.809   4.726
   98SAPE  H14R 9835   5.650   0.768   4.819
   98SAPE  C215 9836   5.620   0.749   4.611
   98SAPE  H15R 9837   5.685   0.668   4.621
   98SAPE  C216 9838   5.565   0.767   4.470
   98SAPE  H16R 9839   5.495   0.852   4.464
   98SAPE  H16S 9840   5.509   0.677   4.436
   98SAPE  C217 9841   5.674   0.778   4.363
   98SAPE  H17R 9842   5.626   0.787   4.263
   98SAPE  H17S 9843   5.735   0.684   4.361
   98SAPE  C218 9844   5.763   0.902   4.374
   98SAPE  H18R 9845   5.828   0.909   4.284
   98SAPE  H18S 9846   5.828   0.904   4.462
   98SAPE  C219 9847   5.698   1.032   4.406
   98SAPE  H19R 9848   5.666   1.041   4.511
   98SAPE  H19S 9849   5.604   1.048   4.362
   98SAPE  C220 9850   5.788   1.141   4.355
   98SAPE  H20R 9851   5.745   1.238   4.386
   98SAPE  H20S 9852   5.796   1.133   4.245
   98SAPE  H20T 9853   5.890   1.126   4.395
   98SAPE   C33 9854   5.196   1.453   5.798
   98SAPE   H3X 9855   5.255   1.541   5.828
   98SAPE   H3Y 9856   5.103   1.466   5.852
   98SAPE   C34 9857   5.173   1.436   5.648
   98SAPE   H4X 9858   5.082   1.491   5.615
   98SAPE   H4Y 9859   5.142   1.336   5.616
   98SAPE   C35 9860   5.292   1.474   5.568
   98SAPE   H5X 9861   5.370   1.400   5.586
   98SAPE   H5Y 9862   5.325   1.576   5.598
   98SAPE   C36 9863   5.251   1.471   5.425
   98SAPE   H6X 9864   5.153   1.522   5.441
   98SAPE   H6Y 9865   5.203   1.381   5.384
   98SAPE   C37 9866   5.363   1.527   5.331
   98SAPE   H7X 9867   5.460   1.498   5.374
   98SAPE   H7Y 9868   5.370   1.638   5.330
   98SAPE   C38 9869   5.351   1.474   5.187
   98SAPE   H8X 9870   5.286   1.524   5.113
   98SAPE   H8Y 9871   5.304   1.375   5.195
   98SAPE   C39 9872   5.470   1.488   5.095
   98SAPE   H9X 9873   5.556   1.443   5.145
   98SAPE   H9Y 9874   5.495   1.596   5.080
   98SAPE  C310 9875   5.426   1.424   4.963
   98SAPE  H10X 9876   5.332   1.471   4.924
   98SAPE  H10Y 9877   5.403   1.317   4.983
   98SAPE  C311 9878   5.527   1.432   4.851
   98SAPE  H11X 9879   5.616   1.374   4.884
   98SAPE  H11Y 9880   5.556   1.539   4.837
   98SAPE  C312 9881   5.473   1.369   4.722
   98SAPE  H12X 9882   5.371   1.410   4.699
   98SAPE  H12Y 9883   5.473   1.261   4.722
   98SAPE  C313 9884   5.567   1.400   4.608
   98SAPE  H13X 9885   5.674   1.381   4.629
   98SAPE  H13Y 9886   5.537   1.503   4.625
   98SAPE  C314 9887   5.525   1.376   4.464
   98SAPE  H14X 9888   5.424   1.422   4.477
   98SAPE  H14Y 9889   5.528   1.270   4.436
   98SAPE  C315 9890   5.594   1.456   4.353
   98SAPE  H15X 9891   5.704   1.447   4.357
   98SAPE  H15Y 9892   5.552   1.554   4.387
   98SAPE  C316 9893   5.569   1.466   4.200
   98SAPE  H16X 9894   5.581   1.372   4.154
   98SAPE  H16Y 9895   5.623   1.542   4.142
   98SAPE  C317 9896   5.441   1.494   4.165
   98SAPE  H17X 9897   5.422   1.559   4.256
   98SAPE  H17Y 9898   5.377   1.509   4.276
   98SAPE  C318 9899   5.335   1.389   4.026
   98SAPE  H18X 9900   5.360   1.362   3.936
   98SAPE  H18Y 9901   5.224   1.422   3.995
   98SAPE  H18Z 9902   5.221   1.381   4.049
   99SAPE     N 9903   5.301   6.419   6.376
   99SAPE   HN1 9904   5.375   6.492   6.389
   99SAPE   HN2 9905   5.237   6.414   6.459
   99SAPE   HN3 9906   5.337   6.325   6.351
   99SAPE   C12 9907   5.217   6.463   6.261
   99SAPE  H12A 9908   5.127   6.403   6.263
   99SAPE  H12B 9909   5.275   6.451   6.168
   99SAPE   C11 9910   5.164   6.603   6.282
   99SAPE  H11A 9911   5.097   6.610   6.366
   99SAPE  H11B 9912   5.092   6.635   6.204
   99SAPE     P 9913   5.327   6.801   6.220
   99SAPE   O13 9914   5.271   6.927   6.273
   99SAPE   O14 9915   5.472   6.780   6.219
   99SAPE   O12 9916   5.272   6.685   6.311
   99SAPE   O11 9917   5.271   6.765   6.079
   99SAPE    C1 9918   5.141   6.815   6.047
   99SAPE    HA 9919   5.079   6.853   6.129
   99SAPE    HB 9920   5.150   6.905   5.992
   99SAPE    C2 9921   5.065   6.729   5.954
   99SAPE    HS 9922   5.047   6.627   5.995
   99SAPE   O21 9923   5.138   6.713   5.842
   99SAPE   C21 9924   5.249   6.638   5.854
   99SAPE   O22 9925   5.262   6.543   5.928
   99SAPE   C22 9926   5.344   6.667   5.739
   99SAPE   H2R 9927   5.248   6.686   5.687
   99SAPE   H2S 9928   5.355   6.761   5.684
   99SAPE    C3 9929   4.935   6.794   5.912
   99SAPE    HX 9930   4.883   6.792   6.012
   99SAPE    HY 9931   4.904   6.723   5.839
   99SAPE   O31 9932   4.920   6.916   5.846
   99SAPE   C31 9933   4.829   6.927   5.751
   99SAPE   O32 9934   4.786   6.833   5.689
   99SAPE   C32 9935   4.827   7.070   5.692
   99SAPE   H2X 9936   4.846   7.152   5.756
   99SAPE   H2Y 9937   4.741   7.084   5.626
   99SAPE   C23 9938   5.458   6.562   5.677
   99SAPE   H3R 9939   5.512   6.551   5.770
   99SAPE   H3S 9940   5.509   6.625   5.600
   99SAPE   C24 9941   5.437   6.424   5.599
   99SAPE   H4R 9942   5.533   6.374   5.552
   99SAPE   H4S 9943   5.390   6.404   5.513
   99SAPE   C25 9944   5.343   6.310   5.652
   99SAPE   H5R 9945   5.360   6.309   5.764
   99SAPE   C26 9946   5.194   6.285   5.612
   99SAPE   H6R 9947   5.149   6.239   5.689
   99SAPE   C27 9948   5.111   6.262   5.461
   99SAPE   H7R 9949   5.046   6.179   5.487
   99SAPE   H7S 9950   5.176   6.274   5.396
   99SAPE   C28 9951   4.966   6.352   5.454
   99SAPE   H8R 9952   4.966   6.411   5.517
   99SAPE   C29 9953   4.919   6.429   5.350
   99SAPE   H9R 9954   4.896   6.532   5.421
   99SAPE  C210 9955   5.014   6.494   5.278
   99SAPE  H10R 9956   4.941   6.483   5.194
   99SAPE  H10S 9957   5.080   6.401   5.235
   99SAPE  C211 9958   5.108   6.613   5.268
   99SAPE  H11R 9959   5.186   6.614   5.283
   99SAPE  C212 9960   5.090   6.750   5.236
   99SAPE  H12R 9961   5.200   6.787   5.205
   99SAPE  C213 9962   5.021   6.800   5.125
   99SAPE  H13R 9963   4.932   6.748   5.106
   99SAPE  H13S 9964   4.970   6.718   5.089
   99SAPE  C214 9965   5.070   6.932   5.076
   99SAPE  H14R 9966   5.018   7.007   5.142
   99SAPE  C215 9967   5.086   6.983   4.948
   99SAPE  H15R 9968   5.058   7.080   4.934
   99SAPE  C216 9969   5.098   6.948   4.799
   99SAPE  H16R 9970   5.050   6.877   4.861
   99SAPE  H16S 9971   5.199   6.919   4.775
   99SAPE  C217 9972   5.034   6.862   4.679
   99SAPE  H17R 9973   4.981   6.771   4.720
   99SAPE  H17S 9974   5.118   6.838   4.618
   99SAPE  C218 9975   4.943   6.885   4.569
   99SAPE  H18R 9976   4.965   6.991   4.561
   99SAPE  H18S 9977   4.884   6.903   4.656
   99SAPE  C219 9978   4.856   6.764   4.479
   99SAPE  H19R 9979   4.812   6.828   4.444
   99SAPE  H19S 9980   4.737   6.742   4.472
   99SAPE  C220 9981   4.864   6.706   4.351
   99SAPE  H20R 9982   4.761   6.730   4.300
   99SAPE  H20S 9983   4.856   6.629   4.433
   99SAPE  H20T 9984   4.947   6.779   4.341
   99SAPE   C33 9985   4.949   7.060   5.607
   99SAPE   H3X 9986   4.898   6.983   5.549
   99SAPE   H3Y 9987   5.016   7.025   5.686
   99SAPE   C34 9988   5.025   7.158   5.510
   99SAPE   H4X 9989   5.091   7.218   5.576
   99SAPE   H4Y 9990   4.941   7.209   5.469
   99SAPE   C35 9991   5.117   7.133   5.383
   99SAPE   H5X 9992   5.107   7.217   5.315
   99SAPE   H5Y 9993   5.081   7.065   5.306
   99SAPE   C36 9994   5.264   7.093   5.406
   99SAPE   H6X 9995   5.277   6.990   5.437
   99SAPE   H6Y 9996   5.324   7.160   5.469
   99SAPE   C37 9997   5.325   7.013   5.299
   99SAPE   H7X 9998   5.280   7.077   5.227
   99SAPE   H7Y 9999   5.287   6.922   5.260
   99SAPE   C3810000   5.467   6.975   5.322
   99SAPE   H8X10001   5.481   6.905   5.407
   99SAPE   H8Y10002   5.522   7.065   5.356
   99SAPE   C3910003   5.526   6.907   5.200
   99SAPE   H9X10004   5.609   6.967   5.175
   99SAPE   H9Y10005   5.499   6.917   5.096
   99SAPE  C31010006   5.524   6.759   5.193
   99SAPE  H10X10007   5.415   6.763   5.178
   99SAPE  H10Y10008   5.552   6.717   5.289
   99SAPE  C31110009   5.599   6.695   5.074
   99SAPE  H11X10010   5.706   6.684   5.083
   99SAPE  H11Y10011   5.569   6.743   4.978
   99SAPE  C31210012   5.619   6.546   5.065
   99SAPE  H12X10013   5.631   6.507   5.170
   99SAPE  H12Y10014   5.690   6.507   4.991
   99SAPE  C31310015   5.506   6.491   5.001
   99SAPE  H13X10016   5.465   6.563   5.071
   99SAPE  H13Y10017   5.479   6.388   5.025
   99SAPE  C31410018   5.430   6.543   4.888
   99SAPE  H14X10019   5.419   6.654   4.894
   99SAPE  H14Y10020   5.333   6.484   4.893
   99SAPE  C31510021   5.489   6.497   4.775
   99SAPE  H15X10022   5.487   6.387   4.800
   99SAPE  H15Y10023   5.583   6.553   4.786
   99SAPE  C31610024   5.416   6.548   4.659
   99SAPE  H16X10025   5.477   6.516   4.577
   99SAPE  H16Y10026   5.389   6.656   4.652
   99SAPE  C31710027   5.318   6.457   4.607
   99SAPE  H17X10028   5.243   6.464   4.665
   99SAPE  H17Y10029   5.286   6.368   4.665
   99SAPE  C31810030   5.290   6.491   4.458
   99SAPE  H18X10031   5.198   6.462   4.407
   99SAPE  H18Y10032   5.264   6.393   4.417
   99SAPE  H18Z10033   5.246   6.595   4.445
  100SAPE     N10034   0.826   6.300   6.343
  100SAPE   HN110035   0.868   6.264   6.254
  100SAPE   HN210036   0.724   6.307   6.332
  100SAPE   HN310037   0.870   6.391   6.366
  100SAPE   C1210038   0.860   6.194   6.443
  100SAPE  H12A10039   0.814   6.222   6.537
  100SAPE  H12B10040   0.969   6.195   6.461
  100SAPE   C1110041   0.813   6.060   6.389
  100SAPE  H11A10042   0.703   6.063   6.372
  100SAPE  H11B10043   0.833   5.979   6.463
  100SAPE     P10044   0.813   5.945   6.158
  100SAPE   O1310045   0.908   5.912   6.051
  100SAPE   O1410046   0.741   5.838   6.232
  100SAPE   O1210047   0.885   6.034   6.268
  100SAPE   O1110048   0.708   6.053   6.116
  100SAPE    C110049   0.719   6.118   5.993
  100SAPE    HA10050   0.664   6.216   5.998
  100SAPE    HB10051   0.822   6.136   5.953
  100SAPE    C210052   0.649   6.036   5.889
  100SAPE    HS10053   0.549   6.025   5.926
  100SAPE   O2110054   0.689   5.900   5.858
  100SAPE   C2110055   0.588   5.818   5.816
  100SAPE   O2210056   0.470   5.838   5.829
  100SAPE   C2210057   0.647   5.697   5.745
  100SAPE   H2R10058   0.757   5.708   5.742
  100SAPE   H2S10059   0.622   5.611   5.810
  100SAPE    C310060   0.669   6.131   5.769
  100SAPE    HX10061   0.608   6.224   5.760
  100SAPE    HY10062   0.623   6.053   5.722
  100SAPE   O3110063   0.798   6.143   5.712
  100SAPE   C3110064   0.805   6.205   5.596
  100SAPE   O3210065   0.713   6.241   5.525
  100SAPE   C3210066   0.952   6.236   5.578
  100SAPE   H2X10067   1.006   6.140   5.587
  100SAPE   H2Y10068   0.980   6.297   5.667
  100SAPE   C2310069   0.595   5.675   5.601
  100SAPE   H3R10070   0.484   5.685   5.597
  100SAPE   H3S10071   0.615   5.569   5.574
  100SAPE   C2410072   0.671   5.762   5.498
  100SAPE   H4R10073   0.779   5.739   5.501
  100SAPE   H4S10074   0.671   5.866   5.536
  100SAPE   C2510075   0.619   5.747   5.354
  100SAPE   H5R10076   0.587   5.645   5.329
  100SAPE   C2610077   0.580   5.844   5.269
  100SAPE   H6R10078   0.524   5.821   5.177
  100SAPE   C2710079   0.582   5.990   5.303
  100SAPE   H7R10080   0.665   6.058   5.280
  100SAPE   H7S10081   0.597   5.987   5.405
  100SAPE   C2810082   0.452   6.047   5.270
  100SAPE   H8R10083   0.379   6.088   5.343
  100SAPE   C2910084   0.439   6.099   5.159
  100SAPE   H9R10085   0.332   6.122   5.150
  100SAPE  C21010086   0.539   6.119   5.045
  100SAPE  H10R10087   0.485   6.065   4.964
  100SAPE  H10S10088   0.627   6.061   5.072
  100SAPE  C21110089   0.589   6.258   4.991
  100SAPE  H11R10090   0.538   6.353   5.015
  100SAPE  C21210091   0.687   6.303   4.923
  100SAPE  H12R10092   0.679   6.406   4.882
  100SAPE  C21310093   0.787   6.208   4.880
  100SAPE  H13R10094   0.742   6.141   4.804
  100SAPE  H13S10095   0.813   6.148   4.969
  100SAPE  C21410096   0.902   6.289   4.833
  100SAPE  H14R10097   0.920   6.387   4.882
  100SAPE  C21510098   0.988   6.242   4.744
  100SAPE  H15R10099   1.076   6.303   4.718
  100SAPE  C21610100   0.979   6.105   4.682
  100SAPE  H16R10101   0.931   6.032   4.750
  100SAPE  H16S10102   1.082   6.068   4.667
  100SAPE  C21710103   0.911   6.099   4.545
  100SAPE  H17R10104   0.809   6.143   4.546
  100SAPE  H17S10105   0.902   5.990   4.523
  100SAPE  C21810106   1.004   6.156   4.437
  100SAPE  H18R10107   1.104   6.112   4.460
  100SAPE  H18S10108   1.016   6.265   4.449
  100SAPE  C21910109   0.967   6.110   4.295
  100SAPE  H19R10110   0.947   6.000   4.296
  100SAPE  H19S10111   1.057   6.122   4.230
  100SAPE  C22010112   0.849   6.181   4.229
  100SAPE  H20R10113   0.759   6.176   4.294
  100SAPE  H20S10114   0.822   6.132   4.133
  100SAPE  H20T10115   0.874   6.287   4.207
  100SAPE   C3310116   0.985   6.309   5.447
  100SAPE   H3X10117   1.083   6.360   5.464
  100SAPE   H3Y10118   0.912   6.390   5.423
  100SAPE   C3410119   0.998   6.222   5.320
  100SAPE   H4X10120   1.027   6.293   5.240
  100SAPE   H4Y10121   0.899   6.179   5.292
  100SAPE   C3510122   1.108   6.113   5.323
  100SAPE   H5X10123   1.077   6.023   5.381
  100SAPE   H5Y10124   1.198   6.156   5.372
  100SAPE   C3610125   1.155   6.066   5.184
  100SAPE   H6X10126   1.235   5.990   5.199
  100SAPE   H6Y10127   1.202   6.151   5.131
  100SAPE   C3710128   1.046   6.003   5.094
  100SAPE   H7X10129   1.094   5.976   4.998
  100SAPE   H7Y10130   0.964   6.074   5.072
  100SAPE   C3810131   0.981   5.878   5.155
  100SAPE   H8X10132   0.899   5.910   5.224
  100SAPE   H8Y10133   1.055   5.822   5.216
  100SAPE   C3910134   0.920   5.782   5.051
  100SAPE   H9X10135   0.883   5.697   5.112
  100SAPE   H9Y10136   0.997   5.741   4.981
  100SAPE  C31010137   0.804   5.839   4.968
  100SAPE  H10X10138   0.842   5.903   4.886
  100SAPE  H10Y10139   0.742   5.903   5.034
  100SAPE  C31110140   0.719   5.726   4.907
  100SAPE  H11X10141   0.681   5.665   4.992
  100SAPE  H11Y10142   0.786   5.661   4.847
  100SAPE  C31210143   0.599   5.768   4.819
  100SAPE  H12X10144   0.522   5.822   4.878
  100SAPE  H12Y10145   0.554   5.676   4.775
  100SAPE  C31310146   0.637   5.857   4.701
  100SAPE  H13X10147   0.733   5.817   4.661
  100SAPE  H13Y10148   0.651   5.961   4.736
  100SAPE  C31410149   0.533   5.858   4.588
  100SAPE  H14X10150   0.436   5.897   4.626
  100SAPE  H14Y10151   0.517   5.752   4.557
  100SAPE  C31510152   0.586   5.942   4.470
  100SAPE  H15X10153   0.691   5.911   4.448
  100SAPE  H15Y10154   0.592   6.047   4.505
  100SAPE  C31610155   0.503   5.934   4.340
  100SAPE  H16X10156   0.551   5.997   4.261
  100SAPE  H16Y10157   0.403   5.977   4.362
  100SAPE  C31710158   0.488   5.794   4.282
  100SAPE  H17X10159   0.422   5.793   4.191
  100SAPE  H17Y10160   0.437   5.726   4.355
  100SAPE  C31810161   0.621   5.737   4.239
  100SAPE  H18X10162   0.691   5.710   4.320
  100SAPE  H18Y10163   0.671   5.797   4.161
  100SAPE  H18Z10164   0.596   5.645   4.190
  101SAPE     N10165   0.456   1.384   6.105
  101SAPE   HN110166   0.353   1.378   6.104
  101SAPE   HN210167   0.491   1.438   6.189
  101SAPE   HN310168   0.491   1.432   6.020
  101SAPE   C1210169   0.519   1.248   6.116
  101SAPE  H12A10170   0.505   1.194   6.021
  101SAPE  H12B10171   0.475   1.195   6.203
  101SAPE   C1110172   0.665   1.263   6.151
  101SAPE  H11A10173   0.716   1.333   6.078
  101SAPE  H11B10174   0.711   1.162   6.139
  101SAPE     P10175   0.777   1.414   6.327
  101SAPE   O1310176   0.722   1.543   6.280
  101SAPE   O1410177   0.821   1.396   6.466
  101SAPE   O1210178   0.671   1.303   6.288
  101SAPE   O1110179   0.899   1.365   6.239
  101SAPE    C110180   1.006   1.455   6.217
  101SAPE    HA10181   1.003   1.547   6.281
  101SAPE    HB10182   1.100   1.400   6.238
  101SAPE    C210183   0.999   1.505   6.072
  101SAPE    HS10184   1.073   1.590   6.067
  101SAPE   O2110185   0.859   1.531   6.040
  101SAPE   C2110186   0.846   1.649   5.988
  101SAPE   O2210187   0.937   1.725   5.977
  101SAPE   C2210188   0.712   1.671   5.927
  101SAPE   H2R10189   0.635   1.627   5.994
  101SAPE   H2S10190   0.691   1.780   5.915
  101SAPE    C310191   1.047   1.398   5.973
  101SAPE    HX10192   0.970   1.319   5.986
  101SAPE    HY10193   1.145   1.356   6.003
  101SAPE   O3110194   1.040   1.438   5.835
  101SAPE   C3110195   1.122   1.534   5.792
  101SAPE   O3210196   1.212   1.583   5.856
  101SAPE   C3210197   1.102   1.551   5.639
  101SAPE   H2X10198   0.999   1.571   5.611
  101SAPE   H2Y10199   1.121   1.446   5.605
  101SAPE   C2310200   0.721   1.602   5.790
  101SAPE   H3R10201   0.724   1.492   5.801
  101SAPE   H3S10202   0.811   1.637   5.734
  101SAPE   C2410203   0.609   1.645   5.703
  101SAPE   H4R10204   0.626   1.624   5.595
  101SAPE   H4S10205   0.621   1.753   5.715
  101SAPE   C2510206   0.480   1.593   5.756
  101SAPE   H5R10207   0.436   1.642   5.844
  101SAPE   C2610208   0.409   1.499   5.698
  101SAPE   H6R10209   0.320   1.476   5.750
  101SAPE   C2710210   0.440   1.426   5.571
  101SAPE   H7R10211   0.509   1.485   5.509
  101SAPE   H7S10212   0.354   1.419   5.504
  101SAPE   C2810213   0.492   1.289   5.603
  101SAPE   H8R10214   0.438   1.232   5.681
  101SAPE   C2910215   0.603   1.235   5.548
  101SAPE   H9R10216   0.625   1.129   5.569
  101SAPE  C21010217   0.693   1.301   5.446
  101SAPE  H10R10218   0.690   1.412   5.450
  101SAPE  H10S10219   0.654   1.273   5.346
  101SAPE  C21110220   0.837   1.257   5.457
  101SAPE  H11R10221   0.878   1.248   5.559
  101SAPE  C21210222   0.921   1.245   5.353
  101SAPE  H12R10223   1.024   1.215   5.374
  101SAPE  C21310224   0.890   1.273   5.208
  101SAPE  H13R10225   0.921   1.378   5.191
  101SAPE  H13S10226   0.781   1.271   5.184
  101SAPE  C21410227   0.960   1.180   5.111
  101SAPE  H14R10228   1.008   1.091   5.155
  101SAPE  C21510229   0.968   1.196   4.978
  101SAPE  H15R10230   1.024   1.120   4.920
  101SAPE  C21610231   0.909   1.309   4.897
  101SAPE  H16R10232   0.904   1.401   4.960
  101SAPE  H16S10233   0.808   1.280   4.864
  101SAPE  C21710234   0.978   1.342   4.764
  101SAPE  H17R10235   1.072   1.380   4.791
  101SAPE  H17S10236   0.943   1.433   4.713
  101SAPE  C21810237   0.995   1.221   4.671
  101SAPE  H18R10238   0.920   1.147   4.710
  101SAPE  H18S10239   1.096   1.177   4.683
  101SAPE  C21910240   0.959   1.247   4.524
  101SAPE  H19R10241   0.883   1.329   4.523
  101SAPE  H19S10242   0.911   1.156   4.483
  101SAPE  C22010243   1.077   1.278   4.432
  101SAPE  H20R10244   1.052   1.284   4.325
  101SAPE  H20S10245   1.162   1.206   4.447
  101SAPE  H20T10246   1.111   1.379   4.454
  101SAPE   C3310247   1.186   1.666   5.569
  101SAPE   H3X10248   1.291   1.645   5.595
  101SAPE   H3Y10249   1.196   1.762   5.619
  101SAPE   C3410250   1.157   1.677   5.411
  101SAPE   H4X10251   1.056   1.680   5.372
  101SAPE   H4Y10252   1.132   1.574   5.381
  101SAPE   C3510253   1.271   1.749   5.321
  101SAPE   H5X10254   1.381   1.733   5.339
  101SAPE   H5Y10255   1.257   1.850   5.356
  101SAPE   C3610256   1.265   1.743   5.166
  101SAPE   H6X10257   1.160   1.743   5.138
  101SAPE   H6Y10258   1.290   1.653   5.107
  101SAPE   C3710259   1.370   1.827   5.096
  101SAPE   H7X10260   1.472   1.814   5.143
  101SAPE   H7Y10261   1.333   1.929   5.116
  101SAPE   C3810262   1.380   1.786   4.948
  101SAPE   H8X10263   1.438   1.690   4.938
  101SAPE   H8Y10264   1.435   1.866   4.895
  101SAPE   C3910265   1.243   1.756   4.883
  101SAPE   H9X10266   1.188   1.675   4.936
  101SAPE   H9Y10267   1.262   1.715   4.783
  101SAPE  C31010268   1.148   1.875   4.886
  101SAPE  H10X10269   1.198   1.969   4.853
  101SAPE  H10Y10270   1.115   1.888   4.991
  101SAPE  C31110271   1.022   1.853   4.803
  101SAPE  H11X10272   0.960   1.945   4.812
  101SAPE  H11Y10273   0.965   1.765   4.839
  101SAPE  C31210274   1.048   1.818   4.658
  101SAPE  H12X10275   1.117   1.737   4.633
  101SAPE  H12Y10276   1.115   1.889   4.622
  101SAPE  C31310277   0.922   1.819   4.576
  101SAPE  H13X10278   0.854   1.901   4.612
  101SAPE  H13Y10279   0.875   1.721   4.597
  101SAPE  C31410280   0.946   1.838   4.426
  101SAPE  H14X10281   1.027   1.776   4.384
  101SAPE  H14Y10282   0.968   1.946   4.405
  101SAPE  C31510283   0.821   1.795   4.353
  101SAPE  H15X10284   0.826   1.825   4.246
  101SAPE  H15Y10285   0.758   1.862   4.414
  101SAPE  C31610286   0.755   1.656   4.376
  101SAPE  H16X10287   0.708   1.651   4.477
  101SAPE  H16Y10288   0.840   1.586   4.376
  101SAPE  C31710289   0.649   1.602   4.274
  101SAPE  H17X10290   0.634   1.496   4.302
  101SAPE  H17Y10291   0.692   1.609   4.171
  101SAPE  C31810292   0.502   1.648   4.272
  101SAPE  H18X10293   0.492   1.726   4.195
  101SAPE  H18Y10294   0.473   1.687   4.373
  101SAPE  H18Z10295   0.427   1.586   4.224
  102SAPE     N10296   7.149   0.791   6.179
  102SAPE   HN110297   7.208   0.759   6.100
  102SAPE   HN210298   7.171   0.889   6.207
  102SAPE   HN310299   7.176   0.726   6.257
  102SAPE   C1210300   7.005   0.781   6.137
  102SAPE  H12A10301   6.991   0.684   6.084
  102SAPE  H12B10302   6.983   0.864   6.067
  102SAPE   C1110303   6.915   0.790   6.259
  102SAPE  H11A10304   6.927   0.890   6.305
  102SAPE  H11B10305   6.948   0.712   6.332
  102SAPE     P10306   6.689   0.665   6.293
  102SAPE   O1310307   6.743   0.646   6.429
  102SAPE   O1410308   6.549   0.707   6.274
  102SAPE   O1210309   6.779   0.777   6.221
  102SAPE   O1110310   6.724   0.536   6.209
  102SAPE    C110311   6.651   0.507   6.090
  102SAPE    HA10312   6.550   0.465   6.113
  102SAPE    HB10313   6.636   0.599   6.029
  102SAPE    C210314   6.729   0.403   6.006
  102SAPE    HS10315   6.749   0.315   6.070
  102SAPE   O2110316   6.845   0.472   5.964
  102SAPE   C2110317   6.953   0.405   5.946
  102SAPE   O2210318   6.975   0.289   5.975
  102SAPE   C2210319   7.049   0.500   5.881
  102SAPE   H2R10320   7.001   0.596   5.855
  102SAPE   H2S10321   7.138   0.514   5.947
  102SAPE    C310322   6.657   0.352   5.879
  102SAPE    HX10323   6.566   0.293   5.909
  102SAPE    HY10324   6.716   0.279   5.822
  102SAPE   O3110325   6.644   0.461   5.787
  102SAPE   C3110326   6.530   0.513   5.806
  102SAPE   O3210327   6.444   0.463   5.877
  102SAPE   C3210328   6.527   0.645   5.729
  102SAPE   H2X10329   6.511   0.734   5.788
  102SAPE   H2Y10330   6.432   0.660   5.702
  102SAPE   C2310331   7.088   0.438   5.751
  102SAPE   H3R10332   7.010   0.381   5.696
  102SAPE   H3S10333   7.151   0.361   5.791
  102SAPE   C2410334   7.166   0.528   5.659
  102SAPE   H4R10335   7.154   0.471   5.564
  102SAPE   H4S10336   7.274   0.535   5.691
  102SAPE   C2510337   7.128   0.662   5.632
  102SAPE   H5R10338   7.139   0.720   5.723
  102SAPE   C2610339   7.103   0.709   5.510
  102SAPE   H6R10340   7.058   0.808   5.510
  102SAPE   C2710341   7.110   0.633   5.379
  102SAPE   H7R10342   7.186   0.555   5.384
  102SAPE   H7S10343   7.157   0.696   5.300
  102SAPE   C2810344   6.982   0.568   5.332
  102SAPE   H8R10345   6.932   0.495   5.398
  102SAPE   C2910346   6.925   0.594   5.214
  102SAPE   H9R10347   6.838   0.538   5.180
  102SAPE  C21010348   6.977   0.689   5.114
  102SAPE  H10R10349   6.927   0.664   5.019
  102SAPE  H10S10350   7.086   0.682   5.094
  102SAPE  C21110351   6.947   0.827   5.158
  102SAPE  H11R10352   6.943   0.857   5.265
  102SAPE  C21210353   6.942   0.917   5.065
  102SAPE  H12R10354   6.938   1.018   5.102
  102SAPE  C21310355   6.963   0.909   4.914
  102SAPE  H13R10356   7.065   0.886   4.883
  102SAPE  H13S10357   6.954   1.010   4.868
  102SAPE  C21410358   6.870   0.820   4.848
  102SAPE  H14R10359   6.771   0.818   4.889
  102SAPE  C21510360   6.888   0.752   4.738
  102SAPE  H15R10361   6.801   0.697   4.703
  102SAPE  C21610362   7.010   0.751   4.657
  102SAPE  H16R10363   7.070   0.845   4.655
  102SAPE  H16S10364   6.988   0.716   4.554
  102SAPE  C21710365   7.089   0.646   4.729
  102SAPE  H17R10366   7.126   0.683   4.828
  102SAPE  H17S10367   7.171   0.634   4.657
  102SAPE  C21810368   7.024   0.511   4.755
  102SAPE  H18R10369   6.937   0.519   4.824
  102SAPE  H18S10370   7.108   0.460   4.804
  102SAPE  C21910371   6.986   0.424   4.636
  102SAPE  H19R10372   6.906   0.471   4.580
  102SAPE  H19S10373   6.942   0.331   4.681
  102SAPE  C22010374   7.099   0.388   4.540
  102SAPE  H20R10375   7.192   0.368   4.596
  102SAPE  H20S10376   7.120   0.468   4.467
  102SAPE  H20T10377   7.069   0.296   4.486
  102SAPE   C3310378   6.596   0.655   5.593
  102SAPE   H3X10379   6.577   0.575   5.516
  102SAPE   H3Y10380   6.701   0.641   5.619
  102SAPE   C3410381   6.576   0.789   5.525
  102SAPE   H4X10382   6.612   0.870   5.591
  102SAPE   H4Y10383   6.478   0.837   5.503
  102SAPE   C3510384   6.652   0.768   5.396
  102SAPE   H5X10385   6.761   0.756   5.395
  102SAPE   H5Y10386   6.643   0.863   5.364
  102SAPE   C3610387   6.591   0.719   5.272
  102SAPE   H6X10388   6.571   0.610   5.288
  102SAPE   H6Y10389   6.667   0.730   5.190
  102SAPE   C3710390   6.477   0.794   5.206
  102SAPE   H7X10391   6.462   0.899   5.183
  102SAPE   H7Y10392   6.382   0.823   5.252
  102SAPE   C3810393   6.475   0.687   5.104
  102SAPE   H8X10394   6.377   0.671   5.138
  102SAPE   H8Y10395   6.466   0.581   5.132
  102SAPE   C3910396   6.515   0.733   4.954
  102SAPE   H9X10397   6.618   0.702   4.964
  102SAPE   H9Y10398   6.475   0.839   4.962
  102SAPE  C31010399   6.450   0.686   4.812
  102SAPE  H10X10400   6.352   0.736   4.782
  102SAPE  H10Y10401   6.448   0.577   4.807
  102SAPE  C31110402   6.491   0.679   4.682
  102SAPE  H11X10403   6.593   0.654   4.706
  102SAPE  H11Y10404   6.465   0.772   4.655
  102SAPE  C31210405   6.395   0.637   4.574
  102SAPE  H12X10406   6.308   0.702   4.559
  102SAPE  H12Y10407   6.350   0.539   4.600
  102SAPE  C31310408   6.474   0.658   4.450
  102SAPE  H13X10409   6.583   0.649   4.456
  102SAPE  H13Y10410   6.467   0.763   4.420
  102SAPE  C31410411   6.446   0.548   4.358
  102SAPE  H14X10412   6.347   0.567   4.357
  102SAPE  H14Y10413   6.419   0.446   4.396
  102SAPE  C31510414   6.550   0.543   4.250
  102SAPE  H15X10415   6.639   0.485   4.288
  102SAPE  H15Y10416   6.574   0.648   4.226
  102SAPE  C31610417   6.509   0.484   4.121
  102SAPE  H16X10418   6.412   0.507   4.082
  102SAPE  H16Y10419   6.520   0.376   4.145
  102SAPE  C31710420   6.587   0.508   4.004
  102SAPE  H17X10421   6.591   0.614   3.984
  102SAPE  H17Y10422   6.543   0.470   3.907
  102SAPE  C31810423   6.704   0.429   4.053
  102SAPE  H18X10424   6.682   0.375   3.964
  102SAPE  H18Y10425   6.712   0.322   4.084
  102SAPE  H18Z10426   6.795   0.489   4.056
  103SAPE     N10427   2.829   4.409   2.328
  103SAPE   HN110428   2.742   4.460   2.350
  103SAPE   HN210429   2.845   4.334   2.398
  103SAPE   HN310430   2.912   4.471   2.322
  103SAPE   C1210431   2.812   4.337   2.198
  103SAPE  H12A10432   2.901   4.272   2.180
  103SAPE  H12B10433   2.805   4.415   2.120
  103SAPE   C1110434   2.682   4.260   2.197
  103SAPE  H11A10435   2.667   4.221   2.094
  103SAPE  H11B10436   2.596   4.326   2.220
  103SAPE     P10437   2.725   4.010   2.246
  103SAPE   O1310438   2.621   3.963   2.153
  103SAPE   O1410439   2.867   4.016   2.205
  103SAPE   O1210440   2.685   4.156   2.293
  103SAPE   O1110441   2.706   3.944   2.386
  103SAPE    C110442   2.781   4.001   2.491
  103SAPE    HA10443   2.886   3.989   2.460
  103SAPE    HB10444   2.761   4.108   2.511
  103SAPE    C210445   2.750   3.926   2.619
  103SAPE    HS10446   2.781   3.819   2.600
  103SAPE   O2110447   2.615   3.942   2.658
  103SAPE   C2110448   2.572   3.870   2.760
  103SAPE   O2210449   2.623   3.778   2.816
  103SAPE   C2210450   2.437   3.913   2.802
  103SAPE   H2R10451   2.416   4.011   2.757
  103SAPE   H2S10452   2.374   3.831   2.762
  103SAPE    C310453   2.835   3.984   2.727
  103SAPE    HX10454   2.931   3.942   2.692
  103SAPE    HY10455   2.826   3.938   2.823
  103SAPE   O3110456   2.832   4.127   2.746
  103SAPE   C3110457   2.786   4.167   2.866
  103SAPE   O3210458   2.752   4.096   2.958
  103SAPE   C3210459   2.784   4.316   2.873
  103SAPE   H2X10460   2.751   4.351   2.773
  103SAPE   H2Y10461   2.887   4.351   2.895
  103SAPE   C2310462   2.432   3.918   2.957
  103SAPE   H3R10463   2.505   3.996   2.990
  103SAPE   H3S10464   2.465   3.821   3.002
  103SAPE   C2410465   2.292   3.952   3.009
  103SAPE   H4R10466   2.294   3.940   3.119
  103SAPE   H4S10467   2.218   3.879   2.970
  103SAPE   C2510468   2.257   4.092   2.965
  103SAPE   H5R10469   2.239   4.105   2.857
  103SAPE   C2610470   2.247   4.200   3.045
  103SAPE   H6R10471   2.226   4.298   3.001
  103SAPE   C2710472   2.267   4.207   3.194
  103SAPE   H7R10473   2.250   4.109   3.244
  103SAPE   H7S10474   2.187   4.274   3.231
  103SAPE   C2810475   2.400   4.270   3.226
  103SAPE   H8R10476   2.424   4.363   3.174
  103SAPE   C2910477   2.486   4.231   3.318
  103SAPE   H9R10478   2.589   4.273   3.318
  103SAPE  C21010479   2.470   4.114   3.408
  103SAPE  H10R10480   2.577   4.106   3.429
  103SAPE  H10S10481   2.435   4.023   3.351
  103SAPE  C21110482   2.400   4.124   3.542
  103SAPE  H11R10483   2.311   4.185   3.539
  103SAPE  C21210484   2.434   4.071   3.663
  103SAPE  H12R10485   2.399   4.107   3.758
  103SAPE  C21310486   2.545   3.982   3.693
  103SAPE  H13R10487   2.598   4.031   3.773
  103SAPE  H13S10488   2.583   3.991   3.603
  103SAPE  C21410489   2.544   3.838   3.720
  103SAPE  H14R10490   2.513   3.786   3.617
  103SAPE  C21510491   2.659   3.767   3.759
  103SAPE  H15R10492   2.617   3.679   3.819
  103SAPE  C21610493   2.772   3.783   3.856
  103SAPE  H16R10494   2.840   3.861   3.813
  103SAPE  H16S10495   2.867   3.722   3.858
  103SAPE  C21710496   2.692   3.747   3.981
  103SAPE  H17R10497   2.792   3.756   4.031
  103SAPE  H17S10498   2.705   3.659   4.048
  103SAPE  C21810499   2.560   3.849   4.020
  103SAPE  H18R10500   2.556   3.957   3.990
  103SAPE  H18S10501   2.545   3.882   4.129
  103SAPE  C21910502   2.432   3.794   4.025
  103SAPE  H19R10503   2.466   3.703   4.079
  103SAPE  H19S10504   2.413   3.794   3.917
  103SAPE  C22010505   2.342   3.887   4.104
  103SAPE  H20R10506   2.340   3.986   4.050
  103SAPE  H20S10507   2.362   3.910   4.210
  103SAPE  H20T10508   2.248   3.830   4.097
  103SAPE   C3310509   2.688   4.363   2.983
  103SAPE   H3X10510   2.707   4.314   3.081
  103SAPE   H3Y10511   2.583   4.336   2.955
  103SAPE   C3410512   2.696   4.515   3.001
  103SAPE   H4X10513   2.605   4.548   3.056
  103SAPE   H4Y10514   2.690   4.561   2.900
  103SAPE   C3510515   2.822   4.566   3.075
  103SAPE   H5X10516   2.818   4.678   3.075
  103SAPE   H5Y10517   2.913   4.537   3.018
  103SAPE   C3610518   2.834   4.522   3.223
  103SAPE   H6X10519   2.923   4.571   3.270
  103SAPE   H6Y10520   2.855   4.413   3.230
  103SAPE   C3710521   2.708   4.556   3.306
  103SAPE   H7X10522   2.624   4.493   3.272
  103SAPE   H7Y10523   2.679   4.663   3.291
  103SAPE   C3810524   2.732   4.532   3.455
  103SAPE   H8X10525   2.806   4.609   3.489
  103SAPE   H8Y10526   2.775   4.430   3.463
  103SAPE   C3910527   2.613   4.541   3.551
  103SAPE   H9X10528   2.542   4.457   3.532
  103SAPE   H9Y10529   2.561   4.637   3.536
  103SAPE  C31010530   2.653   4.540   3.700
  103SAPE  H10X10531   2.560   4.532   3.759
  103SAPE  H10Y10532   2.702   4.637   3.722
  103SAPE  C31110533   2.752   4.427   3.732
  103SAPE  H11X10534   2.844   4.451   3.674
  103SAPE  H11Y10535   2.708   4.332   3.692
  103SAPE  C31210536   2.790   4.403   3.879
  103SAPE  H12X10537   2.843   4.489   3.923
  103SAPE  H12Y10538   2.870   4.326   3.880
  103SAPE  C31310539   2.672   4.353   3.964
  103SAPE  H13X10540   2.627   4.275   3.906
  103SAPE  H13Y10541   2.584   4.415   3.959
  103SAPE  C31410542   2.696   4.318   4.112
  103SAPE  H14X10543   2.612   4.256   4.151
  103SAPE  H14Y10544   2.695   4.416   4.164
  103SAPE  C31510545   2.833   4.261   4.151
  103SAPE  H15X10546   2.917   4.307   4.098
  103SAPE  H15Y10547   2.844   4.160   4.126
  103SAPE  C31610548   2.854   4.240   4.297
  103SAPE  H16X10549   2.760   4.194   4.339
  103SAPE  H16Y10550   2.868   4.338   4.338
  103SAPE  C31710551   2.987   4.171   4.330
  103SAPE  H17X10552   3.063   4.165   4.253
  103SAPE  H17Y10553   2.985   4.065   4.323
  103SAPE  C31810554   3.028   4.190   4.474
  103SAPE  H18X10555   3.079   4.268   4.516
  103SAPE  H18Y10556   3.091   4.104   4.506
  103SAPE  H18Z10557   2.930   4.192   4.532
  104SAPE     N10558   2.418   2.498   2.218
  104SAPE   HN110559   2.470   2.542   2.297
  104SAPE   HN210560   2.429   2.395   2.216
  104SAPE   HN310561   2.449   2.543   2.129
  104SAPE   C1210562   2.278   2.543   2.244
  104SAPE  H12A10563   2.245   2.502   2.341
  104SAPE  H12B10564   2.216   2.497   2.167
  104SAPE   C1110565   2.277   2.698   2.244
  104SAPE  H11A10566   2.188   2.737   2.299
  104SAPE  H11B10567   2.268   2.732   2.138
  104SAPE     P10568   2.456   2.889   2.258
  104SAPE   O1310569   2.578   2.918   2.336
  104SAPE   O1410570   2.470   2.894   2.112
  104SAPE   O1210571   2.398   2.747   2.302
  104SAPE   O1110572   2.337   2.985   2.294
  104SAPE    C110573   2.256   2.969   2.410
  104SAPE    HA10574   2.149   2.982   2.382
  104SAPE    HB10575   2.269   2.871   2.461
  104SAPE    C210576   2.292   3.074   2.511
  104SAPE    HS10577   2.247   3.169   2.471
  104SAPE   O2110578   2.432   3.081   2.524
  104SAPE   C2110579   2.470   3.201   2.541
  104SAPE   O2210580   2.402   3.302   2.553
  104SAPE   C2210581   2.616   3.200   2.541
  104SAPE   H2R10582   2.664   3.100   2.533
  104SAPE   H2S10583   2.640   3.262   2.453
  104SAPE    C310584   2.241   3.043   2.650
  104SAPE    HX10585   2.129   3.036   2.639
  104SAPE    HY10586   2.280   3.128   2.711
  104SAPE   O3110587   2.297   2.933   2.713
  104SAPE   C3110588   2.214   2.860   2.779
  104SAPE   O3210589   2.094   2.876   2.792
  104SAPE   C3210590   2.291   2.743   2.829
  104SAPE   H2X10591   2.217   2.661   2.821
  104SAPE   H2Y10592   2.319   2.764   2.934
  104SAPE   C2310593   2.654   3.257   2.674
  104SAPE   H3R10594   2.594   3.348   2.699
  104SAPE   H3S10595   2.761   3.278   2.656
  104SAPE   C2410596   2.665   3.159   2.789
  104SAPE   H4R10597   2.761   3.106   2.770
  104SAPE   H4S10598   2.578   3.094   2.777
  104SAPE   C2510599   2.679   3.196   2.932
  104SAPE   H5R10600   2.760   3.267   2.949
  104SAPE   C2610601   2.585   3.188   3.025
  104SAPE   H6R10602   2.613   3.205   3.129
  104SAPE   C2710603   2.444   3.147   3.020
  104SAPE   H7R10604   2.412   3.119   2.919
  104SAPE   H7S10605   2.391   3.242   3.047
  104SAPE   C2810606   2.419   3.039   3.121
  104SAPE   H8R10607   2.423   2.937   3.084
  104SAPE   C2910608   2.402   3.058   3.252
  104SAPE   H9R10609   2.369   2.976   3.318
  104SAPE  C21010610   2.406   3.190   3.315
  104SAPE  H10R10611   2.325   3.250   3.283
  104SAPE  H10S10612   2.458   3.267   3.258
  104SAPE  C21110613   2.436   3.158   3.461
  104SAPE  H11R10614   2.543   3.176   3.460
  104SAPE  C21210615   2.386   3.186   3.586
  104SAPE  H12R10616   2.445   3.233   3.667
  104SAPE  C21310617   2.278   3.266   3.621
  104SAPE  H13R10618   2.257   3.317   3.528
  104SAPE  H13S10619   2.311   3.362   3.670
  104SAPE  C21410620   2.172   3.192   3.698
  104SAPE  H14R10621   2.072   3.195   3.654
  104SAPE  C21510622   2.173   3.162   3.828
  104SAPE  H15R10623   2.076   3.162   3.877
  104SAPE  C21610624   2.272   3.188   3.931
  104SAPE  H16R10625   2.215   3.192   4.025
  104SAPE  H16S10626   2.334   3.282   3.926
  104SAPE  C21710627   2.374   3.086   3.919
  104SAPE  H17R10628   2.418   3.098   3.818
  104SAPE  H17S10629   2.325   2.992   3.948
  104SAPE  C21810630   2.483   3.123   4.008
  104SAPE  H18R10631   2.438   3.093   4.108
  104SAPE  H18S10632   2.513   3.231   3.992
  104SAPE  C21910633   2.606   3.053   4.007
  104SAPE  H19R10634   2.651   3.054   3.909
  104SAPE  H19S10635   2.559   2.959   4.036
  104SAPE  C22010636   2.700   3.113   4.105
  104SAPE  H20R10637   2.647   3.109   4.202
  104SAPE  H20S10638   2.730   3.217   4.104
  104SAPE  H20T10639   2.792   3.050   4.107
  104SAPE   C3310640   2.415   2.711   2.741
  104SAPE   H3X10641   2.387   2.724   2.634
  104SAPE   H3Y10642   2.438   2.603   2.756
  104SAPE   C3410643   2.544   2.788   2.780
  104SAPE   H4X10644   2.522   2.894   2.801
  104SAPE   H4Y10645   2.615   2.789   2.693
  104SAPE   C3510646   2.613   2.726   2.904
  104SAPE   H5X10647   2.658   2.629   2.873
  104SAPE   H5Y10648   2.536   2.704   2.981
  104SAPE   C3610649   2.719   2.817   2.969
  104SAPE   H6X10650   2.674   2.915   2.996
  104SAPE   H6Y10651   2.794   2.838   2.889
  104SAPE   C3710652   2.786   2.759   3.096
  104SAPE   H7X10653   2.882   2.813   3.112
  104SAPE   H7Y10654   2.815   2.652   3.078
  104SAPE   C3810655   2.697   2.776   3.223
  104SAPE   H8X10656   2.607   2.711   3.212
  104SAPE   H8Y10657   2.672   2.882   3.239
  104SAPE   C3910658   2.760   2.730   3.354
  104SAPE   H9X10659   2.856   2.784   3.373
  104SAPE   H9Y10660   2.773   2.627   3.315
  104SAPE  C31010661   2.681   2.705   3.484
  104SAPE  H10X10662   2.742   2.693   3.576
  104SAPE  H10Y10663   2.626   2.609   3.477
  104SAPE  C31110664   2.618   2.826   3.541
  104SAPE  H11X10665   2.545   2.866   3.469
  104SAPE  H11Y10666   2.702   2.899   3.555
  104SAPE  C31210667   2.558   2.804   3.680
  104SAPE  H12X10668   2.519   2.906   3.702
  104SAPE  H12Y10669   2.637   2.783   3.756
  104SAPE  C31310670   2.441   2.705   3.689
  104SAPE  H13X10671   2.470   2.598   3.687
  104SAPE  H13Y10672   2.377   2.723   3.599
  104SAPE  C31410673   2.351   2.733   3.811
  104SAPE  H14X10674   2.249   2.696   3.790
  104SAPE  H14Y10675   2.347   2.843   3.822
  104SAPE  C31510676   2.398   2.671   3.943
  104SAPE  H15X10677   2.497   2.714   3.951
  104SAPE  H15Y10678   2.428   2.567   3.934
  104SAPE  C31610679   2.298   2.681   4.062
  104SAPE  H16X10680   2.200   2.641   4.031
  104SAPE  H16Y10681   2.285   2.787   4.094
  104SAPE  C31710682   2.329   2.589   4.182
  104SAPE  H17X10683   2.402   2.637   4.233
  104SAPE  H17Y10684   2.376   2.493   4.154
  104SAPE  C31810685   2.244   2.586   4.308
  104SAPE  H18X10686   2.211   2.690   4.333
  104SAPE  H18Y10687   2.308   2.550   4.394
  104SAPE  H18Z10688   2.160   2.517   4.294
  105SAPE     N10689   5.463   3.034   2.061
  105SAPE   HN110690   5.519   2.999   1.980
  105SAPE   HN210691   5.364   3.052   2.030
  105SAPE   HN310692   5.503   3.124   2.096
  105SAPE   C1210693   5.461   2.933   2.174
  105SAPE  H12A10694   5.560   2.936   2.224
  105SAPE  H12B10695   5.446   2.833   2.129
  105SAPE   C1110696   5.348   2.962   2.275
  105SAPE  H11A10697   5.359   3.062   2.322
  105SAPE  H11B10698   5.357   2.885   2.357
  105SAPE     P10699   5.093   2.901   2.290
  105SAPE   O1310700   4.969   2.909   2.209
  105SAPE   O1410701   5.125   2.771   2.350
  105SAPE   O1210702   5.222   2.956   2.210
  105SAPE   O1110703   5.090   3.009   2.404
  105SAPE    C110704   4.995   2.984   2.506
  105SAPE    HA10705   4.891   2.966   2.466
  105SAPE    HB10706   5.024   2.897   2.570
  105SAPE    C210707   4.991   3.102   2.600
  105SAPE    HS10708   4.949   3.190   2.543
  105SAPE   O2110709   5.122   3.123   2.662
  105SAPE   C2110710   5.173   3.243   2.657
  105SAPE   O2210711   5.139   3.330   2.579
  105SAPE   C2210712   5.287   3.263   2.760
  105SAPE   H2R10713   5.293   3.177   2.830
  105SAPE   H2S10714   5.367   3.266   2.685
  105SAPE    C310715   4.894   3.064   2.709
  105SAPE    HX10716   4.792   3.030   2.689
  105SAPE    HY10717   4.870   3.141   2.770
  105SAPE   O3110718   4.967   2.975   2.786
  105SAPE   C3110719   5.024   3.012   2.897
  105SAPE   O3210720   5.019   3.120   2.954
  105SAPE   C3210721   5.084   2.882   2.958
  105SAPE   H2X10722   5.061   2.792   2.897
  105SAPE   H2Y10723   5.053   2.852   3.060
  105SAPE   C2310724   5.306   3.393   2.846
  105SAPE   H3R10725   5.252   3.477   2.800
  105SAPE   H3S10726   5.405   3.442   2.840
  105SAPE   C2410727   5.276   3.358   2.996
  105SAPE   H4R10728   5.350   3.291   3.038
  105SAPE   H4S10729   5.174   3.312   3.004
  105SAPE   C2510730   5.272   3.479   3.079
  105SAPE   H5R10731   5.269   3.553   3.004
  105SAPE   C2610732   5.294   3.512   3.208
  105SAPE   H6R10733   5.272   3.612   3.249
  105SAPE   C2710734   5.334   3.409   3.304
  105SAPE   H7R10735   5.379   3.454   3.395
  105SAPE   H7S10736   5.416   3.358   3.249
  105SAPE   C2810737   5.215   3.320   3.327
  105SAPE   H8R10738   5.168   3.280   3.235
  105SAPE   C2910739   5.158   3.300   3.445
  105SAPE   H9R10740   5.075   3.228   3.450
  105SAPE  C21010741   5.204   3.362   3.575
  105SAPE  H10R10742   5.111   3.382   3.633
  105SAPE  H10S10743   5.247   3.463   3.558
  105SAPE  C21110744   5.302   3.277   3.654
  105SAPE  H11R10745   5.377   3.220   3.599
  105SAPE  C21210746   5.311   3.273   3.787
  105SAPE  H12R10747   5.378   3.203   3.838
  105SAPE  C21310748   5.224   3.355   3.872
  105SAPE  H13R10749   5.131   3.303   3.902
  105SAPE  H13S10750   5.203   3.450   3.821
  105SAPE  C21410751   5.295   3.392   3.991
  105SAPE  H14R10752   5.404   3.411   4.001
  105SAPE  C21510753   5.226   3.413   4.094
  105SAPE  H15R10754   5.299   3.455   4.152
  105SAPE  C21610755   5.086   3.413   4.139
  105SAPE  H16R10756   5.025   3.458   4.060
  105SAPE  H16S10757   5.094   3.477   4.229
  105SAPE  C21710758   5.015   3.287   4.177
  105SAPE  H17R10759   5.042   3.216   4.098
  105SAPE  H17S10760   4.907   3.306   4.164
  105SAPE  C21810761   5.055   3.243   4.319
  105SAPE  H18R10762   5.037   3.314   4.401
  105SAPE  H18S10763   5.164   3.240   4.320
  105SAPE  C21910764   5.005   3.108   4.364
  105SAPE  H19R10765   5.072   3.058   4.433
  105SAPE  H19S10766   5.000   3.043   4.278
  105SAPE  C22010767   4.873   3.116   4.431
  105SAPE  H20R10768   4.860   3.186   4.511
  105SAPE  H20S10769   4.821   3.024   4.463
  105SAPE  H20T10770   4.821   3.160   4.347
  105SAPE   C3310771   5.224   2.908   2.951
  105SAPE   H3X10772   5.244   2.991   3.022
  105SAPE   H3Y10773   5.239   2.935   2.843
  105SAPE   C3410774   5.294   2.779   2.980
  105SAPE   H4X10775   5.398   2.804   2.955
  105SAPE   H4Y10776   5.260   2.699   2.910
  105SAPE   C3510777   5.277   2.730   3.123
  105SAPE   H5X10778   5.349   2.646   3.135
  105SAPE   H5Y10779   5.176   2.690   3.148
  105SAPE   C3610780   5.297   2.831   3.234
  105SAPE   H6X10781   5.251   2.931   3.231
  105SAPE   H6Y10782   5.400   2.862   3.229
  105SAPE   C3710783   5.282   2.754   3.365
  105SAPE   H7X10784   5.318   2.836   3.425
  105SAPE   H7Y10785   5.350   2.666   3.373
  105SAPE   C3810786   5.167   2.762   3.460
  105SAPE   H8X10787   5.192   2.698   3.548
  105SAPE   H8Y10788   5.091   2.714   3.397
  105SAPE   C3910789   5.150   2.913   3.503
  105SAPE   H9X10790   5.136   2.979   3.416
  105SAPE   H9Y10791   5.228   2.946   3.575
  105SAPE  C31010792   5.032   2.936   3.580
  105SAPE  H10X10793   4.978   2.884   3.496
  105SAPE  H10Y10794   4.957   3.016   3.585
  105SAPE  C31110795   5.071   2.877   3.716
  105SAPE  H11X10796   5.080   2.766   3.729
  105SAPE  H11Y10797   4.980   2.908   3.760
  105SAPE  C31210798   5.099   2.959   3.837
  105SAPE  H12X10799   5.030   3.045   3.864
  105SAPE  H12Y10800   5.184   3.011   3.794
  105SAPE  C31310801   5.121   2.862   3.954
  105SAPE  H13X10802   5.160   2.764   3.915
  105SAPE  H13Y10803   5.041   2.834   4.025
  105SAPE  C31410804   5.225   2.934   4.030
  105SAPE  H14X10805   5.211   3.041   4.049
  105SAPE  H14Y10806   5.288   2.943   3.941
  105SAPE  C31510807   5.265   2.861   4.158
  105SAPE  H15X10808   5.285   2.756   4.138
  105SAPE  H15Y10809   5.180   2.840   4.225
  105SAPE  C31610810   5.378   2.935   4.231
  105SAPE  H16X10811   5.343   3.037   4.259
  105SAPE  H16Y10812   5.470   2.946   4.169
  105SAPE  C31710813   5.413   2.870   4.362
  105SAPE  H17X10814   5.331   2.883   4.436
  105SAPE  H17Y10815   5.504   2.919   4.405
  105SAPE  C31810816   5.433   2.723   4.342
  105SAPE  H18X10817   5.452   2.686   4.442
  105SAPE  H18Y10818   5.513   2.708   4.269
  105SAPE  H18Z10819   5.352   2.657   4.308
  106SAPE     N10820   6.047   4.146   2.102
  106SAPE   HN110821   5.968   4.078   2.111
  106SAPE   HN210822   6.042   4.165   2.205
  106SAPE   HN310823   6.010   4.229   2.052
  106SAPE   C1210824   6.170   4.057   2.095
  106SAPE  H12A10825   6.148   3.978   2.022
  106SAPE  H12B10826   6.198   4.007   2.193
  106SAPE   C1110827   6.287   4.136   2.089
  106SAPE  H11A10828   6.263   4.178   1.989
  106SAPE  H11B10829   6.364   4.053   2.096
  106SAPE     P10830   6.374   4.210   2.326
  106SAPE   O1310831   6.308   4.128   2.428
  106SAPE   O1410832   6.505   4.169   2.270
  106SAPE   O1210833   6.277   4.225   2.202
  106SAPE   O1110834   6.378   4.355   2.381
  106SAPE    C110835   6.383   4.467   2.295
  106SAPE    HA10836   6.482   4.473   2.245
  106SAPE    HB10837   6.311   4.458   2.213
  106SAPE    C210838   6.349   4.597   2.371
  106SAPE    HS10839   6.394   4.685   2.318
  106SAPE   O2110840   6.393   4.597   2.508
  106SAPE   C2110841   6.517   4.558   2.526
  106SAPE   O2210842   6.604   4.547   2.441
  106SAPE   C2210843   6.538   4.536   2.678
  106SAPE   H2R10844   6.643   4.547   2.705
  106SAPE   H2S10845   6.483   4.616   2.732
  106SAPE    C310846   6.196   4.621   2.370
  106SAPE    HX10847   6.164   4.647   2.267
  106SAPE    HY10848   6.179   4.709   2.428
  106SAPE   O3110849   6.119   4.510   2.418
  106SAPE   C3110850   6.094   4.498   2.548
  106SAPE   O3210851   6.106   4.577   2.637
  106SAPE   C3210852   6.034   4.365   2.571
  106SAPE   H2X10853   6.083   4.297   2.498
  106SAPE   H2Y10854   5.925   4.383   2.551
  106SAPE   C2310855   6.510   4.393   2.727
  106SAPE   H3R10856   6.572   4.325   2.664
  106SAPE   H3S10857   6.402   4.373   2.713
  106SAPE   C2410858   6.542   4.364   2.875
  106SAPE   H4R10859   6.533   4.256   2.897
  106SAPE   H4S10860   6.467   4.415   2.939
  106SAPE   C2510861   6.680   4.407   2.902
  106SAPE   H5R10862   6.766   4.350   2.865
  106SAPE   C2610863   6.703   4.517   2.968
  106SAPE   H6R10864   6.811   4.533   2.979
  106SAPE   C2710865   6.593   4.611   3.023
  106SAPE   H7R10866   6.508   4.631   2.958
  106SAPE   H7S10867   6.624   4.719   3.029
  106SAPE   C2810868   6.547   4.555   3.158
  106SAPE   H8R10869   6.604   4.472   3.199
  106SAPE   C2910870   6.451   4.599   3.237
  106SAPE   H9R10871   6.442   4.576   3.346
  106SAPE  C21010872   6.372   4.712   3.202
  106SAPE  H10R10873   6.417   4.784   3.129
  106SAPE  H10S10874   6.358   4.762   3.295
  106SAPE  C21110875   6.245   4.642   3.160
  106SAPE  H11R10876   6.232   4.640   3.051
  106SAPE  C21210877   6.147   4.599   3.242
  106SAPE  H12R10878   6.058   4.556   3.196
  106SAPE  C21310879   6.140   4.608   3.392
  106SAPE  H13R10880   6.038   4.638   3.425
  106SAPE  H13S10881   6.208   4.682   3.432
  106SAPE  C21410882   6.177   4.476   3.452
  106SAPE  H14R10883   6.156   4.389   3.390
  106SAPE  C21510884   6.234   4.460   3.571
  106SAPE  H15R10885   6.251   4.359   3.610
  106SAPE  C21610886   6.269   4.569   3.667
  106SAPE  H16R10887   6.276   4.673   3.630
  106SAPE  H16S10888   6.366   4.548   3.707
  106SAPE  C21710889   6.179   4.565   3.785
  106SAPE  H17R10890   6.073   4.555   3.755
  106SAPE  H17S10891   6.189   4.661   3.841
  106SAPE  C21810892   6.216   4.458   3.883
  106SAPE  H18R10893   6.319   4.468   3.920
  106SAPE  H18S10894   6.211   4.352   3.846
  106SAPE  C21910895   6.123   4.487   3.998
  106SAPE  H19R10896   6.134   4.384   4.038
  106SAPE  H19S10897   6.015   4.491   3.978
  106SAPE  C22010898   6.162   4.614   4.085
  106SAPE  H20R10899   6.104   4.620   4.179
  106SAPE  H20S10900   6.137   4.712   4.042
  106SAPE  H20T10901   6.268   4.610   4.119
  106SAPE   C3310902   6.073   4.297   2.704
  106SAPE   H3X10903   6.173   4.335   2.730
  106SAPE   H3Y10904   6.078   4.186   2.687
  106SAPE   C3410905   5.976   4.316   2.819
  106SAPE   H4X10906   5.886   4.256   2.793
  106SAPE   H4Y10907   5.959   4.426   2.829
  106SAPE   C3510908   6.001   4.252   2.954
  106SAPE   H5X10909   5.988   4.147   2.933
  106SAPE   H5Y10910   5.919   4.271   3.025
  106SAPE   C3610911   6.136   4.290   3.008
  106SAPE   H6X10912   6.142   4.399   3.022
  106SAPE   H6Y10913   6.208   4.263   2.927
  106SAPE   C3710914   6.180   4.225   3.139
  106SAPE   H7X10915   6.155   4.119   3.143
  106SAPE   H7Y10916   6.110   4.246   3.221
  106SAPE   C3810917   6.330   4.266   3.162
  106SAPE   H8X10918   6.323   4.374   3.178
  106SAPE   H8Y10919   6.400   4.236   3.081
  106SAPE   C3910920   6.399   4.211   3.282
  106SAPE   H9X10921   6.448   4.114   3.256
  106SAPE   H9Y10922   6.311   4.219   3.351
  106SAPE  C31010923   6.498   4.259   3.378
  106SAPE  H10X10924   6.454   4.359   3.404
  106SAPE  H10Y10925   6.596   4.262   3.326
  106SAPE  C31110926   6.502   4.155   3.495
  106SAPE  H11X10927   6.547   4.058   3.473
  106SAPE  H11Y10928   6.396   4.147   3.531
  106SAPE  C31210929   6.573   4.197   3.615
  106SAPE  H12X10930   6.497   4.280   3.620
  106SAPE  H12Y10931   6.677   4.215   3.589
  106SAPE  C31310932   6.604   4.127   3.748
  106SAPE  H13X10933   6.685   4.179   3.803
  106SAPE  H13Y10934   6.630   4.022   3.724
  106SAPE  C31410935   6.489   4.144   3.841
  106SAPE  H14X10936   6.444   4.080   3.767
  106SAPE  H14Y10937   6.443   4.245   3.846
  106SAPE  C31510938   6.484   4.066   3.969
  106SAPE  H15X10939   6.554   4.113   4.039
  106SAPE  H15Y10940   6.504   3.957   3.950
  106SAPE  C31610941   6.373   4.082   4.066
  106SAPE  H16X10942   6.272   4.080   4.045
  106SAPE  H16Y10943   6.313   4.173   4.085
  106SAPE  C31710944   6.371   3.963   4.146
  106SAPE  H17X10945   6.369   3.855   4.121
  106SAPE  H17Y10946   6.270   3.967   4.175
  106SAPE  C31810947   6.406   4.013   4.272
  106SAPE  H18X10948   6.513   4.003   4.285
  106SAPE  H18Y10949   6.361   3.935   4.322
  106SAPE  H18Z10950   6.341   4.097   4.307
  107SAPE     N10951   0.985   3.351   2.141
  107SAPE   HN110952   0.886   3.358   2.171
  107SAPE   HN210953   1.049   3.367   2.223
  107SAPE   HN310954   1.005   3.423   2.069
  107SAPE   C1210955   1.014   3.214   2.083
  107SAPE  H12A10956   1.113   3.183   2.119
  107SAPE  H12B10957   1.014   3.226   1.973
  107SAPE   C1110958   0.905   3.112   2.116
  107SAPE  H11A10959   0.920   3.019   2.057
  107SAPE  H11B10960   0.809   3.155   2.080
  107SAPE     P10961   0.763   3.067   2.330
  107SAPE   O1310962   0.769   3.149   2.452
  107SAPE   O1410963   0.654   3.094   2.233
  107SAPE   O1210964   0.904   3.083   2.256
  107SAPE   O1110965   0.760   2.920   2.373
  107SAPE    C110966   0.762   2.818   2.274
  107SAPE    HA10967   0.661   2.798   2.237
  107SAPE    HB10968   0.827   2.841   2.187
  107SAPE    C210969   0.814   2.695   2.340
  107SAPE    HS10970   0.791   2.600   2.285
  107SAPE   O2110971   0.781   2.677   2.475
  107SAPE   C2110972   0.664   2.684   2.502
  107SAPE   O2210973   0.565   2.673   2.431
  107SAPE   C2210974   0.673   2.683   2.650
  107SAPE   H2R10975   0.722   2.585   2.675
  107SAPE   H2S10976   0.721   2.764   2.702
  107SAPE    C310977   0.957   2.703   2.339
  107SAPE    HX10978   0.999   2.697   2.240
  107SAPE    HY10979   0.965   2.609   2.400
  107SAPE   O3110980   1.023   2.813   2.393
  107SAPE   C3110981   1.041   2.790   2.513
  107SAPE   O3210982   1.019   2.691   2.583
  107SAPE   C3210983   1.109   2.905   2.552
  107SAPE   H2X10984   1.043   2.995   2.550
  107SAPE   H2Y10985   1.193   2.935   2.476
  107SAPE   C2310986   0.539   2.689   2.707
  107SAPE   H3R10987   0.542   2.589   2.678
  107SAPE   H3S10988   0.452   2.732   2.651
  107SAPE   C2410989   0.550   2.681   2.852
  107SAPE   H4R10990   0.574   2.589   2.909
  107SAPE   H4S10991   0.471   2.638   2.902
  107SAPE   C2510992   0.503   2.806   2.900
  107SAPE   H5R10993   0.415   2.849   2.854
  107SAPE   C2610994   0.565   2.848   3.004
  107SAPE   H6R10995   0.568   2.948   3.031
  107SAPE   C2710996   0.658   2.764   3.067
  107SAPE   H7R10997   0.770   2.783   3.040
  107SAPE   H7S10998   0.652   2.655   3.058
  107SAPE   C2810999   0.671   2.736   3.206
  107SAPE   H8R11000   0.685   2.637   3.240
  107SAPE   C2911001   0.635   2.817   3.301
  107SAPE   H9R11002   0.703   2.765   3.368
  107SAPE  C21011003   0.643   2.973   3.323
  107SAPE  H10R11004   0.623   3.006   3.221
  107SAPE  H10S11005   0.683   3.009   3.404
  107SAPE  C21111006   0.483   2.953   3.354
  107SAPE  H11R11007   0.442   2.967   3.267
  107SAPE  C21211008   0.414   2.971   3.486
  107SAPE  H12R11009   0.306   2.958   3.507
  107SAPE  C21311010   0.427   2.919   3.619
  107SAPE  H13R11011   0.476   2.857   3.597
  107SAPE  H13S11012   0.334   2.876   3.662
  107SAPE  C21411013   0.470   3.046   3.693
  107SAPE  H14R11014   0.442   3.143   3.655
  107SAPE  C21511015   0.504   3.023   3.812
  107SAPE  H15R11016   0.553   3.101   3.866
  107SAPE  C21611017   0.515   2.897   3.881
  107SAPE  H16R11018   0.623   2.910   3.898
  107SAPE  H16S11019   0.539   2.804   3.852
  107SAPE  C21711020   0.409   2.806   3.945
  107SAPE  H17R11021   0.454   2.722   4.005
  107SAPE  H17S11022   0.332   2.767   3.878
  107SAPE  C21811023   0.355   2.880   4.047
  107SAPE  H18R11024   0.272   2.831   4.102
  107SAPE  H18S11025   0.317   2.974   3.999
  107SAPE  C21911026   0.478   2.898   4.126
  107SAPE  H19R11027   0.552   2.966   4.083
  107SAPE  H19S11028   0.547   2.831   4.182
  107SAPE  C22011029   0.395   2.952   4.220
  107SAPE  H20R11030   0.478   2.998   4.253
  107SAPE  H20S11031   0.339   2.895   4.289
  107SAPE  H20T11032   0.341   3.043   4.204
  107SAPE   C3311033   1.129   2.828   2.696
  107SAPE   H3X11034   1.179   2.896   2.643
  107SAPE   H3Y11035   1.233   2.783   2.719
  107SAPE   C3411036   1.044   2.890   2.831
  107SAPE   H4X11037   1.083   2.836   2.923
  107SAPE   H4Y11038   0.971   2.820   2.793
  107SAPE   C3511039   1.005   3.057   2.873
  107SAPE   H5X11040   1.006   3.130   2.791
  107SAPE   H5Y11041   1.072   3.129   2.929
  107SAPE   C3611042   0.876   3.105   2.940
  107SAPE   H6X11043   0.799   3.057   2.879
  107SAPE   H6Y11044   0.860   3.216   2.931
  107SAPE   C3711045   0.867   3.056   3.083
  107SAPE   H7X11046   0.933   2.966   3.088
  107SAPE   H7Y11047   0.765   3.019   3.095
  107SAPE   C3811048   0.886   3.162   3.195
  107SAPE   H8X11049   0.832   3.142   3.288
  107SAPE   H8Y11050   0.870   3.264   3.151
  107SAPE   C3911051   1.023   3.168   3.250
  107SAPE   H9X11052   1.076   3.257   3.228
  107SAPE   H9Y11053   1.048   3.091   3.178
  107SAPE  C31011054   1.093   3.089   3.355
  107SAPE  H10X11055   1.012   3.092   3.423
  107SAPE  H10Y11056   1.174   3.148   3.399
  107SAPE  C31111057   1.141   2.949   3.314
  107SAPE  H11X11058   1.238   2.945   3.260
  107SAPE  H11Y11059   1.061   2.905   3.249
  107SAPE  C31211060   1.157   2.858   3.430
  107SAPE  H12X11061   1.253   2.854   3.480
  107SAPE  H12Y11062   1.168   2.761   3.392
  107SAPE  C31311063   1.041   2.859   3.523
  107SAPE  H13X11064   1.049   2.758   3.571
  107SAPE  H13Y11065   0.949   2.866   3.462
  107SAPE  C31411066   1.043   2.973   3.625
  107SAPE  H14X11067   1.003   3.070   3.598
  107SAPE  H14Y11068   1.142   3.009   3.647
  107SAPE  C31511069   0.973   2.933   3.748
  107SAPE  H15X11070   1.020   2.840   3.782
  107SAPE  H15Y11071   0.873   2.909   3.707
  107SAPE  C31611072   0.970   3.043   3.855
  107SAPE  H16X11073   0.873   3.096   3.857
  107SAPE  H16Y11074   1.057   3.109   3.834
  107SAPE  C31711075   0.995   3.000   3.997
  107SAPE  H17X11076   1.044   3.075   4.053
  107SAPE  H17Y11077   1.056   2.909   3.990
  107SAPE  C31811078   0.878   2.983   4.089
  107SAPE  H18X11079   0.822   2.890   4.096
  107SAPE  H18Y11080   0.799   3.057   4.082
  107SAPE  H18Z11081   0.920   2.959   4.183
  108SAPE     N11082   0.545   3.655   1.933
  108SAPE   HN111083   0.578   3.557   1.923
  108SAPE   HN211084   0.448   3.662   1.894
  108SAPE   HN311085   0.608   3.719   1.881
  108SAPE   C1211086   0.552   3.687   2.079
  108SAPE  H12A11087   0.655   3.719   2.105
  108SAPE  H12B11088   0.522   3.596   2.136
  108SAPE   C1111089   0.457   3.799   2.113
  108SAPE  H11A11090   0.359   3.749   2.133
  108SAPE  H11B11091   0.443   3.865   2.029
  108SAPE     P11092   0.531   3.804   2.356
  108SAPE   O1311093   0.406   3.738   2.349
  108SAPE   O1411094   0.637   3.705   2.368
  108SAPE   O1211095   0.512   3.879   2.219
  108SAPE   O1111096   0.535   3.919   2.462
  108SAPE    C111097   0.427   4.007   2.475
  108SAPE    HA11098   0.400   4.076   2.393
  108SAPE    HB11099   0.342   3.942   2.497
  108SAPE    C211100   0.440   4.087   2.596
  108SAPE    HS11101   0.491   4.184   2.589
  108SAPE   O2111102   0.507   4.004   2.701
  108SAPE   C2111103   0.501   4.023   2.836
  108SAPE   O2211104   0.457   4.124   2.883
  108SAPE   C2211105   0.544   3.901   2.931
  108SAPE   H2R11106   0.644   3.873   2.898
  108SAPE   H2S11107   0.540   3.943   3.034
  108SAPE    C311108   0.277   4.114   2.592
  108SAPE    HX11109   0.266   4.209   2.543
  108SAPE    HY11110   0.303   4.128   2.699
  108SAPE   O3111111   0.157   4.017   2.553
  108SAPE   C3111112   0.066   4.014   2.662
  108SAPE   O3211113   0.096   4.076   2.746
  108SAPE   C3211114  -0.058   3.974   2.741
  108SAPE   H2X11115  -0.038   3.873   2.770
  108SAPE   H2Y11116  -0.122   4.013   2.667
  108SAPE   C2311117   0.462   3.768   2.953
  108SAPE   H3R11118   0.505   3.673   2.981
  108SAPE   H3S11119   0.438   3.720   2.854
  108SAPE   C2411120   0.351   3.794   3.051
  108SAPE   H4R11121   0.335   3.903   3.060
  108SAPE   H4S11122   0.335   3.814   3.152
  108SAPE   C2511123   0.247   3.702   3.004
  108SAPE   H5R11124   0.190   3.729   2.919
  108SAPE   C2611125   0.188   3.615   3.073
  108SAPE   H6R11126   0.106   3.551   3.045
  108SAPE   C2711127   0.203   3.586   3.198
  108SAPE   H7R11128   0.105   3.542   3.220
  108SAPE   H7S11129   0.229   3.686   3.229
  108SAPE   C2811130   0.281   3.475   3.224
  108SAPE   H8R11131   0.217   3.389   3.221
  108SAPE   C2911132   0.401   3.475   3.264
  108SAPE   H9R11133   0.443   3.376   3.271
  108SAPE  C21011134   0.478   3.601   3.289
  108SAPE  H10R11135   0.412   3.689   3.315
  108SAPE  H10S11136   0.527   3.630   3.195
  108SAPE  C21111137   0.581   3.566   3.396
  108SAPE  H11R11138   0.684   3.567   3.369
  108SAPE  C21211139   0.561   3.535   3.524
  108SAPE  H12R11140   0.631   3.498   3.598
  108SAPE  C21311141   0.446   3.542   3.580
  108SAPE  H13R11142   0.401   3.433   3.600
  108SAPE  H13S11143   0.374   3.543   3.495
  108SAPE  C21411144   0.448   3.605   3.734
  108SAPE  H14R11145   0.444   3.540   3.800
  108SAPE  C21511146   0.392   3.741   3.773
  108SAPE  H15R11147   0.364   3.699   3.883
  108SAPE  C21611148   0.250   3.825   3.732
  108SAPE  H16R11149   0.263   3.844   3.625
  108SAPE  H16S11150   0.282   3.935   3.750
  108SAPE  C21711151   0.092   3.826   3.764
  108SAPE  H17R11152   0.002   3.772   3.748
  108SAPE  H17S11153   0.035   3.863   3.682
  108SAPE  C21811154   0.050   3.907   3.868
  108SAPE  H18R11155   0.128   3.982   3.866
  108SAPE  H18S11156   0.076   3.868   3.942
  108SAPE  C21911157  -0.075   3.899   3.946
  108SAPE  H19R11158  -0.139   3.811   3.945
  108SAPE  H19S11159  -0.112   3.986   3.897
  108SAPE  C22011160  -0.075   3.938   4.087
  108SAPE  H20R11161  -0.059   3.870   4.171
  108SAPE  H20S11162  -0.135   4.023   4.095
  108SAPE  H20T11163  -0.026   4.027   4.126
  108SAPE   C3311164  -0.123   4.035   2.876
  108SAPE   H3X11165  -0.218   4.001   2.841
  108SAPE   H3Y11166  -0.154   4.140   2.893
  108SAPE   C3411167  -0.117   3.975   3.019
  108SAPE   H4X11168  -0.104   3.877   2.986
  108SAPE   H4Y11169  -0.213   4.002   3.072
  108SAPE   C3511170   0.002   3.952   3.113
  108SAPE   H5X11171  -0.057   4.041   3.124
  108SAPE   H5Y11172   0.028   3.846   3.089
  108SAPE   C3611173  -0.001   3.929   3.246
  108SAPE   H6X11174   0.095   3.872   3.255
  108SAPE   H6Y11175  -0.097   3.914   3.301
  108SAPE   C3711176   0.076   3.991   3.337
  108SAPE   H7X11177   0.037   3.952   3.431
  108SAPE   H7Y11178  -0.007   4.060   3.310
  108SAPE   C3811179   0.224   4.050   3.342
  108SAPE   H8X11180   0.254   4.154   3.376
  108SAPE   H8Y11181   0.208   4.036   3.246
  108SAPE   C3911182   0.333   3.973   3.385
  108SAPE   H9X11183   0.327   3.897   3.308
  108SAPE   H9Y11184   0.294   3.944   3.482
  108SAPE  C31011185   0.460   4.052   3.392
  108SAPE  H10X11186   0.454   4.142   3.460
  108SAPE  H10Y11187   0.498   4.087   3.294
  108SAPE  C31111188   0.551   3.957   3.456
  108SAPE  H11X11189   0.581   3.874   3.387
  108SAPE  H11Y11190   0.498   3.908   3.542
  108SAPE  C31211191   0.667   4.034   3.504
  108SAPE  H12X11192   0.651   4.126   3.563
  108SAPE  H12Y11193   0.734   4.060   3.418
  108SAPE  C31311194   0.732   3.931   3.584
  108SAPE  H13X11195   0.823   3.983   3.616
  108SAPE  H13Y11196   0.751   3.848   3.512
  108SAPE  C31411197   0.678   3.870   3.711
  108SAPE  H14X11198   0.752   3.804   3.759
  108SAPE  H14Y11199   0.602   3.798   3.687
  108SAPE  C31511200   0.630   3.981   3.800
  108SAPE  H15X11201   0.565   4.052   3.743
  108SAPE  H15Y11202   0.718   4.039   3.836
  108SAPE  C31611203   0.556   3.930   3.918
  108SAPE  H16X11204   0.606   3.842   3.964
  108SAPE  H16Y11205   0.452   3.908   3.890
  108SAPE  C31711206   0.544   4.033   4.024
  108SAPE  H17X11207   0.488   4.113   3.985
  108SAPE  H17Y11208   0.636   4.086   4.045
  108SAPE  C31811209   0.489   3.977   4.150
  108SAPE  H18X11210   0.400   3.927   4.127
  108SAPE  H18Y11211   0.472   4.051   4.227
  108SAPE  H18Z11212   0.543   3.895   4.194
  109SAPE     N11213   5.590   1.028   2.201
  109SAPE   HN111214   5.592   1.100   2.277
  109SAPE   HN211215   5.489   1.009   2.179
  109SAPE   HN311216   5.632   0.942   2.239
  109SAPE   C1211217   5.671   1.090   2.090
  109SAPE  H12A11218   5.635   1.055   1.992
  109SAPE  H12B11219   5.776   1.056   2.102
  109SAPE   C1111220   5.664   1.243   2.098
  109SAPE  H11A11221   5.577   1.273   2.038
  109SAPE  H11B11222   5.755   1.287   2.049
  109SAPE     P11223   5.773   1.303   2.313
  109SAPE   O1311224   5.819   1.162   2.304
  109SAPE   O1411225   5.854   1.409   2.254
  109SAPE   O1211226   5.641   1.293   2.230
  109SAPE   O1111227   5.716   1.346   2.454
  109SAPE    C111228   5.595   1.422   2.454
  109SAPE    HA11229   5.605   1.519   2.399
  109SAPE    HB11230   5.513   1.362   2.409
  109SAPE    C211231   5.553   1.454   2.598
  109SAPE    HS11232   5.460   1.511   2.593
  109SAPE   O2111233   5.647   1.535   2.665
  109SAPE   C2111234   5.647   1.661   2.653
  109SAPE   O2211235   5.574   1.729   2.582
  109SAPE   C2211236   5.742   1.717   2.751
  109SAPE   H2R11237   5.695   1.809   2.792
  109SAPE   H2S11238   5.764   1.663   2.843
  109SAPE    C311239   5.536   1.324   2.680
  109SAPE    HX11240   5.622   1.255   2.660
  109SAPE    HY11241   5.444   1.273   2.645
  109SAPE   O3111242   5.536   1.350   2.821
  109SAPE   C3111243   5.421   1.346   2.884
  109SAPE   O3211244   5.310   1.333   2.836
  109SAPE   C3211245   5.451   1.359   3.030
  109SAPE   H2X11246   5.534   1.432   3.042
  109SAPE   H2Y11247   5.484   1.264   3.077
  109SAPE   C2311248   5.863   1.761   2.672
  109SAPE   H3R11249   5.881   1.824   2.764
  109SAPE   H3S11250   5.846   1.809   2.575
  109SAPE   C2411251   5.996   1.690   2.631
  109SAPE   H4R11252   6.037   1.752   2.724
  109SAPE   H4S11253   6.091   1.745   2.626
  109SAPE   C2511254   6.046   1.535   2.592
  109SAPE   H5R11255   6.006   1.524   2.485
  109SAPE   C2611256   6.074   1.403   2.675
  109SAPE   H6R11257   5.982   1.380   2.608
  109SAPE   C2711258   6.057   1.337   2.879
  109SAPE   H7R11259   6.011   1.406   2.952
  109SAPE   H7S11260   6.128   1.279   2.935
  109SAPE   C2811261   5.907   1.321   2.987
  109SAPE   H8R11262   5.801   1.335   2.946
  109SAPE   C2911263   5.852   1.314   3.110
  109SAPE   H9R11264   5.755   1.364   3.137
  109SAPE  C21011265   5.939   1.319   3.218
  109SAPE  H10R11266   5.954   1.413   3.275
  109SAPE  H10S11267   6.028   1.300   3.167
  109SAPE  C21111268   5.923   1.192   3.280
  109SAPE  H11R11269   5.962   1.105   3.221
  109SAPE  C21211270   5.881   1.189   3.401
  109SAPE  H12R11271   5.894   1.093   3.449
  109SAPE  C21311272   5.845   1.313   3.480
  109SAPE  H13R11273   5.906   1.406   3.463
  109SAPE  H13S11274   5.868   1.288   3.585
  109SAPE  C21411275   5.699   1.350   3.461
  109SAPE  H14R11276   5.678   1.434   3.391
  109SAPE  C21511277   5.595   1.280   3.506
  109SAPE  H15R11278   5.494   1.314   3.481
  109SAPE  C21611279   5.599   1.152   3.585
  109SAPE  H16R11280   5.693   1.096   3.567
  109SAPE  H16S11281   5.519   1.087   3.544
  109SAPE  C21711282   5.576   1.168   3.736
  109SAPE  H17R11283   5.552   1.068   3.779
  109SAPE  H17S11284   5.486   1.231   3.754
  109SAPE  C21811285   5.690   1.235   3.815
  109SAPE  H18R11286   5.679   1.344   3.794
  109SAPE  H18S11287   5.791   1.206   3.780
  109SAPE  C21911288   5.680   1.211   3.966
  109SAPE  H19R11289   5.698   1.103   3.990
  109SAPE  H19S11290   5.574   1.230   3.993
  109SAPE  C22011291   5.775   1.298   4.050
  109SAPE  H20R11292   5.745   1.297   4.156
  109SAPE  H20S11293   5.770   1.405   4.017
  109SAPE  H20T11294   5.879   1.265   4.056
  109SAPE   C3311295   5.325   1.402   3.100
  109SAPE   H3X11296   5.245   1.325   3.106
  109SAPE   H3Y11297   5.277   1.484   3.043
  109SAPE   C3411298   5.364   1.441   3.240
  109SAPE   H4X11299   5.409   1.361   3.301
  109SAPE   H4Y11300   5.267   1.452   3.285
  109SAPE   C3511301   5.457   1.563   3.240
  109SAPE   H5X11302   5.424   1.650   3.178
  109SAPE   H5Y11303   5.556   1.539   3.206
  109SAPE   C3611304   5.472   1.609   3.380
  109SAPE   H6X11305   5.483   1.530   3.456
  109SAPE   H6Y11306   5.379   1.662   3.361
  109SAPE   C3711307   5.511   1.742   3.432
  109SAPE   H7X11308   5.485   1.837   3.382
  109SAPE   H7Y11309   5.598   1.696   3.386
  109SAPE   C3811310   5.543   1.742   3.578
  109SAPE   H8X11311   5.626   1.796   3.591
  109SAPE   H8Y11312   5.601   1.651   3.602
  109SAPE   C3911313   5.494   1.845   3.680
  109SAPE   H9X11314   5.393   1.881   3.678
  109SAPE   H9Y11315   5.525   1.950   3.670
  109SAPE  C31011316   5.520   1.766   3.806
  109SAPE  H10X11317   5.479   1.834   3.881
  109SAPE  H10Y11318   5.616   1.764   3.858
  109SAPE  C31111319   5.469   1.622   3.787
  109SAPE  H11X11320   5.535   1.546   3.738
  109SAPE  H11Y11321   5.371   1.597   3.742
  109SAPE  C31211322   5.451   1.587   3.923
  109SAPE  H12X11323   5.530   1.626   3.986
  109SAPE  H12Y11324   5.498   1.479   3.915
  109SAPE  C31311325   5.290   1.616   3.981
  109SAPE  H13X11326   5.255   1.558   3.889
  109SAPE  H13Y11327   5.218   1.672   3.943
  109SAPE  C31411328   5.218   1.553   4.158
  109SAPE  H14X11329   5.135   1.553   4.205
  109SAPE  H14Y11330   5.275   1.637   4.206
  109SAPE  C31511331   5.274   1.342   4.249
  109SAPE  H15X11332   5.343   1.337   4.333
  109SAPE  H15Y11333   5.392   1.300   4.212
  109SAPE  C31611334   5.260   1.203   4.171
  109SAPE  H16X11335   5.317   1.184   4.071
  109SAPE  H16Y11336   5.161   1.244   4.157
  109SAPE  C31711337   5.317   1.098   4.245
  109SAPE  H17X11338   5.237   1.030   4.214
  109SAPE  H17Y11339   5.319   1.130   4.350
  109SAPE  C31811340   5.458   1.073   4.193
  109SAPE  H18X11341   5.532   1.153   4.221
  109SAPE  H18Y11342   5.471   1.062   4.085
  109SAPE  H18Z11343   5.482   0.980   4.244
  110SAPE     N11344   3.541   7.036   2.420
  110SAPE   HN111345   3.557   7.128   2.375
  110SAPE   HN211346   3.503   7.058   2.515
  110SAPE   HN311347   3.633   6.990   2.432
  110SAPE   C1211348   3.450   6.949   2.337
  110SAPE  H12A11349   3.456   6.845   2.375
  110SAPE  H12B11350   3.488   6.952   2.233
  110SAPE   C1111351   3.310   7.009   2.337
  110SAPE  H11A11352   3.322   7.107   2.285
  110SAPE  H11B11353   3.274   7.030   2.441
  110SAPE     P11354   3.117   6.988   2.165
  110SAPE   O1311355   3.190   7.076   2.071
  110SAPE   O1411356   3.026   6.886   2.108
  110SAPE   O1211357   3.220   6.923   2.267
  110SAPE   O1111358   3.040   7.072   2.276
  110SAPE    C111359   3.023   7.002   2.414
  110SAPE    HA11360   2.912   6.983   2.377
  110SAPE    HB11361   3.058   6.912   2.426
  110SAPE    C211362   3.003   7.124   2.542
  110SAPE    HS11363   2.959   7.159   2.455
  110SAPE   O2111364   3.104   7.206   2.674
  110SAPE   C2111365   3.221   7.322   2.712
  110SAPE   O2211366   3.249   7.442   2.729
  110SAPE   C2211367   3.295   7.244   2.665
  110SAPE   H2R11368   3.270   7.176   2.576
  110SAPE   H2S11369   3.342   7.338   2.620
  110SAPE    C311370   2.964   7.073   2.632
  110SAPE    HX11371   2.900   7.182   2.639
  110SAPE    HY11372   2.864   7.138   2.584
  110SAPE   O3111373   2.964   6.942   2.663
  110SAPE   C3111374   3.055   6.907   2.735
  110SAPE   O3211375   3.142   6.965   2.790
  110SAPE   C3211376   3.028   6.768   2.755
  110SAPE   H2X11377   3.034   6.706   2.664
  110SAPE   H2Y11378   2.930   6.788   2.781
  110SAPE   C2311379   3.279   7.220   2.818
  110SAPE   H3R11380   3.260   7.118   2.800
  110SAPE   H3S11381   3.212   7.254   2.911
  110SAPE   C2411382   3.409   7.269   2.845
  110SAPE   H4R11383   3.400   7.375   2.879
  110SAPE   H4S11384   3.455   7.290   2.749
  110SAPE   C2511385   3.446   7.159   2.926
  110SAPE   H5R11386   3.535   7.101   2.904
  110SAPE   C2611387   3.408   7.181   3.049
  110SAPE   H6R11388   3.490   7.130   3.102
  110SAPE   C2711389   3.333   7.315   3.103
  110SAPE   H7R11390   3.313   7.406   3.042
  110SAPE   H7S11391   3.383   7.398   3.159
  110SAPE   C2811392   3.231   7.260   3.187
  110SAPE   H8R11393   3.194   7.166   3.151
  110SAPE   C2911394   3.214   7.301   3.310
  110SAPE   H9R11395   3.132   7.266   3.370
  110SAPE  C21011396   3.292   7.391   3.375
  110SAPE  H10R11397   3.218   7.455   3.381
  110SAPE  H10S11398   3.352   7.482   3.323
  110SAPE  C21111399   3.369   7.358   3.503
  110SAPE  H11R11400   3.418   7.437   3.505
  110SAPE  C21211401   3.332   7.292   3.622
  110SAPE  H12R11402   3.421   7.317   3.696
  110SAPE  C21311403   3.197   7.312   3.697
  110SAPE  H13R11404   3.110   7.356   3.648
  110SAPE  H13S11405   3.196   7.360   3.792
  110SAPE  C21411406   3.138   7.182   3.696
  110SAPE  H14R11407   3.127   7.143   3.595
  110SAPE  C21511408   3.086   7.146   3.809
  110SAPE  H15R11409   3.037   7.050   3.803
  110SAPE  C21611410   3.077   7.221   3.941
  110SAPE  H16R11411   3.091   7.331   3.936
  110SAPE  H16S11412   3.137   7.167   4.011
  110SAPE  C21711413   2.956   7.212   4.025
  110SAPE  H17R11414   2.944   7.107   4.023
  110SAPE  H17S11415   2.914   7.280   3.956
  110SAPE  C21811416   2.925   7.263   4.162
  110SAPE  H18R11417   2.936   7.369   4.182
  110SAPE  H18S11418   3.006   7.212   4.215
  110SAPE  C21911419   2.780   7.235   4.209
  110SAPE  H19R11420   2.746   7.136   4.177
  110SAPE  H19S11421   2.699   7.303   4.185
  110SAPE  C22011422   2.783   7.223   4.353
  110SAPE  H20R11423   2.704   7.159   4.399
  110SAPE  H20S11424   2.804   7.314   4.411
  110SAPE  H20T11425   2.875   7.166   4.344
  110SAPE   C3311426   3.064   6.718   2.892
  110SAPE   H3X11427   3.016   6.619   2.910
  110SAPE   H3Y11428   3.028   6.788   2.973
  110SAPE   C3411429   3.209   6.704   2.880
  110SAPE   H4X11430   3.254   6.797   2.841
  110SAPE   H4Y11431   3.226   6.628   2.801
  110SAPE   C3511432   3.273   6.671   3.011
  110SAPE   H5X11433   3.375   6.644   2.977
  110SAPE   H5Y11434   3.222   6.582   3.053
  110SAPE   C3611435   3.272   6.786   3.113
  110SAPE   H6X11436   3.181   6.784   3.176
  110SAPE   H6Y11437   3.271   6.883   3.056
  110SAPE   C3711438   3.394   6.785   3.206
  110SAPE   H7X11439   3.483   6.806   3.142
  110SAPE   H7Y11440   3.406   6.685   3.254
  110SAPE   C3811441   3.387   6.894   3.314
  110SAPE   H8X11442   3.313   6.869   3.394
  110SAPE   H8Y11443   3.354   6.987   3.264
  110SAPE   C3911444   3.523   6.918   3.382
  110SAPE   H9X11445   3.564   7.017   3.351
  110SAPE   H9Y11446   3.595   6.842   3.346
  110SAPE  C31011447   3.514   6.910   3.535
  110SAPE  H10X11448   3.616   6.917   3.578
  110SAPE  H10Y11449   3.470   6.812   3.564
  110SAPE  C31111450   3.433   7.022   3.599
  110SAPE  H11X11451   3.326   7.018   3.570
  110SAPE  H11Y11452   3.477   7.118   3.565
  110SAPE  C31211453   3.440   7.021   3.749
  110SAPE  H12X11454   3.418   7.122   3.791
  110SAPE  H12Y11455   3.542   6.994   3.786
  110SAPE  C31311456   3.333   6.930   3.805
  110SAPE  H13X11457   3.353   6.825   3.770
  110SAPE  H13Y11458   3.228   6.953   3.786
  110SAPE  C31411459   3.348   6.939   3.951
  110SAPE  H14X11460   3.315   7.012   4.023
  110SAPE  H14Y11461   3.454   6.952   3.953
  110SAPE  C31511462   3.306   6.813   4.005
  110SAPE  H15X11463   3.342   6.828   4.110
  110SAPE  H15Y11464   3.373   6.743   3.954
  110SAPE  C31611465   3.162   6.778   3.993
  110SAPE  H16X11466   3.122   6.693   4.047
  110SAPE  H16Y11467   3.135   6.750   3.889
  110SAPE  C31711468   3.076   6.887   4.036
  110SAPE  H17X11469   2.981   6.828   4.017
  110SAPE  H17Y11470   3.102   6.974   3.980
  110SAPE  C31811471   3.076   6.943   4.171
  110SAPE  H18X11472   3.020   7.028   4.211
  110SAPE  H18Y11473   3.158   6.911   4.236
  110SAPE  H18Z11474   2.984   6.886   4.188
  111SAPE     N11475   1.979   0.613   2.165
  111SAPE   HN111476   2.032   0.690   2.119
  111SAPE   HN211477   1.901   0.581   2.105
  111SAPE   HN311478   1.944   0.649   2.255
  111SAPE   C1211479   2.071   0.497   2.194
  111SAPE  H12A11480   2.138   0.481   2.106
  111SAPE  H12B11481   2.009   0.407   2.211
  111SAPE   C1111482   2.158   0.524   2.316
  111SAPE  H11A11483   2.232   0.440   2.321
  111SAPE  H11B11484   2.102   0.518   2.408
  111SAPE     P11485   2.357   0.669   2.250
  111SAPE   O1311486   2.368   0.571   2.140
  111SAPE   O1411487   2.394   0.809   2.229
  111SAPE   O1211488   2.211   0.657   2.308
  111SAPE   O1111489   2.430   0.617   2.375
  111SAPE    C111490   2.550   0.555   2.347
  111SAPE    HA11491   2.544   0.448   2.314
  111SAPE    HB11492   2.622   0.605   2.275
  111SAPE    C211493   2.613   0.554   2.478
  111SAPE    HS11494   2.668   0.479   2.456
  111SAPE   O2111495   2.548   0.527   2.606
  111SAPE   C2111496   2.535   0.391   2.620
  111SAPE   O2211497   2.547   0.311   2.530
  111SAPE   C2211498   2.501   0.348   2.760
  111SAPE   H2R11499   2.552   0.252   2.784
  111SAPE   H2S11500   2.531   0.426   2.833
  111SAPE    C311501   2.689   0.694   2.480
  111SAPE    HX11502   2.785   0.724   2.431
  111SAPE    HY11503   2.720   0.637   2.557
  111SAPE   O3111504   2.627   0.805   2.516
  111SAPE   C3111505   2.626   0.852   2.632
  111SAPE   O3211506   2.710   0.854   2.721
  111SAPE   C3211507   2.485   0.897   2.631
  111SAPE   H2X11508   2.447   0.905   2.525
  111SAPE   H2Y11509   2.489   0.996   2.677
  111SAPE   C2311510   2.350   0.323   2.762
  111SAPE   H3R11511   2.332   0.253   2.847
  111SAPE   H3S11512   2.319   0.267   2.671
  111SAPE   C2411513   2.270   0.454   2.773
  111SAPE   H4R11514   2.272   0.512   2.678
  111SAPE   H4S11515   2.310   0.522   2.851
  111SAPE   C2511516   2.139   0.394   2.813
  111SAPE   H5R11517   2.084   0.351   2.728
  111SAPE   C2611518   2.069   0.422   2.923
  111SAPE   H6R11519   1.965   0.385   2.927
  111SAPE   C2711520   2.102   0.523   3.029
  111SAPE   H7R11521   2.019   0.583   3.062
  111SAPE   H7S11522   2.170   0.607   2.999
  111SAPE   C2811523   2.111   0.472   3.162
  111SAPE   H8R11524   2.018   0.460   3.220
  111SAPE   C2911525   2.230   0.460   3.212
  111SAPE   H9R11526   2.240   0.430   3.316
  111SAPE  C21011527   2.356   0.495   3.143
  111SAPE  H10R11528   2.392   0.577   3.208
  111SAPE  H10S11529   2.355   0.535   3.042
  111SAPE  C21111530   2.444   0.380   3.145
  111SAPE  H11R11531   2.443   0.295   3.071
  111SAPE  C21211532   2.535   0.391   3.238
  111SAPE  H12R11533   2.593   0.295   3.223
  111SAPE  C21311534   2.572   0.512   3.352
  111SAPE  H13R11535   2.487   0.556   3.395
  111SAPE  H13S11536   2.578   0.584   3.267
  111SAPE  C21411537   2.706   0.560   3.455
  111SAPE  H14R11538   2.828   0.491   3.439
  111SAPE  C21511539   2.698   0.579   3.572
  111SAPE  H15R11540   2.788   0.530   3.573
  111SAPE  C21611541   2.565   0.553   3.642
  111SAPE  H16R11542   2.498   0.616   3.583
  111SAPE  H16S11543   2.595   0.593   3.737
  111SAPE  C21711544   2.456   0.429   3.681
  111SAPE  H17R11545   2.438   0.362   3.596
  111SAPE  H17S11546   2.356   0.472   3.698
  111SAPE  C21811547   2.471   0.320   3.798
  111SAPE  H18R11548   2.539   0.235   3.776
  111SAPE  H18S11549   2.384   0.253   3.816
  111SAPE  C21911550   2.525   0.392   3.920
  111SAPE  H19R11551   2.471   0.478   3.954
  111SAPE  H19S11552   2.605   0.440   3.869
  111SAPE  C22011553   2.579   0.317   4.038
  111SAPE  H20R11554   2.500   0.261   4.086
  111SAPE  H20S11555   2.646   0.361   4.113
  111SAPE  H20T11556   2.649   0.245   3.993
  111SAPE   C3311557   2.409   0.791   2.710
  111SAPE   H3X11558   2.468   0.769   2.802
  111SAPE   H3Y11559   2.407   0.696   2.651
  111SAPE   C3411560   2.268   0.834   2.751
  111SAPE   H4X11561   2.227   0.758   2.821
  111SAPE   H4Y11562   2.204   0.834   2.660
  111SAPE   C3511563   2.254   0.972   2.819
  111SAPE   H5X11564   2.146   0.990   2.840
  111SAPE   H5Y11565   2.284   1.051   2.746
  111SAPE   C3611566   2.331   0.992   2.950
  111SAPE   H6X11567   2.366   1.098   2.954
  111SAPE   H6Y11568   2.422   0.928   2.957
  111SAPE   C3711569   2.243   0.961   3.072
  111SAPE   H7X11570   2.220   0.853   3.068
  111SAPE   H7Y11571   2.144   1.013   3.062
  111SAPE   C3811572   2.310   0.997   3.206
  111SAPE   H8X11573   2.321   1.108   3.209
  111SAPE   H8Y11574   2.413   0.955   3.207
  111SAPE   C3911575   2.231   0.948   3.329
  111SAPE   H9X11576   2.126   0.982   3.316
  111SAPE   H9Y11577   2.272   0.993   3.422
  111SAPE  C31011578   2.231   0.795   3.345
  111SAPE  H10X11579   2.331   0.759   3.376
  111SAPE  H10Y11580   2.207   0.753   3.244
  111SAPE  C31111581   2.126   0.734   3.441
  111SAPE  H11X11582   2.134   0.623   3.436
  111SAPE  H11Y11583   2.026   0.762   3.402
  111SAPE  C31211584   2.142   0.776   3.588
  111SAPE  H12X11585   2.120   0.885   3.599
  111SAPE  H12Y11586   2.248   0.761   3.618
  111SAPE  C31311587   2.050   0.700   3.684
  111SAPE  H13X11588   2.073   0.592   3.686
  111SAPE  H13Y11589   1.943   0.714   3.654
  111SAPE  C31411590   2.061   0.751   3.828
  111SAPE  H14X11591   1.977   0.708   3.887
  111SAPE  H14Y11592   2.051   0.862   3.825
  111SAPE  C31511593   2.192   0.707   3.894
  111SAPE  H15X11594   2.276   0.752   3.837
  111SAPE  H15Y11595   2.201   0.596   3.886
  111SAPE  C31611596   2.207   0.752   4.040
  111SAPE  H16X11597   2.182   0.859   4.054
  111SAPE  H16Y11598   2.315   0.742   4.066
  111SAPE  C31711599   2.130   0.669   4.142
  111SAPE  H17X11600   2.158   0.562   4.133
  111SAPE  H17Y11601   2.020   0.677   4.123
  111SAPE  C31811602   2.161   0.711   4.286
  111SAPE  H18X11603   2.100   0.645   4.350
  111SAPE  H18Y11604   2.135   0.819   4.302
  111SAPE  H18Z11605   2.263   0.695   4.321
  112SAPE     N11606   6.527   5.422   2.005
  112SAPE   HN111607   6.515   5.399   1.905
  112SAPE   HN211608   6.475   5.353   2.064
  112SAPE   HN311609   6.489   5.517   2.024
  112SAPE   C1211610   6.674   5.417   2.040
  112SAPE  H12A11611   6.720   5.510   2.001
  112SAPE  H12B11612   6.719   5.328   1.992
  112SAPE   C1111613   6.696   5.409   2.192
  112SAPE  H11A11614   6.801   5.384   2.217
  112SAPE  H11B11615   6.633   5.326   2.232
  112SAPE     P11616   6.553   5.547   2.350
  112SAPE   O1311617   6.546   5.682   2.409
  112SAPE   O1411618   6.437   5.499   2.270
  112SAPE   O1211619   6.671   5.539   2.247
  112SAPE   O1111620   6.594   5.437   2.455
  112SAPE    C111621   6.490   5.381   2.534
  112SAPE    HA11622   6.389   5.387   2.486
  112SAPE    HB11623   6.510   5.273   2.551
  112SAPE    C211624   6.484   5.454   2.669
  112SAPE    HS11625   6.473   5.564   2.649
  112SAPE   O2111626   6.601   5.423   2.746
  112SAPE   C2111627   6.635   5.514   2.834
  112SAPE   O2211628   6.584   5.623   2.850
  112SAPE   C2211629   6.738   5.457   2.927
  112SAPE   H2R11630   6.797   5.380   2.874
  112SAPE   H2S11631   6.805   5.536   2.966
  112SAPE    C311632   6.359   5.411   2.744
  112SAPE    HX11633   6.375   5.312   2.793
  112SAPE    HY11634   6.276   5.396   2.669
  112SAPE   O3111635   6.334   5.517   2.838
  112SAPE   C3111636   6.218   5.501   2.889
  112SAPE   O3211637   6.146   5.407   2.859
  112SAPE   C3211638   6.193   5.613   2.990
  112SAPE   H2X11639   6.149   5.708   2.957
  112SAPE   H2Y11640   6.282   5.652   3.037
  112SAPE   C2311641   6.660   5.399   3.045
  112SAPE   H3R11642   6.574   5.337   3.010
  112SAPE   H3S11643   6.620   5.485   3.104
  112SAPE   C2411644   6.745   5.305   3.128
  112SAPE   H4R11645   6.776   5.221   3.062
  112SAPE   H4S11646   6.677   5.266   3.206
  112SAPE   C2511647   6.871   5.360   3.186
  112SAPE   H5R11648   6.959   5.357   3.123
  112SAPE   C2611649   6.877   5.420   3.304
  112SAPE   H6R11650   6.975   5.454   3.343
  112SAPE   C2711651   6.755   5.437   3.389
  112SAPE   H7R11652   6.706   5.347   3.426
  112SAPE   H7S11653   6.682   5.506   3.338
  112SAPE   C2811654   6.800   5.502   3.509
  112SAPE   H8R11655   6.787   5.601   3.488
  112SAPE   C2911656   6.843   5.470   3.629
  112SAPE   H9R11657   6.888   5.538   3.697
  112SAPE  C21011658   6.861   5.342   3.688
  112SAPE  H10R11659   6.960   5.354   3.738
  112SAPE  H10S11660   6.861   5.280   3.601
  112SAPE  C21111661   6.746   5.311   3.778
  112SAPE  H11R11662   6.650   5.289   3.732
  112SAPE  C21211663   6.755   5.301   3.909
  112SAPE  H12R11664   6.666   5.276   3.968
  112SAPE  C21311665   6.880   5.318   3.988
  112SAPE  H13R11666   6.971   5.354   3.937
  112SAPE  H13S11667   6.904   5.234   4.054
  112SAPE  C21411668   6.841   5.434   4.064
  112SAPE  H14R11669   6.830   5.526   4.005
  112SAPE  C21511670   6.817   5.436   4.190
  112SAPE  H15R11671   6.793   5.525   4.251
  112SAPE  C21611672   6.819   5.327   4.275
  112SAPE  H16R11673   6.730   5.267   4.248
  112SAPE  H16S11674   6.814   5.387   4.366
  112SAPE  C21711675   6.926   5.251   4.316
  112SAPE  H17R11676   7.020   5.257   4.264
  112SAPE  H17S11677   6.887   5.154   4.296
  112SAPE  C21811678   6.935   5.267   4.463
  112SAPE  H18R11679   7.006   5.195   4.451
  112SAPE  H18S11680   6.859   5.217   4.521
  112SAPE  C21911681   6.999   5.380   4.538
  112SAPE  H19R11682   7.014   5.406   4.640
  112SAPE  H19S11683   6.924   5.456   4.560
  112SAPE  C22011684   7.159   5.378   4.532
  112SAPE  H20R11685   7.221   5.462   4.546
  112SAPE  H20S11686   7.096   5.398   4.451
  112SAPE  H20T11687   7.221   5.309   4.477
  112SAPE   C3311688   6.118   5.555   3.103
  112SAPE   H3X11689   6.066   5.463   3.089
  112SAPE   H3Y11690   6.026   5.607   3.074
  112SAPE   C3411691   6.173   5.587   3.247
  112SAPE   H4X11692   6.110   5.548   3.336
  112SAPE   H4Y11693   6.180   5.694   3.266
  112SAPE   C3511694   6.291   5.518   3.292
  112SAPE   H5X11695   6.286   5.525   3.405
  112SAPE   H5Y11696   6.375   5.551   3.234
  112SAPE   C3611697   6.282   5.379   3.262
  112SAPE   H6X11698   6.264   5.340   3.162
  112SAPE   H6Y11699   6.180   5.389   3.286
  112SAPE   C3711700   6.383   5.304   3.342
  112SAPE   H7X11701   6.481   5.332   3.308
  112SAPE   H7Y11702   6.370   5.198   3.326
  112SAPE   C3811703   6.379   5.274   3.487
  112SAPE   H8X11704   6.455   5.195   3.510
  112SAPE   H8Y11705   6.280   5.236   3.506
  112SAPE   C3911706   6.347   5.373   3.582
  112SAPE   H9X11707   6.241   5.410   3.566
  112SAPE   H9Y11708   6.435   5.436   3.571
  112SAPE  C31011709   6.350   5.315   3.715
  112SAPE  H10X11710   6.436   5.245   3.725
  112SAPE  H10Y11711   6.256   5.261   3.710
  112SAPE  C31111712   6.330   5.433   3.807
  112SAPE  H11X11713   6.238   5.483   3.770
  112SAPE  H11Y11714   6.426   5.485   3.806
  112SAPE  C31211715   6.315   5.400   3.948
  112SAPE  H12X11716   6.415   5.364   3.978
  112SAPE  H12Y11717   6.238   5.326   3.932
  112SAPE  C31311718   6.269   5.468   4.074
  112SAPE  H13X11719   6.219   5.410   4.155
  112SAPE  H13Y11720   6.205   5.549   4.066
  112SAPE  C31411721   6.384   5.521   4.130
  112SAPE  H14X11722   6.433   5.557   4.037
  112SAPE  H14Y11723   6.446   5.445   4.176
  112SAPE  C31511724   6.325   5.619   4.226
  112SAPE  H15X11725   6.262   5.693   4.185
  112SAPE  H15Y11726   6.415   5.674   4.258
  112SAPE  C31611727   6.233   5.569   4.328
  112SAPE  H16X11728   6.279   5.481   4.374
  112SAPE  H16Y11729   6.136   5.536   4.290
  112SAPE  C31711730   6.202   5.690   4.411
  112SAPE  H17X11731   6.174   5.629   4.500
  112SAPE  H17Y11732   6.118   5.747   4.382
  112SAPE  C31811733   6.315   5.789   4.442
  112SAPE  H18X11734   6.392   5.848   4.396
  112SAPE  H18Y11735   6.394   5.718   4.433
  112SAPE  H18Z11736   6.312   5.811   4.546
  113SAPE     N11737   0.413   4.336   2.338
  113SAPE   HN111738   0.488   4.266   2.320
  113SAPE   HN211739   0.342   4.298   2.404
  113SAPE   HN311740   0.361   4.360   2.250
  113SAPE   C1211741   0.467   4.460   2.401
  113SAPE  H12A11742   0.561   4.489   2.350
  113SAPE  H12B11743   0.490   4.436   2.507
  113SAPE   C1111744   0.359   4.569   2.402
  113SAPE  H11A11745   0.365   4.621   2.500
  113SAPE  H11B11746   0.258   4.525   2.398
  113SAPE     P11747   0.294   4.662   2.163
  113SAPE   O1311748   0.278   4.799   2.113
  113SAPE   O1411749   0.350   4.558   2.075
  113SAPE   O1211750   0.378   4.664   2.299
  113SAPE   O1111751   0.153   4.607   2.205
  113SAPE    C111752   0.041   4.694   2.203
  113SAPE    HA11753   0.048   4.771   2.125
  113SAPE    HB11754  -0.049   4.638   2.170
  113SAPE    C211755   0.022   4.760   2.341
  113SAPE    HS11756  -0.047   4.848   2.333
  113SAPE   O2111757   0.143   4.784   2.413
  113SAPE   C2111758   0.180   4.909   2.427
  113SAPE   O2211759   0.116   5.007   2.397
  113SAPE   C2211760   0.293   4.925   2.517
  113SAPE   H2R11761   0.240   4.960   2.609
  113SAPE   H2S11762   0.347   4.831   2.533
  113SAPE    C311763  -0.054   4.662   2.417
  113SAPE    HX11764  -0.127   4.615   2.349
  113SAPE    HY11765  -0.105   4.712   2.498
  113SAPE   O3111766   0.021   4.567   2.476
  113SAPE   C3111767   0.006   4.448   2.431
  113SAPE   O3211768  -0.078   4.396   2.361
  113SAPE   C3211769   0.080   4.384   2.518
  113SAPE   H2X11770   0.163   4.446   2.554
  113SAPE   H2Y11771   0.120   4.297   2.459
  113SAPE   C2311772   0.378   5.041   2.463
  113SAPE   H3R11773   0.326   5.140   2.474
  113SAPE   H3S11774   0.399   5.031   2.354
  113SAPE   C2411775   0.509   5.042   2.540
  113SAPE   H4R11776   0.564   5.128   2.497
  113SAPE   H4S11777   0.565   4.949   2.518
  113SAPE   C2511778   0.479   5.064   2.686
  113SAPE   H5R11779   0.446   5.167   2.704
  113SAPE   C2611780   0.489   4.988   2.797
  113SAPE   H6R11781   0.469   5.032   2.896
  113SAPE   C2711782   0.537   4.848   2.805
  113SAPE   H7R11783   0.614   4.839   2.885
  113SAPE   H7S11784   0.582   4.820   2.709
  113SAPE   C2811785   0.426   4.754   2.836
  113SAPE   H8R11786   0.380   4.698   2.754
  113SAPE   C2911787   0.388   4.721   2.957
  113SAPE   H9R11788   0.311   4.644   2.963
  113SAPE  C21011789   0.443   4.768   3.087
  113SAPE  H10R11790   0.508   4.857   3.080
  113SAPE  H10S11791   0.493   4.684   3.136
  113SAPE  C21111792   0.341   4.787   3.185
  113SAPE  H11R11793   0.283   4.699   3.208
  113SAPE  C21211794   0.309   4.901   3.238
  113SAPE  H12R11795   0.248   4.898   3.331
  113SAPE  C21311796   0.373   5.032   3.209
  113SAPE  H13R11797   0.309   5.118   3.215
  113SAPE  H13S11798   0.388   5.072   3.108
  113SAPE  C21411799   0.477   5.020   3.315
  113SAPE  H14R11800   0.558   5.089   3.293
  113SAPE  C21511801   0.461   4.986   3.448
  113SAPE  H15R11802   0.566   5.012   3.477
  113SAPE  C21611803   0.340   4.946   3.570
  113SAPE  H16R11804   0.367   4.846   3.601
  113SAPE  H16S11805   0.235   4.944   3.534
  113SAPE  C21711806   0.289   5.013   3.729
  113SAPE  H17R11807   0.265   5.118   3.760
  113SAPE  H17S11808   0.365   5.045   3.800
  113SAPE  C21811809   0.259   4.948   3.848
  113SAPE  H18R11810   0.278   5.013   3.944
  113SAPE  H18S11811   0.314   4.854   3.849
  113SAPE  C21911812   0.119   4.960   3.823
  113SAPE  H19R11813   0.098   4.907   3.725
  113SAPE  H19S11814   0.082   5.067   3.812
  113SAPE  C22011815   0.099   4.893   3.954
  113SAPE  H20R11816   0.012   4.933   4.005
  113SAPE  H20S11817   0.160   4.925   4.040
  113SAPE  H20T11818   0.104   4.784   3.935
  113SAPE   C3311819  -0.018   4.348   2.630
  113SAPE   H3X11820  -0.090   4.259   2.612
  113SAPE   H3Y11821  -0.056   4.406   2.717
  113SAPE   C3411822   0.093   4.304   2.710
  113SAPE   H4X11823   0.093   4.229   2.628
  113SAPE   H4Y11824   0.028   4.259   2.788
  113SAPE   C3511825   0.249   4.349   2.730
  113SAPE   H5X11826   0.305   4.378   2.643
  113SAPE   H5Y11827   0.334   4.289   2.769
  113SAPE   C3611828   0.260   4.446   2.839
  113SAPE   H6X11829   0.162   4.483   2.807
  113SAPE   H6Y11830   0.354   4.494   2.856
  113SAPE   C3711831   0.274   4.376   2.966
  113SAPE   H7X11832   0.343   4.292   2.956
  113SAPE   H7Y11833   0.193   4.334   2.919
  113SAPE   C3811834   0.285   4.425   3.115
  113SAPE   H8X11835   0.337   4.325   3.135
  113SAPE   H8Y11836   0.345   4.510   3.132
  113SAPE   C3911837   0.180   4.453   3.235
  113SAPE   H9X11838   0.230   4.361   3.273
  113SAPE   H9Y11839   0.076   4.460   3.210
  113SAPE  C31011840   0.169   4.516   3.383
  113SAPE  H10X11841   0.082   4.577   3.385
  113SAPE  H10Y11842   0.258   4.570   3.402
  113SAPE  C31111843   0.069   4.496   3.502
  113SAPE  H11X11844  -0.047   4.487   3.478
  113SAPE  H11Y11845   0.080   4.566   3.587
  113SAPE  C31211846   0.123   4.406   3.601
  113SAPE  H12X11847   0.016   4.380   3.597
  113SAPE  H12Y11848   0.074   4.388   3.696
  113SAPE  C31311849   0.258   4.322   3.577
  113SAPE  H13X11850   0.317   4.341   3.487
  113SAPE  H13Y11851   0.267   4.209   3.572
  113SAPE  C31411852   0.319   4.331   3.711
  113SAPE  H14X11853   0.321   4.441   3.713
  113SAPE  H14Y11854   0.416   4.277   3.713
  113SAPE  C31511855   0.230   4.283   3.826
  113SAPE  H15X11856   0.197   4.175   3.817
  113SAPE  H15Y11857   0.142   4.345   3.853
  113SAPE  C31611858   0.306   4.267   3.944
  113SAPE  H16X11859   0.373   4.350   3.953
  113SAPE  H16Y11860   0.350   4.172   3.908
  113SAPE  C31711861   0.208   4.253   4.051
  113SAPE  H17X11862   0.169   4.159   4.033
  113SAPE  H17Y11863   0.118   4.315   4.061
  113SAPE  C31811864   0.260   4.233   4.178
  113SAPE  H18X11865   0.342   4.166   4.188
  113SAPE  H18Y11866   0.178   4.208   4.247
  113SAPE  H18Z11867   0.307   4.316   4.213
  114SAPE     N11868   2.592   6.941   2.113
  114SAPE   HN111869   2.606   6.877   2.032
  114SAPE   HN211870   2.583   6.880   2.197
  114SAPE   HN311871   2.503   6.993   2.102
  114SAPE   C1211872   2.701   7.045   2.129
  114SAPE  H12A11873   2.723   7.088   2.030
  114SAPE  H12B11874   2.792   6.997   2.169
  114SAPE   C1111875   2.656   7.154   2.228
  114SAPE  H11A11876   2.726   7.241   2.225
  114SAPE  H11B11877   2.660   7.110   2.330
  114SAPE     P11878   2.447   7.287   2.302
  114SAPE   O1311879   2.533   7.396   2.346
  114SAPE   O1411880   2.314   7.311   2.244
  114SAPE   O1211881   2.523   7.195   2.197
  114SAPE   O1111882   2.443   7.186   2.423
  114SAPE    C111883   2.362   7.072   2.408
  114SAPE    HA11884   2.254   7.104   2.404
  114SAPE    HB11885   2.379   7.013   2.315
  114SAPE    C211886   2.378   6.974   2.528
  114SAPE    HS11887   2.280   6.935   2.520
  114SAPE   O2111888   2.415   7.029   2.658
  114SAPE   C2111889   2.327   7.111   2.693
  114SAPE   O2211890   2.224   7.122   2.633
  114SAPE   C2211891   2.377   7.196   2.811
  114SAPE   H2R11892   2.424   7.128   2.885
  114SAPE   H2S11893   2.451   7.263   2.763
  114SAPE    C311894   2.476   6.859   2.508
  114SAPE    HX11895   2.475   6.815   2.408
  114SAPE    HY11896   2.474   6.778   2.585
  114SAPE   O3111897   2.595   6.913   2.512
  114SAPE   C3111898   2.637   6.921   2.632
  114SAPE   O3211899   2.605   6.880   2.739
  114SAPE   C3211900   2.724   6.989   2.614
  114SAPE   H2X11901   2.748   7.038   2.511
  114SAPE   H2Y11902   2.799   6.908   2.566
  114SAPE   C2311903   2.286   7.299   2.878
  114SAPE   H3R11904   2.225   7.358   2.807
  114SAPE   H3S11905   2.349   7.375   2.929
  114SAPE   C2411906   2.210   7.238   2.988
  114SAPE   H4R11907   2.269   7.174   3.057
  114SAPE   H4S11908   2.139   7.165   2.943
  114SAPE   C2511909   2.148   7.359   3.053
  114SAPE   H5R11910   2.049   7.358   3.075
  114SAPE   C2611911   2.165   7.448   3.141
  114SAPE   H6R11912   2.076   7.510   3.171
  114SAPE   C2711913   2.284   7.444   3.216
  114SAPE   H7R11914   2.344   7.491   3.139
  114SAPE   H7S11915   2.311   7.339   3.236
  114SAPE   C2811916   2.251   7.530   3.332
  114SAPE   H8R11917   2.166   7.599   3.320
  114SAPE   C2911918   2.305   7.528   3.452
  114SAPE   H9R11919   2.279   7.615   3.513
  114SAPE  C21011920   2.414   7.438   3.500
  114SAPE  H10R11921   2.418   7.449   3.611
  114SAPE  H10S11922   2.513   7.466   3.464
  114SAPE  C21111923   2.404   7.294   3.461
  114SAPE  H11R11924   2.453   7.264   3.368
  114SAPE  C21211925   2.334   7.207   3.526
  114SAPE  H12R11926   2.341   7.100   3.501
  114SAPE  C21311927   2.258   7.248   3.647
  114SAPE  H13R11928   2.201   7.343   3.636
  114SAPE  H13S11929   2.322   7.250   3.738
  114SAPE  C21411930   2.158   7.145   3.658
  114SAPE  H14R11931   2.061   7.195   3.675
  114SAPE  C21511932   2.169   7.010   3.652
  114SAPE  H15R11933   2.088   6.937   3.663
  114SAPE  C21611934   2.268   6.916   3.637
  114SAPE  H16R11935   2.294   6.902   3.534
  114SAPE  H16S11936   2.215   6.827   3.656
  114SAPE  C21711937   2.361   6.950   3.742
  114SAPE  H17R11938   2.424   7.036   3.721
  114SAPE  H17S11939   2.408   6.855   3.746
  114SAPE  C21811940   2.325   6.976   3.881
  114SAPE  H18R11941   2.291   6.867   3.889
  114SAPE  H18S11942   2.277   7.071   3.911
  114SAPE  C21911943   2.356   6.899   4.001
  114SAPE  H19R11944   2.310   6.939   4.095
  114SAPE  H19S11945   2.401   6.994   4.051
  114SAPE  C22011946   2.447   6.744   3.970
  114SAPE  H20R11947   2.507   6.702   3.897
  114SAPE  H20S11948   2.401   6.661   4.006
  114SAPE  H20T11949   2.543   6.713   4.020
  114SAPE   C3311950   2.743   7.078   2.769
  114SAPE   H3X11951   2.686   7.168   2.758
  114SAPE   H3Y11952   2.809   7.167   2.776
  114SAPE   C3411953   2.867   7.072   2.878
  114SAPE   H4X11954   2.974   7.100   2.849
  114SAPE   H4Y11955   2.864   6.970   2.911
  114SAPE   C3511956   2.885   7.169   2.992
  114SAPE   H5X11957   2.804   7.244   2.989
  114SAPE   H5Y11958   2.985   7.219   2.996
  114SAPE   C3611959   2.919   7.085   3.110
  114SAPE   H6X11960   3.025   7.048   3.108
  114SAPE   H6Y11961   2.860   6.995   3.100
  114SAPE   C3711962   2.891   7.158   3.236
  114SAPE   H7X11963   2.807   7.230   3.222
  114SAPE   H7Y11964   2.980   7.213   3.268
  114SAPE   C3811965   2.855   7.059   3.340
  114SAPE   H8X11966   2.919   6.967   3.330
  114SAPE   H8Y11967   2.748   7.037   3.318
  114SAPE   C3911968   2.857   7.124   3.473
  114SAPE   H9X11969   2.786   7.210   3.463
  114SAPE   H9Y11970   2.958   7.163   3.496
  114SAPE  C31011971   2.797   7.044   3.583
  114SAPE  H10X11972   2.866   6.969   3.627
  114SAPE  H10Y11973   2.711   6.989   3.537
  114SAPE  C31111974   2.723   7.136   3.679
  114SAPE  H11X11975   2.678   7.082   3.759
  114SAPE  H11Y11976   2.637   7.190   3.642
  114SAPE  C31211977   2.797   7.209   3.782
  114SAPE  H12X11978   2.868   7.284   3.745
  114SAPE  H12Y11979   2.858   7.126   3.821
  114SAPE  C31311980   2.702   7.261   3.893
  114SAPE  H13X11981   2.745   7.303   3.983
  114SAPE  H13Y11982   2.640   7.196   3.954
  114SAPE  C31411983   2.610   7.356   3.850
  114SAPE  H14X11984   2.540   7.311   3.778
  114SAPE  H14Y11985   2.678   7.433   3.805
  114SAPE  C31511986   2.541   7.394   3.978
  114SAPE  H15X11987   2.471   7.468   3.943
  114SAPE  H15Y11988   2.616   7.424   4.057
  114SAPE  C31611989   2.461   7.314   4.071
  114SAPE  H16X11990   2.527   7.239   4.118
  114SAPE  H16Y11991   2.382   7.266   4.011
  114SAPE  C31711992   2.410   7.406   4.182
  114SAPE  H17X11993   2.333   7.479   4.145
  114SAPE  H17Y11994   2.483   7.455   4.250
  114SAPE  C31811995   2.342   7.312   4.265
  114SAPE  H18X11996   2.290   7.359   4.352
  114SAPE  H18Y11997   2.400   7.224   4.301
  114SAPE  H18Z11998   2.266   7.273   4.192
  115SAPE     N11999   7.422   5.785   2.314
  115SAPE   HN112000   7.491   5.823   2.246
  115SAPE   HN212001   7.419   5.846   2.397
  115SAPE   HN312002   7.451   5.687   2.342
  115SAPE   C1212003   7.283   5.779   2.255
  115SAPE  H12A12004   7.215   5.753   2.338
  115SAPE  H12B12005   7.278   5.696   2.183
  115SAPE   C1112006   7.239   5.908   2.185
  115SAPE  H11A12007   7.145   5.880   2.133
  115SAPE  H11B12008   7.313   5.938   2.108
  115SAPE     P12009   7.102   6.121   2.249
  115SAPE   O1312010   7.113   6.230   2.347
  115SAPE   O1412011   7.102   6.150   2.104
  115SAPE   O1212012   7.219   6.015   2.277
  115SAPE   O1112013   6.973   6.034   2.276
  115SAPE    C112014   6.956   5.951   2.392
  115SAPE    HA12015   6.937   5.846   2.361
  115SAPE    HB12016   7.043   5.959   2.461
  115SAPE    C212017   6.835   5.989   2.477
  115SAPE    HS12018   6.744   5.976   2.412
  115SAPE   O2112019   6.858   6.124   2.509
  115SAPE   C2112020   6.746   6.170   2.542
  115SAPE   O2212021   6.639   6.112   2.544
  115SAPE   C2212022   6.770   6.301   2.585
  115SAPE   H2R12023   6.867   6.350   2.561
  115SAPE   H2S12024   6.687   6.354   2.534
  115SAPE    C312025   6.811   5.904   2.606
  115SAPE    HX12026   6.788   5.802   2.570
  115SAPE    HY12027   6.723   5.937   2.665
  115SAPE   O3112028   6.924   5.915   2.692
  115SAPE   C3112029   6.997   5.810   2.703
  115SAPE   O3212030   6.977   5.698   2.659
  115SAPE   C3212031   7.121   5.860   2.777
  115SAPE   H2X12032   7.094   5.872   2.885
  115SAPE   H2Y12033   7.157   5.953   2.730
  115SAPE   C2312034   6.775   6.277   2.734
  115SAPE   H3R12035   6.678   6.264   2.786
  115SAPE   H3S12036   6.806   6.378   2.746
  115SAPE   C2412037   6.911   6.263   2.805
  115SAPE   H4R12038   6.983   6.332   2.756
  115SAPE   H4S12039   6.924   6.156   2.787
  115SAPE   C2512040   6.952   6.294   2.944
  115SAPE   H5R12041   7.009   6.378   2.981
  115SAPE   C2612042   6.892   6.245   3.041
  115SAPE   H6R12043   6.902   6.309   3.130
  115SAPE   C2712044   6.782   6.159   3.018
  115SAPE   H7R12045   6.693   6.188   2.961
  115SAPE   H7S12046   6.752   6.222   3.107
  115SAPE   C2812047   6.797   6.009   2.982
  115SAPE   H8R12048   6.767   6.019   2.877
  115SAPE   C2912049   6.778   5.880   3.031
  115SAPE   H9R12050   6.768   5.801   2.956
  115SAPE  C21012051   6.724   5.816   3.163
  115SAPE  H10R12052   6.619   5.777   3.172
  115SAPE  H10S12053   6.694   5.872   3.246
  115SAPE  C21112054   6.831   5.743   3.223
  115SAPE  H11R12055   6.863   5.668   3.151
  115SAPE  C21212056   6.873   5.749   3.350
  115SAPE  H12R12057   6.942   5.668   3.371
  115SAPE  C21312058   6.822   5.828   3.472
  115SAPE  H13R12059   6.732   5.884   3.452
  115SAPE  H13S12060   6.909   5.893   3.491
  115SAPE  C21412061   6.763   5.783   3.605
  115SAPE  H14R12062   6.674   5.720   3.604
  115SAPE  C21512063   6.835   5.758   3.709
  115SAPE  H15R12064   6.804   5.682   3.784
  115SAPE  C21612065   6.977   5.774   3.700
  115SAPE  H16R12066   7.021   5.868   3.667
  115SAPE  H16S12067   7.015   5.689   3.636
  115SAPE  C21712068   7.014   5.755   3.843
  115SAPE  H17R12069   7.111   5.791   3.875
  115SAPE  H17S12070   7.032   5.650   3.816
  115SAPE  C21812071   6.944   5.829   3.959
  115SAPE  H18R12072   6.837   5.813   3.942
  115SAPE  H18S12073   6.985   5.931   3.940
  115SAPE  C21912074   6.964   5.816   4.113
  115SAPE  H19R12075   6.918   5.895   4.173
  115SAPE  H19S12076   7.067   5.800   4.152
  115SAPE  C22012077   6.885   5.708   4.164
  115SAPE  H20R12078   6.784   5.686   4.120
  115SAPE  H20S12079   6.905   5.674   4.267
  115SAPE  H20T12080   6.944   5.627   4.130
  115SAPE   C3312081   7.230   5.760   2.767
  115SAPE   H3X12082   7.242   5.732   2.659
  115SAPE   H3Y12083   7.185   5.683   2.833
  115SAPE   C3412084   7.364   5.783   2.825
  115SAPE   H4X12085   7.433   5.695   2.830
  115SAPE   H4Y12086   7.349   5.812   2.930
  115SAPE   C3512087   7.422   5.887   2.734
  115SAPE   H5X12088   7.353   5.952   2.680
  115SAPE   H5Y12089   7.482   5.835   2.655
  115SAPE   C3612090   7.497   5.980   2.819
  115SAPE   H6X12091   7.567   6.042   2.757
  115SAPE   H6Y12092   7.555   5.918   2.894
  115SAPE   C3712093   7.427   6.090   2.885
  115SAPE   H7X12094   7.319   6.077   2.881
  115SAPE   H7Y12095   7.480   6.187   2.862
  115SAPE   C3812096   7.446   6.059   3.024
  115SAPE   H8X12097   7.548   6.064   3.033
  115SAPE   H8Y12098   7.425   5.955   3.049
  115SAPE   C3912099   7.408   6.151   3.126
  115SAPE   H9X12100   7.453   6.247   3.118
  115SAPE   H9Y12101   7.433   6.108   3.223
  115SAPE  C31012102   7.269   6.137   3.147
  115SAPE  H10X12103   7.255   6.027   3.133
  115SAPE  H10Y12104   7.227   6.196   3.065
  115SAPE  C31112105   7.242   6.168   3.290
  115SAPE  H11X12106   7.283   6.265   3.327
  115SAPE  H11Y12107   7.281   6.089   3.360
  115SAPE  C31212108   7.098   6.173   3.296
  115SAPE  H12X12109   7.053   6.080   3.248
  115SAPE  H12Y12110   7.062   6.258   3.234
  115SAPE  C31312111   7.073   6.196   3.445
  115SAPE  H13X12112   7.058   6.090   3.481
  115SAPE  H13Y12113   6.976   6.236   3.432
  115SAPE  C31412114   7.067   6.335   3.527
  115SAPE  H14X12115   7.050   6.413   3.446
  115SAPE  H14Y12116   7.154   6.352   3.583
  115SAPE  C31512117   6.988   6.381   3.662
  115SAPE  H15X12118   6.903   6.378   3.606
  115SAPE  H15Y12119   7.004   6.486   3.693
  115SAPE  C31612120   6.950   6.305   3.790
  115SAPE  H16X12121   7.034   6.247   3.813
  115SAPE  H16Y12122   6.928   6.201   3.800
  115SAPE  C31712123   6.859   6.348   3.899
  115SAPE  H17X12124   6.759   6.358   3.845
  115SAPE  H17Y12125   6.904   6.445   3.918
  115SAPE  C31812126   6.885   6.228   4.000
  115SAPE  H18X12127   6.986   6.184   4.004
  115SAPE  H18Y12128   6.865   6.128   3.956
  115SAPE  H18Z12129   6.828   6.234   4.092
  116SAPE     N12130  -0.340   1.290   2.013
  116SAPE   HN112131  -0.401   1.330   2.088
  116SAPE   HN212132  -0.347   1.349   1.928
  116SAPE   HN312133  -0.383   1.199   1.986
  116SAPE   C1212134  -0.198   1.270   2.059
  116SAPE  H12A12135  -0.140   1.362   2.038
  116SAPE  H12B12136  -0.153   1.190   1.998
  116SAPE   C1112137  -0.192   1.231   2.207
  116SAPE  H11A12138  -0.203   1.121   2.217
  116SAPE  H11B12139  -0.276   1.277   2.265
  116SAPE     P12140  -0.046   1.403   2.343
  116SAPE   O1312141   0.044   1.492   2.267
  116SAPE   O1412142  -0.179   1.456   2.381
  116SAPE   O1212143  -0.066   1.270   2.259
  116SAPE   O1112144   0.026   1.341   2.466
  116SAPE    C112145   0.149   1.269   2.456
  116SAPE    HA12146   0.135   1.161   2.436
  116SAPE    HB12147   0.221   1.313   2.382
  116SAPE    C212148   0.215   1.284   2.592
  116SAPE    HS12149   0.303   1.211   2.594
  116SAPE   O2112150   0.143   1.289   2.714
  116SAPE   C2112151   0.097   1.190   2.732
  116SAPE   O2212152   0.140   1.091   2.676
  116SAPE   C2212153  -0.016   1.213   2.835
  116SAPE   H2R12154  -0.068   1.303   2.810
  116SAPE   H2S12155  -0.097   1.139   2.823
  116SAPE    C312156   0.273   1.402   2.610
  116SAPE    HX12157   0.372   1.402   2.590
  116SAPE    HY12158   0.320   1.391   2.711
  116SAPE   O3112159   0.191   1.520   2.571
  116SAPE   C3112160   0.112   1.561   2.669
  116SAPE   O3212161   0.103   1.507   2.776
  116SAPE   C3212162   0.063   1.699   2.648
  116SAPE   H2X12163  -0.031   1.669   2.598
  116SAPE   H2Y12164   0.131   1.762   2.589
  116SAPE   C2312165   0.025   1.189   2.979
  116SAPE   H3R12166   0.096   1.115   2.950
  116SAPE   H3S12167  -0.061   1.147   3.038
  116SAPE   C2412168   0.128   1.260   3.064
  116SAPE   H4R12169   0.099   1.231   3.169
  116SAPE   H4S12170   0.098   1.362   3.040
  116SAPE   C2512171   0.277   1.232   3.040
  116SAPE   H5R12172   0.309   1.251   2.936
  116SAPE   C2612173   0.365   1.169   3.122
  116SAPE   H6R12174   0.469   1.165   3.095
  116SAPE   C2712175   0.346   1.109   3.257
  116SAPE   H7R12176   0.254   1.161   3.294
  116SAPE   H7S12177   0.424   1.143   3.328
  116SAPE   C2812178   0.354   0.955   3.259
  116SAPE   H8R12179   0.406   0.900   3.182
  116SAPE   C2912180   0.302   0.877   3.360
  116SAPE   H9R12181   0.249   0.781   3.327
  116SAPE  C21012182   0.237   0.955   3.472
  116SAPE  H10R12183   0.169   0.938   3.382
  116SAPE  H10S12184   0.210   1.058   3.444
  116SAPE  C21112185   0.180   0.937   3.629
  116SAPE  H11R12186   0.164   0.823   3.636
  116SAPE  C21212187   0.063   0.994   3.702
  116SAPE  H12R12188   0.044   0.958   3.806
  116SAPE  C21312189  -0.070   1.095   3.675
  116SAPE  H13R12190  -0.067   1.153   3.581
  116SAPE  H13S12191  -0.062   1.180   3.740
  116SAPE  C21412192  -0.225   1.065   3.644
  116SAPE  H14R12193  -0.267   1.056   3.541
  116SAPE  C21512194  -0.319   1.033   3.731
  116SAPE  H15R12195  -0.415   0.987   3.704
  116SAPE  C21612196  -0.288   1.022   3.873
  116SAPE  H16R12197  -0.180   1.024   3.890
  116SAPE  H16S12198  -0.345   0.938   3.916
  116SAPE  C21712199  -0.310   1.134   3.958
  116SAPE  H17R12200  -0.285   1.111   4.064
  116SAPE  H17S12201  -0.414   1.142   3.938
  116SAPE  C21812202  -0.264   1.260   3.908
  116SAPE  H18R12203  -0.329   1.278   3.820
  116SAPE  H18S12204  -0.157   1.255   3.885
  116SAPE  C21912205  -0.293   1.361   4.012
  116SAPE  H19R12206  -0.399   1.368   4.032
  116SAPE  H19S12207  -0.273   1.451   3.965
  116SAPE  C22012208  -0.199   1.367   4.128
  116SAPE  H20R12209  -0.221   1.280   4.191
  116SAPE  H20S12210  -0.213   1.462   4.183
  116SAPE  H20T12211  -0.094   1.363   4.090
  116SAPE   C3312212   0.033   1.780   2.774
  116SAPE   H3X12213   0.026   1.888   2.755
  116SAPE   H3Y12214   0.084   1.768   2.870
  116SAPE   C3412215  -0.095   1.737   2.816
  116SAPE   H4X12216  -0.159   1.762   2.728
  116SAPE   H4Y12217  -0.116   1.819   2.890
  116SAPE   C3512218  -0.110   1.591   2.877
  116SAPE   H5X12219  -0.111   1.512   2.800
  116SAPE   H5Y12220  -0.207   1.552   2.904
  116SAPE   C3612221  -0.090   1.578   3.027
  116SAPE   H6X12222  -0.127   1.664   3.085
  116SAPE   H6Y12223   0.014   1.582   3.035
  116SAPE   C3712224  -0.155   1.459   3.096
  116SAPE   H7X12225  -0.122   1.370   3.040
  116SAPE   H7Y12226  -0.266   1.465   3.084
  116SAPE   C3812227  -0.110   1.449   3.244
  116SAPE   H8X12228  -0.006   1.420   3.252
  116SAPE   H8Y12229  -0.176   1.365   3.277
  116SAPE   C3912230  -0.122   1.580   3.326
  116SAPE   H9X12231  -0.225   1.563   3.296
  116SAPE   H9Y12232  -0.104   1.678   3.281
  116SAPE  C31012233  -0.092   1.597   3.480
  116SAPE  H10X12234  -0.090   1.497   3.534
  116SAPE  H10Y12235  -0.160   1.669   3.538
  116SAPE  C31112236   0.033   1.604   3.534
  116SAPE  H11X12237   0.034   1.713   3.511
  116SAPE  H11Y12238   0.077   1.525   3.470
  116SAPE  C31212239   0.047   1.573   3.685
  116SAPE  H12X12240   0.023   1.467   3.704
  116SAPE  H12Y12241  -0.014   1.664   3.708
  116SAPE  C31312242   0.159   1.600   3.778
  116SAPE  H13X12243   0.150   1.704   3.786
  116SAPE  H13Y12244   0.249   1.564   3.733
  116SAPE  C31412245   0.191   1.563   3.915
  116SAPE  H14X12246   0.116   1.612   3.979
  116SAPE  H14Y12247   0.294   1.608   3.926
  116SAPE  C31512248   0.202   1.416   3.921
  116SAPE  H15X12249   0.102   1.378   3.891
  116SAPE  H15Y12250   0.223   1.398   4.028
  116SAPE  C31612251   0.311   1.349   3.834
  116SAPE  H16X12252   0.411   1.358   3.882
  116SAPE  H16Y12253   0.322   1.385   3.730
  116SAPE  C31712254   0.276   1.206   3.817
  116SAPE  H17X12255   0.357   1.149   3.764
  116SAPE  H17Y12256   0.184   1.194   3.756
  116SAPE  C31812257   0.249   1.150   3.952
  116SAPE  H18X12258   0.189   1.061   3.927
  116SAPE  H18Y12259   0.183   1.194   4.027
  116SAPE  H18Z12260   0.348   1.135   4.001
  117SOPE     N12261   2.478   3.147   6.237
  117SOPE   HN112262   2.414   3.227   6.256
  117SOPE   HN212263   2.445   3.098   6.152
  117SOPE   HN312264   2.483   3.083   6.319
  117SOPE   C1212265   2.618   3.198   6.211
  117SOPE  H12A12266   2.611   3.285   6.143
  117SOPE  H12B12267   2.670   3.115   6.160
  117SOPE   C1112268   2.690   3.238   6.341
  117SOPE  H11A12269   2.789   3.284   6.320
  117SOPE  H11B12270   2.711   3.147   6.402
  117SOPE     P12271   2.636   3.485   6.403
  117SOPE   O1312272   2.780   3.516   6.401
  117SOPE   O1412273   2.552   3.544   6.509
  117SOPE   O1212274   2.611   3.327   6.417
  117SOPE   O1112275   2.572   3.519   6.261
  117SOPE    C112276   2.589   3.649   6.201
  117SOPE    HA12277   2.668   3.712   6.251
  117SOPE    HB12278   2.493   3.705   6.209
  117SOPE    C212279   2.630   3.643   6.050
  117SOPE    HS12280   2.612   3.745   6.007
  117SOPE   O2112281   2.554   3.541   5.984
  117SOPE   C2112282   2.486   3.572   5.875
  117SOPE   O2212283   2.481   3.681   5.821
  117SOPE   C2212284   2.417   3.446   5.828
  117SOPE   H2R12285   2.336   3.421   5.900
  117SOPE   H2S12286   2.490   3.363   5.823
  117SOPE    C312287   2.784   3.616   6.036
  117SOPE    HX12288   2.815   3.520   6.081
  117SOPE    HY12289   2.837   3.695   6.093
  117SOPE   O3112290   2.825   3.626   5.900
  117SOPE   C3112291   2.814   3.519   5.824
  117SOPE   O3212292   2.774   3.409   5.856
  117SOPE   C3212293   2.858   3.560   5.685
  117SOPE   H2X12294   2.963   3.528   5.663
  117SOPE   H2Y12295   2.853   3.669   5.677
  117SOPE   C2312296   2.352   3.474   5.692
  117SOPE   H3R12297   2.421   3.530   5.625
  117SOPE   H3S12298   2.261   3.536   5.707
  117SOPE   C2412299   2.306   3.349   5.623
  117SOPE   H4R12300   2.391   3.297   5.586
  117SOPE   H4S12301   2.263   3.275   5.694
  117SOPE   C2512302   2.212   3.380   5.508
  117SOPE   H5R12303   2.174   3.289   5.462
  117SOPE   H5S12304   2.121   3.425   5.552
  117SOPE   C2612305   2.270   3.480   5.406
  117SOPE   H6R12306   2.205   3.498   5.321
  117SOPE   H6S12307   2.276   3.578   5.457
  117SOPE   C2712308   2.400   3.454   5.335
  117SOPE   H7R12309   2.481   3.455   5.410
  117SOPE   H7S12310   2.402   3.362   5.277
  117SOPE   C2812311   2.427   3.549   5.219
  117SOPE   H8R12312   2.416   3.652   5.256
  117SOPE   H8S12313   2.535   3.533   5.198
  117SOPE   C2912314   2.338   3.532   5.098
  117SOPE   H9112315   2.244   3.578   5.089
  117SOPE  C21012316   2.368   3.473   4.989
  117SOPE  H10112317   2.305   3.468   4.898
  117SOPE  C21112318   2.495   3.417   4.978
  117SOPE  H11R12319   2.566   3.403   5.065
  117SOPE  H11S12320   2.542   3.478   4.916
  117SOPE  C21212321   2.422   3.298   4.924
  117SOPE  H12R12322   2.404   3.216   4.975
  117SOPE  H12S12323   2.523   3.285   4.924
  117SOPE  C21312324   2.347   3.240   4.801
  117SOPE  H13R12325   2.255   3.217   4.849
  117SOPE  H13S12326   2.366   3.136   4.760
  117SOPE  C21412327   2.355   3.319   4.680
  117SOPE  H14R12328   2.455   3.329   4.713
  117SOPE  H14S12329   2.343   3.427   4.684
  117SOPE  C21512330   2.325   3.238   4.548
  117SOPE  H15R12331   2.225   3.208   4.561
  117SOPE  H15S12332   2.350   3.130   4.535
  117SOPE  C21612333   2.377   3.312   4.416
  117SOPE  H16R12334   2.482   3.336   4.390
  117SOPE  H16S12335   2.366   3.421   4.416
  117SOPE  C21712336   2.351   3.233   4.303
  117SOPE  H17R12337   2.252   3.266   4.279
  117SOPE  H17S12338   2.364   3.122   4.310
  117SOPE  C21812339   2.429   3.301   4.201
  117SOPE  H18R12340   2.529   3.266   4.188
  117SOPE  H18S12341   2.438   3.409   4.201
  117SOPE  H18T12342   2.360   3.269   4.123
  117SOPE   C3312343   2.767   3.511   5.576
  117SOPE   H3X12344   2.754   3.589   5.496
  117SOPE   H3Y12345   2.664   3.489   5.613
  117SOPE   C3412346   2.836   3.399   5.504
  117SOPE   H4X12347   2.851   3.306   5.568
  117SOPE   H4Y12348   2.928   3.429   5.453
  117SOPE   C3512349   2.746   3.370   5.392
  117SOPE   H5X12350   2.681   3.442   5.341
  117SOPE   H5Y12351   2.676   3.339   5.467
  117SOPE   C3612352   2.810   3.276   5.296
  117SOPE   H6X12353   2.738   3.262   5.214
  117SOPE   H6Y12354   2.839   3.177   5.338
  117SOPE   C3712355   2.881   3.338   5.184
  117SOPE   H7X12356   2.971   3.366   5.238
  117SOPE   H7Y12357   2.822   3.428   5.155
  117SOPE   C3812358   2.893   3.245   5.062
  117SOPE   H8X12359   2.798   3.245   5.010
  117SOPE   H8Y12360   2.928   3.141   5.084
  117SOPE   C3912361   2.979   3.307   4.959
  117SOPE   H9X12362   3.073   3.268   4.969
  117SOPE   H9Y12363   2.995   3.412   4.959
  117SOPE  C31012364   3.000   3.241   4.836
  117SOPE  H10X12365   2.991   3.133   4.843
  117SOPE  H10Y12366   3.092   3.257   4.778
  117SOPE  C31112367   2.932   3.324   4.744
  117SOPE  H11X12368   2.995   3.403   4.717
  117SOPE  H11Y12369   2.845   3.367   4.803
  117SOPE  C31212370   2.954   3.219   4.641
  117SOPE  H12X12371   2.888   3.212   4.583
  117SOPE  H12Y12372   2.881   3.163   4.695
  117SOPE  C31312373   2.978   3.209   4.471
  117SOPE  H13X12374   3.060   3.152   4.526
  117SOPE  H13Y12375   3.017   3.302   4.441
  117SOPE  C31412376   2.855   3.128   4.346
  117SOPE  H14X12377   2.934   3.083   4.281
  117SOPE  H14Y12378   2.794   3.193   4.296
  117SOPE  C31512379   2.709   2.995   4.372
  117SOPE  H15X12380   2.634   3.021   4.442
  117SOPE  H15Y12381   2.707   2.912   4.440
  117SOPE  C31612382   2.703   2.829   4.353
  117SOPE  H16X12383   2.639   2.747   4.408
  117SOPE  H16Y12384   2.795   2.774   4.325
  117SOPE  C31712385   2.632   2.867   4.242
  117SOPE  H17X12386   2.721   2.902   4.187
  117SOPE  H17Y12387   2.542   2.935   4.262
  117SOPE  C31812388   2.599   2.752   4.177
  117SOPE  H18X12389   2.537   2.725   4.259
  117SOPE  H18Y12390   2.678   2.680   4.162
  117SOPE  H18Z12391   2.548   2.792   4.094
  118SOPE     N12392   4.854   5.760   6.519
  118SOPE   HN112393   4.805   5.723   6.435
  118SOPE   HN212394   4.902   5.682   6.570
  118SOPE   HN312395   4.783   5.809   6.579
  118SOPE   C1212396   4.957   5.859   6.471
  118SOPE  H12A12397   5.015   5.812   6.389
  118SOPE  H12B12398   5.024   5.884   6.555
  118SOPE   C1112399   4.897   5.991   6.428
  118SOPE  H11A12400   4.879   6.056   6.518
  118SOPE  H11B12401   4.800   5.979   6.375
  118SOPE     P12402   4.965   6.187   6.280
  118SOPE   O1312403   5.077   6.214   6.187
  118SOPE   O1412404   4.941   6.286   6.386
  118SOPE   O1212405   4.996   6.047   6.345
  118SOPE   O1112406   4.830   6.159   6.202
  118SOPE    C112407   4.813   6.225   6.076
  118SOPE    HA12408   4.877   6.317   6.071
  118SOPE    HB12409   4.708   6.260   6.066
  118SOPE    C212410   4.849   6.129   5.960
  118SOPE    HS12411   4.770   6.053   5.951
  118SOPE   O2112412   4.978   6.077   5.980
  118SOPE   C2112413   5.020   5.983   5.906
  118SOPE   O2212414   4.956   5.913   5.829
  118SOPE   C2212415   5.171   5.974   5.934
  118SOPE   H2R12416   5.213   5.885   5.881
  118SOPE   H2S12417   5.188   5.971   6.041
  118SOPE    C312418   4.854   6.197   5.832
  118SOPE    HX12419   4.756   6.247   5.845
  118SOPE    HY12420   4.837   6.133   5.740
  118SOPE   O3112421   4.981   6.280   5.835
  118SOPE   C3112422   4.966   6.352   5.728
  118SOPE   O3212423   4.868   6.324   5.661
  118SOPE   C3212424   5.076   6.476   5.707
  118SOPE   H2X12425   5.151   6.432   5.775
  118SOPE   H2Y12426   5.039   6.563   5.748
  118SOPE   C2312427   5.241   6.093   5.878
  118SOPE   H3R12428   5.347   6.111   5.910
  118SOPE   H3S12429   5.187   6.191   5.893
  118SOPE   C2412430   5.230   6.042   5.738
  118SOPE   H4R12431   5.130   6.061   5.688
  118SOPE   H4S12432   5.316   6.113   5.727
  118SOPE   C2512433   5.316   5.992   5.631
  118SOPE   H5R12434   5.410   5.968   5.682
  118SOPE   H5S12435   5.242   5.910   5.614
  118SOPE   C2612436   5.340   6.060   5.496
  118SOPE   H6R12437   5.369   6.164   5.479
  118SOPE   H6S12438   5.443   6.045   5.469
  118SOPE   C2712439   5.225   6.026   5.406
  118SOPE   H7R12440   5.169   5.936   5.424
  118SOPE   H7S12441   5.150   6.088   5.372
  118SOPE   C2812442   5.237   6.064   5.263
  118SOPE   H8R12443   5.325   6.004   5.295
  118SOPE   H8S12444   5.153   6.003   5.217
  118SOPE   C2912445   5.318   6.143   5.168
  118SOPE   H9112446   5.392   6.205   5.216
  118SOPE  C21012447   5.324   6.142   5.033
  118SOPE  H10112448   5.413   6.180   4.981
  118SOPE  C21112449   5.256   6.064   4.934
  118SOPE  H11R12450   5.152   6.022   4.937
  118SOPE  H11S12451   5.328   5.990   4.969
  118SOPE  C21212452   5.317   6.037   4.805
  118SOPE  H12R12453   5.249   5.950   4.790
  118SOPE  H12S12454   5.429   6.018   4.811
  118SOPE  C21312455   5.299   6.132   4.702
  118SOPE  H13R12456   5.379   6.199   4.737
  118SOPE  H13S12457   5.190   6.149   4.725
  118SOPE  C21412458   5.320   6.086   4.560
  118SOPE  H14R12459   5.272   6.157   4.492
  118SOPE  H14S12460   5.241   6.013   4.550
  118SOPE  C21512461   5.465   6.053   4.508
  118SOPE  H15R12462   5.457   6.036   4.399
  118SOPE  H15S12463   5.520   5.963   4.542
  118SOPE  C21612464   5.572   6.156   4.533
  118SOPE  H16R12465   5.664   6.128   4.479
  118SOPE  H16S12466   5.592   6.154   4.643
  118SOPE  C21712467   5.526   6.289   4.487
  118SOPE  H17R12468   5.589   6.365   4.536
  118SOPE  H17S12469   5.426   6.291   4.529
  118SOPE  C21812470   5.513   6.312   4.338
  118SOPE  H18R12471   5.465   6.224   4.290
  118SOPE  H18S12472   5.613   6.333   4.299
  118SOPE  H18T12473   5.448   6.397   4.310
  118SOPE   C3312474   5.136   6.536   5.561
  118SOPE   H3X12475   5.059   6.586   5.534
  118SOPE   H3Y12476   5.157   6.478   5.478
  118SOPE   C3412477   5.261   6.598   5.497
  118SOPE   H4X12478   5.272   6.540   5.581
  118SOPE   H4Y12479   5.309   6.685   5.522
  118SOPE   C3512480   5.359   6.586   5.384
  118SOPE   H5X12481   5.457   6.619   5.411
  118SOPE   H5Y12482   5.328   6.689   5.344
  118SOPE   C3612483   5.330   6.453   5.314
  118SOPE   H6X12484   5.231   6.427   5.328
  118SOPE   H6Y12485   5.371   6.356   5.346
  118SOPE   C3712486   5.313   6.450   5.174
  118SOPE   H7X12487   5.297   6.363   5.117
  118SOPE   H7Y12488   5.420   6.458   5.201
  118SOPE   C3812489   5.255   6.558   5.087
  118SOPE   H8X12490   5.303   6.642   5.038
  118SOPE   H8Y12491   5.290   6.645   5.138
  118SOPE   C3912492   5.128   6.534   5.019
  118SOPE   H9X12493   5.035   6.554   5.064
  118SOPE   H9Y12494   5.091   6.435   5.001
  118SOPE  C31012495   5.108   6.652   4.943
  118SOPE  H10X12496   5.161   6.740   4.988
  118SOPE  H10Y12497   4.993   6.665   4.926
  118SOPE  C31112498   5.185   6.664   4.836
  118SOPE  H11X12499   5.265   6.745   4.832
  118SOPE  H11Y12500   5.119   6.728   4.814
  118SOPE  C31212501   5.096   6.571   4.767
  118SOPE  H12X12502   4.996   6.538   4.799
  118SOPE  H12Y12503   5.157   6.489   4.807
  118SOPE  C31312504   5.083   6.605   4.628
  118SOPE  H13X12505   5.177   6.663   4.607
  118SOPE  H13Y12506   5.007   6.661   4.587
  118SOPE  C31412507   5.037   6.500   4.544
  118SOPE  H14X12508   5.098   6.414   4.575
  118SOPE  H14Y12509   5.042   6.545   4.441
  118SOPE  C31512510   4.930   6.412   4.551
  118SOPE  H15X12511   4.855   6.470   4.500
  118SOPE  H15Y12512   4.913   6.391   4.658
  118SOPE  C31612513   4.975   6.295   4.461
  118SOPE  H16X12514   5.048   6.230   4.514
  118SOPE  H16Y12515   5.027   6.326   4.365
  118SOPE  C31712516   4.843   6.236   4.437
  118SOPE  H17X12517   4.788   6.307   4.371
  118SOPE  H17Y12518   4.795   6.236   4.538
  118SOPE  C31812519   4.845   6.096   4.383
  118SOPE  H18X12520   4.740   6.068   4.364
  118SOPE  H18Y12521   4.889   6.029   4.460
  118SOPE  H18Z12522   4.904   6.090   4.290
  119SOPE     N12523   5.601   6.267   6.501
  119SOPE   HN112524   5.583   6.312   6.592
  119SOPE   HN212525   5.703   6.278   6.478
  119SOPE   HN312526   5.546   6.317   6.429
  119SOPE   C1212527   5.561   6.122   6.509
  119SOPE  H12A12528   5.450   6.118   6.517
  119SOPE  H12B12529   5.603   6.085   6.602
  119SOPE   C1112530   5.606   6.032   6.392
  119SOPE  H11A12531   5.554   6.064   6.301
  119SOPE  H11B12532   5.577   5.928   6.423
  119SOPE     P12533   5.822   5.925   6.282
  119SOPE   O1312534   5.872   5.837   6.389
  119SOPE   O1412535   5.921   5.987   6.192
  119SOPE   O1212536   5.743   6.043   6.359
  119SOPE   O1112537   5.711   5.847   6.199
  119SOPE    C112538   5.647   5.889   6.079
  119SOPE    HA12539   5.665   5.997   6.057
  119SOPE    HB12540   5.538   5.876   6.093
  119SOPE    C212541   5.695   5.809   5.954
  119SOPE    HS12542   5.688   5.700   5.976
  119SOPE   O2112543   5.830   5.849   5.928
  119SOPE   C2112544   5.901   5.766   5.858
  119SOPE   O2212545   5.860   5.669   5.798
  119SOPE   C2212546   6.045   5.816   5.853
  119SOPE   H2R12547   6.096   5.779   5.944
  119SOPE   H2S12548   6.048   5.927   5.853
  119SOPE    C312549   5.608   5.842   5.832
  119SOPE    HX12550   5.501   5.826   5.860
  119SOPE    HY12551   5.635   5.773   5.749
  119SOPE   O3112552   5.629   5.981   5.801
  119SOPE   C3112553   5.645   6.012   5.678
  119SOPE   O3212554   5.618   5.948   5.579
  119SOPE   C3212555   5.701   6.148   5.663
  119SOPE   H2X12556   5.785   6.162   5.733
  119SOPE   H2Y12557   5.620   6.221   5.683
  119SOPE   C2312558   6.119   5.761   5.731
  119SOPE   H3R12559   6.100   5.654   5.718
  119SOPE   H3S12560   6.228   5.771   5.750
  119SOPE   C2412561   6.081   5.825   5.598
  119SOPE   H4R12562   5.971   5.814   5.580
  119SOPE   H4S12563   6.104   5.934   5.597
  119SOPE   C2512564   6.159   5.754   5.489
  119SOPE   H5R12565   6.265   5.787   5.495
  119SOPE   H5S12566   6.157   5.643   5.505
  119SOPE   C2612567   6.101   5.782   5.353
  119SOPE   H6R12568   5.993   5.754   5.347
  119SOPE   H6S12569   6.109   5.890   5.329
  119SOPE   C2712570   6.171   5.704   5.246
  119SOPE   H7R12571   6.281   5.722   5.242
  119SOPE   H7S12572   6.167   5.595   5.272
  119SOPE   C2812573   6.111   5.746   5.109
  119SOPE   H8R12574   6.135   5.847   5.083
  119SOPE   H8S12575   6.189   5.688   5.060
  119SOPE   C2912576   5.965   5.735   5.060
  119SOPE   H9112577   5.900   5.726   5.148
  119SOPE  C21012578   5.903   5.707   4.940
  119SOPE  H10112579   5.801   5.669   4.950
  119SOPE  C21112580   5.954   5.674   4.800
  119SOPE  H11R12581   5.966   5.563   4.784
  119SOPE  H11S12582   6.052   5.722   4.787
  119SOPE  C21212583   5.877   5.721   4.679
  119SOPE  H12R12584   5.908   5.828   4.671
  119SOPE  H12S12585   5.770   5.704   4.695
  119SOPE  C21312586   5.911   5.647   4.551
  119SOPE  H13R12587   5.898   5.537   4.555
  119SOPE  H13S12588   6.014   5.668   4.545
  119SOPE  C21412589   5.852   5.709   4.426
  119SOPE  H14R12590   5.743   5.699   4.442
  119SOPE  H14S12591   5.885   5.650   4.337
  119SOPE  C21512592   5.885   5.856   4.404
  119SOPE  H15R12593   5.988   5.868   4.371
  119SOPE  H15S12594   5.867   5.921   4.491
  119SOPE  C21612595   5.821   5.906   4.279
  119SOPE  H16R12596   5.711   5.907   4.284
  119SOPE  H16S12597   5.856   5.842   4.194
  119SOPE  C21712598   5.855   6.044   4.245
  119SOPE  H17R12599   5.960   6.071   4.262
  119SOPE  H17S12600   5.792   6.120   4.299
  119SOPE  C21812601   5.838   6.045   4.098
  119SOPE  H18R12602   5.733   6.063   4.069
  119SOPE  H18S12603   5.887   5.977   4.028
  119SOPE  H18T12604   5.905   6.129   4.086
  119SOPE   C3312605   5.738   6.153   5.515
  119SOPE   H3X12606   5.647   6.151   5.451
  119SOPE   H3Y12607   5.804   6.068   5.486
  119SOPE   C3412608   5.810   6.279   5.484
  119SOPE   H4X12609   5.892   6.273   5.557
  119SOPE   H4Y12610   5.747   6.370   5.499
  119SOPE   C3512611   5.862   6.268   5.344
  119SOPE   H5X12612   5.875   6.371   5.307
  119SOPE   H5Y12613   5.785   6.249   5.271
  119SOPE   C3612614   5.978   6.165   5.334
  119SOPE   H6X12615   5.949   6.061   5.349
  119SOPE   H6Y12616   6.062   6.184   5.405
  119SOPE   C3712617   6.035   6.162   5.196
  119SOPE   H7X12618   6.143   6.129   5.192
  119SOPE   H7Y12619   6.016   6.269   5.176
  119SOPE   C3812620   5.958   6.138   5.071
  119SOPE   H8X12621   5.885   6.220   5.049
  119SOPE   H8Y12622   5.916   6.038   5.091
  119SOPE   C3912623   6.053   6.128   4.956
  119SOPE   H9X12624   6.004   6.060   4.886
  119SOPE   H9Y12625   6.141   6.082   5.004
  119SOPE  C31012626   6.079   6.256   4.885
  119SOPE  H10X12627   6.163   6.298   4.929
  119SOPE  H10Y12628   5.998   6.328   4.868
  119SOPE  C31112629   6.182   6.276   4.790
  119SOPE  H11X12630   6.283   6.222   4.807
  119SOPE  H11Y12631   6.197   6.388   4.764
  119SOPE  C31212632   6.123   6.244   4.688
  119SOPE  H12X12633   6.032   6.193   4.667
  119SOPE  H12Y12634   6.209   6.193   4.657
  119SOPE  C31312635   6.180   6.271   4.593
  119SOPE  H13X12636   6.288   6.229   4.525
  119SOPE  H13Y12637   6.271   6.347   4.603
  119SOPE  C31412638   5.989   6.303   4.500
  119SOPE  H14X12639   5.948   6.389   4.548
  119SOPE  H14Y12640   5.913   6.233   4.530
  119SOPE  C31512641   5.966   6.335   4.311
  119SOPE  H15X12642   5.981   6.257   4.234
  119SOPE  H15Y12643   6.055   6.360   4.240
  119SOPE  C31612644   5.904   6.472   4.264
  119SOPE  H16X12645   5.944   6.573   4.292
  119SOPE  H16Y12646   5.811   6.446   4.307
  119SOPE  C31712647   5.903   6.526   4.128
  119SOPE  H17X12648   5.813   6.583   4.095
  119SOPE  H17Y12649   5.927   6.436   4.077
  119SOPE  C31812650   6.011   6.593   4.077
  119SOPE  H18X12651   5.993   6.579   3.969
  119SOPE  H18Y12652   6.093   6.531   4.103
  119SOPE  H18Z12653   6.021   6.691   4.124
  120SOPE     N12654   5.893   0.465   6.288
  120SOPE   HN112655   5.930   0.497   6.196
  120SOPE   HN212656   5.974   0.452   6.352
  120SOPE   HN312657   5.838   0.377   6.278
  120SOPE   C1212658   5.804   0.567   6.353
  120SOPE  H12A12659   5.785   0.530   6.456
  120SOPE  H12B12660   5.710   0.572   6.296
  120SOPE   C1112661   5.869   0.706   6.358
  120SOPE  H11A12662   5.805   0.775   6.418
  120SOPE  H11B12663   5.875   0.746   6.255
  120SOPE     P12664   6.119   0.779   6.367
  120SOPE   O1312665   6.234   0.731   6.446
  120SOPE   O1412666   6.084   0.923   6.373
  120SOPE   O1212667   5.996   0.695   6.420
  120SOPE   O1112668   6.126   0.728   6.216
  120SOPE    C112669   6.112   0.822   6.108
  120SOPE    HA12670   6.212   0.857   6.072
  120SOPE    HB12671   6.050   0.911   6.135
  120SOPE    C212672   6.045   0.756   5.987
  120SOPE    HS12673   5.951   0.708   6.025
  120SOPE   O2112674   6.143   0.667   5.932
  120SOPE   C2112675   6.083   0.559   5.885
  120SOPE   O2212676   5.968   0.533   5.904
  120SOPE   C2212677   6.178   0.465   5.825
  120SOPE   H2R12678   6.144   0.380   5.775
  120SOPE   H2S12679   6.234   0.422   5.911
  120SOPE    C312680   6.005   0.856   5.877
  120SOPE    HX12681   6.094   0.915   5.847
  120SOPE    HY12682   5.929   0.925   5.921
  120SOPE   O3112683   5.949   0.786   5.764
  120SOPE   C3112684   5.927   0.872   5.667
  120SOPE   O3212685   5.962   0.989   5.670
  120SOPE   C3212686   5.838   0.804   5.568
  120SOPE   H2X12687   5.747   0.839   5.519
  120SOPE   H2Y12688   5.787   0.726   5.623
  120SOPE   C2312689   6.252   0.531   5.718
  120SOPE   H3R12690   6.330   0.460   5.682
  120SOPE   H3S12691   6.287   0.617   5.781
  120SOPE   C2412692   6.201   0.567   5.585
  120SOPE   H4R12693   6.169   0.483   5.521
  120SOPE   H4S12694   6.140   0.659   5.593
  120SOPE   C2512695   6.316   0.615   5.509
  120SOPE   H5R12696   6.347   0.707   5.564
  120SOPE   H5S12697   6.393   0.540   5.475
  120SOPE   C2612698   6.279   0.706   5.407
  120SOPE   H6R12699   6.237   0.804   5.430
  120SOPE   H6S12700   6.387   0.714   5.389
  120SOPE   C2712701   6.215   0.645   5.295
  120SOPE   H7R12702   6.286   0.560   5.271
  120SOPE   H7S12703   6.127   0.593   5.335
  120SOPE   C2812704   6.167   0.750   5.187
  120SOPE   H8R12705   6.074   0.714   5.139
  120SOPE   H8S12706   6.151   0.847   5.233
  120SOPE   C2912707   6.193   0.794   5.049
  120SOPE   H9112708   6.280   0.868   5.054
  120SOPE  C21012709   6.234   0.713   4.959
  120SOPE  H10112710   6.318   0.681   4.973
  120SOPE  C21112711   6.260   0.567   4.935
  120SOPE  H11R12712   6.307   0.514   5.025
  120SOPE  H11S12713   6.310   0.490   4.866
  120SOPE  C21212714   6.145   0.608   4.843
  120SOPE  H12R12715   6.045   0.627   4.883
  120SOPE  H12S12716   6.137   0.511   4.807
  120SOPE  C21312717   6.138   0.649   4.700
  120SOPE  H13R12718   6.178   0.572   4.632
  120SOPE  H13S12719   6.168   0.755   4.691
  120SOPE  C21412720   6.004   0.640   4.639
  120SOPE  H14R12721   5.932   0.661   4.719
  120SOPE  H14S12722   5.988   0.545   4.581
  120SOPE  C21512723   5.988   0.756   4.552
  120SOPE  H15R12724   5.990   0.851   4.612
  120SOPE  H15S12725   5.891   0.739   4.506
  120SOPE  C21612726   6.092   0.767   4.447
  120SOPE  H16R12727   6.182   0.818   4.488
  120SOPE  H16S12728   6.038   0.820   4.370
  120SOPE  C21712729   6.124   0.659   4.353
  120SOPE  H17R12730   6.035   0.617   4.302
  120SOPE  H17S12731   6.160   0.581   4.424
  120SOPE  C21812732   6.226   0.712   4.246
  120SOPE  H18R12733   6.315   0.750   4.300
  120SOPE  H18S12734   6.202   0.784   4.169
  120SOPE  H18T12735   6.275   0.638   4.184
  120SOPE   C3312736   5.928   0.797   5.449
  120SOPE   H3X12737   6.005   0.721   5.473
  120SOPE   H3Y12738   5.964   0.896   5.420
  120SOPE   C3412739   5.867   0.768   5.314
  120SOPE   H4X12740   5.807   0.719   5.383
  120SOPE   H4Y12741   5.935   0.706   5.258
  120SOPE   C3512742   5.723   0.777   5.257
  120SOPE   H5X12743   5.635   0.749   5.322
  120SOPE   H5Y12744   5.711   0.712   5.167
  120SOPE   C3612745   5.761   0.918   5.247
  120SOPE   H6X12746   5.853   0.927   5.182
  120SOPE   H6Y12747   5.761   0.961   5.349
  120SOPE   C3712748   5.669   0.995   5.181
  120SOPE   H7X12749   5.581   0.964   5.240
  120SOPE   H7Y12750   5.676   0.937   5.084
  120SOPE   C3812751   5.686   1.145   5.173
  120SOPE   H8X12752   5.693   1.187   5.274
  120SOPE   H8Y12753   5.595   1.199   5.138
  120SOPE   C3912754   5.806   1.176   5.086
  120SOPE   H9X12755   5.888   1.143   5.153
  120SOPE   H9Y12756   5.805   1.286   5.068
  120SOPE  C31012757   5.823   1.103   4.952
  120SOPE  H10X12758   5.750   1.146   4.884
  120SOPE  H10Y12759   5.815   0.992   4.956
  120SOPE  C31112760   5.936   1.141   4.865
  120SOPE  H11X12761   5.916   1.239   4.815
  120SOPE  H11Y12762   5.937   1.067   4.781
  120SOPE  C31212763   6.062   1.148   4.947
  120SOPE  H12X12764   6.097   1.046   4.976
  120SOPE  H12Y12765   6.044   1.205   5.039
  120SOPE  C31312766   6.165   1.235   4.883
  120SOPE  H13X12767   6.239   1.273   4.956
  120SOPE  H13Y12768   6.124   1.315   4.817
  120SOPE  C31412769   6.242   1.151   4.797
  120SOPE  H14X12770   6.301   1.074   4.852
  120SOPE  H14Y12771   6.316   1.221   4.757
  120SOPE  C31512772   6.151   1.099   4.692
  120SOPE  H15X12773   6.103   1.000   4.717
  120SOPE  H15Y12774   6.214   1.015   4.662
  120SOPE  C31612775   6.091   1.220   4.583
  120SOPE  H16X12776   6.004   1.274   4.617
  120SOPE  H16Y12777   6.023   1.132   4.558
  120SOPE  C31712778   6.174   1.306   4.423
  120SOPE  H17X12779   6.209   1.376   4.499
  120SOPE  H17Y12780   6.094   1.334   4.360
  120SOPE  C31812781   6.299   1.243   4.283
  120SOPE  H18X12782   6.360   1.297   4.220
  120SOPE  H18Y12783   6.322   1.143   4.236
  120SOPE  H18Z12784   6.378   1.163   4.315
  121SOPE     N12785   6.151   6.497   6.566
  121SOPE   HN112786   6.248   6.482   6.599
  121SOPE   HN212787   6.081   6.452   6.629
  121SOPE   HN312788   6.137   6.461   6.467
  121SOPE   C1212789   6.131   6.646   6.568
  121SOPE  H12A12790   6.223   6.694   6.526
  121SOPE  H12B12791   6.117   6.677   6.673
  121SOPE   C1112792   6.008   6.685   6.489
  121SOPE  H11A12793   5.989   6.795   6.501
  121SOPE  H11B12794   5.919   6.632   6.532
  121SOPE     P12795   6.073   6.744   6.240
  121SOPE   O1312796   6.221   6.739   6.232
  121SOPE   O1412797   6.005   6.872   6.264
  121SOPE   O1212798   6.026   6.643   6.354
  121SOPE   O1112799   6.007   6.670   6.117
  121SOPE    C112800   5.869   6.626   6.122
  121SOPE    HA12801   5.814   6.665   6.211
  121SOPE    HB12802   5.865   6.515   6.125
  121SOPE    C212803   5.792   6.678   5.998
  121SOPE    HS12804   5.688   6.637   5.995
  121SOPE   O2112805   5.862   6.645   5.879
  121SOPE   C2112806   5.838   6.527   5.838
  121SOPE   O2212807   5.768   6.440   5.888
  121SOPE   C2212808   5.901   6.514   5.705
  121SOPE   H2R12809   5.871   6.416   5.672
  121SOPE   H2S12810   6.008   6.509   5.723
  121SOPE    C312811   5.777   6.831   6.001
  121SOPE    HX12812   5.878   6.879   5.998
  121SOPE    HY12813   5.730   6.858   6.098
  121SOPE   O3112814   5.689   6.872   5.896
  121SOPE   C3112815   5.742   6.912   5.784
  121SOPE   O3212816   5.859   6.935   5.761
  121SOPE   C3212817   5.628   6.947   5.694
  121SOPE   H2X12818   5.563   7.025   5.739
  121SOPE   H2Y12819   5.566   6.855   5.684
  121SOPE   C2312820   5.865   6.629   5.609
  121SOPE   H3R12821   5.896   6.726   5.654
  121SOPE   H3S12822   5.757   6.625   5.586
  121SOPE   C2412823   5.941   6.621   5.482
  121SOPE   H4R12824   5.945   6.512   5.474
  121SOPE   H4S12825   5.896   6.657   5.388
  121SOPE   C2512826   6.078   6.679   5.503
  121SOPE   H5R12827   6.128   6.642   5.594
  121SOPE   H5S12828   6.139   6.657   5.414
  121SOPE   C2612829   6.104   6.818   5.488
  121SOPE   H6R12830   6.030   6.851   5.414
  121SOPE   H6S12831   6.098   6.870   5.585
  121SOPE   C2712832   6.242   6.827   5.427
  121SOPE   H7R12833   6.316   6.818   5.509
  121SOPE   H7S12834   6.280   6.765   5.343
  121SOPE   C2812835   6.226   6.956   5.363
  121SOPE   H8R12836   6.199   7.009   5.455
  121SOPE   H8S12837   6.316   6.993   5.331
  121SOPE   C2912838   6.132   7.005   5.265
  121SOPE   H9112839   6.071   7.080   5.318
  121SOPE  C21012840   6.148   7.002   5.133
  121SOPE  H10112841   6.090   7.080   5.083
  121SOPE  C21112842   6.263   6.948   5.050
  121SOPE  H11R12843   6.244   6.851   5.004
  121SOPE  H11S12844   6.352   6.915   5.096
  121SOPE  C21212845   6.314   7.049   4.949
  121SOPE  H12R12846   6.389   6.995   4.906
  121SOPE  H12S12847   6.400   7.118   4.949
  121SOPE  C21312848   6.198   7.082   4.866
  121SOPE  H13R12849   6.140   7.168   4.906
  121SOPE  H13S12850   6.146   6.985   4.844
  121SOPE  C21412851   6.245   7.125   4.741
  121SOPE  H14R12852   6.299   7.035   4.713
  121SOPE  H14S12853   6.304   7.219   4.762
  121SOPE  C21512854   6.148   7.142   4.633
  121SOPE  H15R12855   6.096   7.235   4.665
  121SOPE  H15S12856   6.083   7.053   4.623
  121SOPE  C21612857   6.193   7.154   4.488
  121SOPE  H16R12858   6.265   7.086   4.443
  121SOPE  H16S12859   6.236   7.259   4.472
  121SOPE  C21712860   6.089   7.121   4.390
  121SOPE  H17R12861   6.062   7.190   4.455
  121SOPE  H17S12862   5.983   7.089   4.389
  121SOPE  C21812863   6.148   7.185   4.283
  121SOPE  H18R12864   6.213   7.117   4.233
  121SOPE  H18S12865   6.207   7.278   4.290
  121SOPE  H18T12866   6.084   7.238   4.220
  121SOPE   C3312867   5.673   6.995   5.557
  121SOPE   H3X12868   5.732   7.084   5.542
  121SOPE   H3Y12869   5.576   7.033   5.526
  121SOPE   C3412870   5.738   6.892   5.467
  121SOPE   H4X12871   5.669   6.804   5.459
  121SOPE   H4Y12872   5.837   6.861   5.504
  121SOPE   C3512873   5.778   6.953   5.332
  121SOPE   H5X12874   5.844   7.039   5.331
  121SOPE   H5Y12875   5.697   7.022   5.316
  121SOPE   C3612876   5.810   6.848   5.223
  121SOPE   H6X12877   5.754   6.756   5.254
  121SOPE   H6Y12878   5.913   6.815   5.237
  121SOPE   C3712879   5.793   6.881   5.068
  121SOPE   H7X12880   5.691   6.891   5.026
  121SOPE   H7Y12881   5.832   6.798   5.006
  121SOPE   C3812882   5.829   7.010   5.015
  121SOPE   H8X12883   5.927   7.010   5.056
  121SOPE   H8Y12884   5.762   7.088   5.059
  121SOPE   C3912885   5.839   6.997   4.863
  121SOPE   H9X12886   5.849   6.895   4.828
  121SOPE   H9Y12887   5.922   7.065   4.838
  121SOPE  C31012888   5.714   7.034   4.792
  121SOPE  H10X12889   5.732   7.133   4.837
  121SOPE  H10Y12890   5.626   6.986   4.838
  121SOPE  C31112891   5.682   7.057   4.636
  121SOPE  H11X12892   5.693   7.156   4.610
  121SOPE  H11Y12893   5.584   7.085   4.593
  121SOPE  C31212894   5.771   6.995   4.545
  121SOPE  H12X12895   5.870   7.022   4.582
  121SOPE  H12Y12896   5.760   7.035   4.442
  121SOPE  C31312897   5.738   6.859   4.570
  121SOPE  H13X12898   5.635   6.839   4.555
  121SOPE  H13Y12899   5.726   6.834   4.676
  121SOPE  C31412900   5.845   6.786   4.503
  121SOPE  H14X12901   5.893   6.835   4.415
  121SOPE  H14Y12902   5.812   6.685   4.473
  121SOPE  C31512903   5.931   6.797   4.628
  121SOPE  H15X12904   5.889   6.731   4.711
  121SOPE  H15Y12905   5.968   6.894   4.658
  121SOPE  C31612906   6.069   6.768   4.624
  121SOPE  H16X12907   6.010   6.692   4.564
  121SOPE  H16Y12908   6.106   6.711   4.712
  121SOPE  C31712909   6.191   6.821   4.535
  121SOPE  H17X12910   6.283   6.755   4.522
  121SOPE  H17Y12911   6.245   6.871   4.612
  121SOPE  C31812912   6.177   6.832   4.381
  121SOPE  H18X12913   6.109   6.759   4.330
  121SOPE  H18Y12914   6.273   6.826   4.325
  121SOPE  H18Z12915   6.122   6.917   4.373
  122SOPE     N12916   6.469  -0.110   6.273
  122SOPE   HN112917   6.443  -0.100   6.374
  122SOPE   HN212918   6.472  -0.211   6.251
  122SOPE   HN312919   6.561  -0.067   6.251
  122SOPE   C1212920   6.381  -0.044   6.179
  122SOPE  H12A12921   6.293  -0.110   6.166
  122SOPE  H12B12922   6.437  -0.031   6.083
  122SOPE   C1112923   6.351   0.087   6.247
  122SOPE  H11A12924   6.273   0.140   6.188
  122SOPE  H11B12925   6.444   0.149   6.247
  122SOPE     P12926   6.179   0.002   6.427
  122SOPE   O1312927   6.127   0.076   6.543
  122SOPE   O1412928   6.195  -0.143   6.435
  122SOPE   O1212929   6.316   0.066   6.385
  122SOPE   O1112930   6.099   0.036   6.304
  122SOPE    C112931   5.971  -0.020   6.297
  122SOPE    HA12932   5.910   0.031   6.369
  122SOPE    HB12933   5.963  -0.129   6.322
  122SOPE    C212934   5.929   0.018   6.159
  122SOPE    HS12935   5.827  -0.025   6.139
  122SOPE   O2112936   6.034  -0.021   6.066
  122SOPE   C2112937   6.063  -0.151   6.067
  122SOPE   O2212938   5.998  -0.234   6.125
  122SOPE   C2212939   6.155  -0.190   5.948
  122SOPE   H2R12940   6.131  -0.299   5.932
  122SOPE   H2S12941   6.258  -0.171   5.973
  122SOPE    C312942   5.915   0.172   6.154
  122SOPE    HX12943   6.012   0.219   6.180
  122SOPE    HY12944   5.840   0.202   6.232
  122SOPE   O3112945   5.871   0.215   6.027
  122SOPE   C3112946   5.955   0.257   5.932
  122SOPE   O3212947   6.074   0.259   5.954
  122SOPE   C3212948   5.886   0.254   5.789
  122SOPE   H2X12949   5.834   0.332   5.750
  122SOPE   H2Y12950   5.790   0.200   5.789
  122SOPE   C2312951   6.128  -0.122   5.813
  122SOPE   H3R12952   6.139  -0.012   5.809
  122SOPE   H3S12953   6.028  -0.154   5.822
  122SOPE   C2412954   6.172  -0.183   5.683
  122SOPE   H4R12955   6.128  -0.282   5.657
  122SOPE   H4S12956   6.138  -0.115   5.601
  122SOPE   C2512957   6.322  -0.184   5.693
  122SOPE   H5R12958   6.364  -0.084   5.714
  122SOPE   H5S12959   6.344  -0.255   5.774
  122SOPE   C2612960   6.385  -0.218   5.566
  122SOPE   H6R12961   6.495  -0.227   5.568
  122SOPE   H6S12962   6.350  -0.320   5.556
  122SOPE   C2712963   6.329  -0.126   5.455
  122SOPE   H7R12964   6.225  -0.152   5.430
  122SOPE   H7S12965   6.324  -0.021   5.476
  122SOPE   C2812966   6.416  -0.130   5.337
  122SOPE   H8R12967   6.520  -0.108   5.343
  122SOPE   H8S12968   6.448  -0.230   5.366
  122SOPE   C2912969   6.350  -0.118   5.203
  122SOPE   H9112970   6.327  -0.215   5.172
  122SOPE  C21012971   6.371  -0.048   5.094
  122SOPE  H10112972   6.314  -0.066   5.001
  122SOPE  C21112973   6.480   0.047   5.080
  122SOPE  H11R12974   6.552   0.016   5.000
  122SOPE  H11S12975   6.532   0.056   5.178
  122SOPE  C21212976   6.406   0.167   5.061
  122SOPE  H12R12977   6.325   0.170   5.139
  122SOPE  H12S12978   6.364   0.164   4.958
  122SOPE  C21312979   6.500   0.280   5.090
  122SOPE  H13R12980   6.553   0.263   5.187
  122SOPE  H13S12981   6.431   0.364   5.102
  122SOPE  C21412982   6.604   0.306   4.982
  122SOPE  H14R12983   6.678   0.223   4.978
  122SOPE  H14S12984   6.656   0.400   5.011
  122SOPE  C21512985   6.551   0.319   4.840
  122SOPE  H15R12986   6.463   0.383   4.837
  122SOPE  H15S12987   6.515   0.222   4.802
  122SOPE  C21612988   6.665   0.378   4.757
  122SOPE  H16R12989   6.759   0.332   4.783
  122SOPE  H16S12990   6.672   0.488   4.779
  122SOPE  C21712991   6.668   0.344   4.611
  122SOPE  H17R12992   6.624   0.254   4.564
  122SOPE  H17S12993   6.747   0.396   4.551
  122SOPE  C21812994   6.573   0.426   4.567
  122SOPE  H18R12995   6.589   0.421   4.460
  122SOPE  H18S12996   6.614   0.525   4.588
  122SOPE  H18T12997   6.468   0.405   4.590
  122SOPE   C3312998   5.979   0.201   5.681
  122SOPE   H3X12999   6.025   0.105   5.704
  122SOPE   H3Y13000   6.058   0.274   5.672
  122SOPE   C3413001   5.934   0.194   5.538
  122SOPE   H4X13002   5.923   0.296   5.500
  122SOPE   H4Y13003   5.837   0.144   5.531
  122SOPE   C3513004   6.053   0.135   5.459
  122SOPE   H5X13005   6.077   0.039   5.500
  122SOPE   H5Y13006   6.139   0.208   5.458
  122SOPE   C3613007   6.027   0.099   5.318
  122SOPE   H6X13008   5.922   0.051   5.307
  122SOPE   H6Y13009   6.097   0.064   5.242
  122SOPE   C3713010   6.020   0.232   5.268
  122SOPE   H7X13011   5.930   0.253   5.308
  122SOPE   H7Y13012   5.941   0.205   5.212
  122SOPE   C3813013   6.122   0.344   5.234
  122SOPE   H8X13014   6.221   0.304   5.209
  122SOPE   H8Y13015   6.122   0.406   5.322
  122SOPE   C3913016   6.103   0.440   5.117
  122SOPE   H9X13017   6.174   0.513   5.134
  122SOPE   H9Y13018   6.034   0.532   5.109
  122SOPE  C31013019   6.141   0.355   4.998
  122SOPE  H10X13020   6.246   0.339   4.990
  122SOPE  H10Y13021   6.083   0.443   4.964
  122SOPE  C31113022   6.084   0.286   4.881
  122SOPE  H11X13023   5.993   0.321   4.847
  122SOPE  H11Y13024   6.066   0.184   4.914
  122SOPE  C31213025   6.148   0.296   4.754
  122SOPE  H12X13026   6.241   0.241   4.772
  122SOPE  H12Y13027   6.165   0.386   4.693
  122SOPE  C31313028   6.046   0.246   4.668
  122SOPE  H13X13029   5.974   0.314   4.618
  122SOPE  H13Y13030   5.980   0.172   4.720
  122SOPE  C31413031   6.150   0.206   4.576
  122SOPE  H14X13032   6.108   0.115   4.569
  122SOPE  H14Y13033   6.232   0.142   4.606
  122SOPE  C31513034   6.178   0.311   4.472
  122SOPE  H15X13035   6.236   0.395   4.506
  122SOPE  H15Y13036   6.083   0.363   4.433
  122SOPE  C31613037   6.255   0.251   4.360
  122SOPE  H16X13038   6.248   0.142   4.342
  122SOPE  H16Y13039   6.359   0.225   4.379
  122SOPE  C31713040   6.189   0.308   4.231
  122SOPE  H17X13041   6.086   0.343   4.203
  122SOPE  H17Y13042   6.190   0.226   4.166
  122SOPE  C31813043   6.249   0.417   4.210
  122SOPE  H18X13044   6.350   0.383   4.228
  122SOPE  H18Y13045   6.214   0.468   4.296
  122SOPE  H18Z13046   6.229   0.470   4.116
  123SOPE     N13047   4.425   1.660   2.000
  123SOPE   HN113048   4.504   1.601   1.963
  123SOPE   HN213049   4.339   1.648   1.944
  123SOPE   HN313050   4.451   1.760   2.013
  123SOPE   C1213051   4.389   1.613   2.136
  123SOPE  H12A13052   4.356   1.699   2.197
  123SOPE  H12B13053   4.485   1.577   2.179
  123SOPE   C1113054   4.280   1.506   2.126
  123SOPE  H11A13055   4.271   1.458   2.223
  123SOPE  H11B13056   4.311   1.421   2.060
  123SOPE     P13057   4.058   1.655   2.174
  123SOPE   O1313058   3.929   1.658   2.104
  123SOPE   O1413059   4.140   1.777   2.187
  123SOPE   O1213060   4.151   1.555   2.088
  123SOPE   O1113061   4.037   1.586   2.309
  123SOPE    C113062   3.977   1.459   2.328
  123SOPE    HA13063   4.037   1.380   2.274
  123SOPE    HB13064   3.874   1.455   2.294
  123SOPE    C213065   3.979   1.430   2.481
  123SOPE    HS13066   3.913   1.341   2.500
  123SOPE   O2113067   3.958   1.523   2.577
  123SOPE   C2113068   3.856   1.585   2.564
  123SOPE   O2213069   3.753   1.558   2.506
  123SOPE   C2213070   3.875   1.674   2.679
  123SOPE   H2R13071   3.833   1.771   2.644
  123SOPE   H2S13072   3.973   1.694   2.715
  123SOPE    C313073   4.108   1.398   2.511
  123SOPE    HX13074   4.098   1.323   2.436
  123SOPE    HY13075   4.119   1.353   2.617
  123SOPE   O3113076   4.202   1.494   2.446
  123SOPE   C3113077   4.327   1.418   2.439
  123SOPE   O3213078   4.299   1.322   2.496
  123SOPE   C3213079   4.513   1.460   2.437
  123SOPE   H2X13080   4.469   1.536   2.364
  123SOPE   H2Y13081   4.570   1.447   2.349
  123SOPE   C2313082   3.797   1.603   2.787
  123SOPE   H3R13083   3.703   1.571   2.732
  123SOPE   H3S13084   3.796   1.681   2.868
  123SOPE   C2413085   3.800   1.483   2.872
  123SOPE   H4R13086   3.697   1.463   2.914
  123SOPE   H4S13087   3.823   1.404   2.801
  123SOPE   C2513088   3.895   1.514   2.984
  123SOPE   H5R13089   3.980   1.568   2.936
  123SOPE   H5S13090   3.855   1.585   3.060
  123SOPE   C2613091   3.933   1.381   3.040
  123SOPE   H6R13092   3.843   1.330   3.080
  123SOPE   H6S13093   3.971   1.319   2.955
  123SOPE   C2713094   4.041   1.402   3.144
  123SOPE   H7R13095   4.127   1.449   3.090
  123SOPE   H7S13096   4.003   1.475   3.219
  123SOPE   C2813097   4.084   1.277   3.221
  123SOPE   H8R13098   4.132   1.206   3.150
  123SOPE   H8S13099   4.161   1.311   3.293
  123SOPE   C2913100   3.967   1.213   3.291
  123SOPE   H9113101   3.890   1.170   3.225
  123SOPE  C21013102   3.940   1.214   3.423
  123SOPE  H10113103   3.850   1.159   3.456
  123SOPE  C21113104   4.018   1.278   3.534
  123SOPE  H11R13105   4.112   1.327   3.501
  123SOPE  H11S13106   4.048   1.199   3.607
  123SOPE  C21213107   3.933   1.378   3.613
  123SOPE  H12R13108   3.845   1.324   3.655
  123SOPE  H12S13109   3.891   1.462   3.553
  123SOPE  C21313110   4.013   1.435   3.731
  123SOPE  H13R13111   4.059   1.359   3.796
  123SOPE  H13S13112   3.930   1.467   3.792
  123SOPE  C21413113   4.116   1.545   3.693
  123SOPE  H14R13114   4.064   1.621   3.630
  123SOPE  H14S13115   4.200   1.499   3.640
  123SOPE  C21513116   4.195   1.614   3.807
  123SOPE  H15R13117   4.211   1.555   3.900
  123SOPE  H15S13118   4.118   1.684   3.822
  123SOPE  C21613119   4.259   1.753   3.793
  123SOPE  H16R13120   4.198   1.824   3.730
  123SOPE  H16S13121   4.348   1.722   3.737
  123SOPE  C21713122   4.293   1.827   3.927
  123SOPE  H17R13123   4.340   1.922   3.895
  123SOPE  H17S13124   4.366   1.760   3.978
  123SOPE  C21813125   4.197   1.875   4.038
  123SOPE  H18R13126   4.170   1.791   4.106
  123SOPE  H18S13127   4.105   1.921   3.997
  123SOPE  H18T13128   4.242   1.953   4.102
  123SOPE   C3313129   4.605   1.531   2.627
  123SOPE   H3X13130   4.662   1.514   2.548
  123SOPE   H3Y13131   4.705   1.560   2.659
  123SOPE   C3413132   4.473   1.653   2.761
  123SOPE   H4X13133   4.556   1.684   2.718
  123SOPE   H4Y13134   4.371   1.620   2.771
  123SOPE   C3513135   4.301   1.775   2.701
  123SOPE   H5X13136   4.243   1.792   2.604
  123SOPE   H5Y13137   4.369   1.828   2.640
  123SOPE   C3613138   4.242   1.923   2.727
  123SOPE   H6X13139   4.231   1.986   2.639
  123SOPE   H6Y13140   4.282   2.027   2.761
  123SOPE   C3713141   4.173   1.841   2.829
  123SOPE   H7X13142   4.226   1.755   2.884
  123SOPE   H7Y13143   4.113   1.774   2.772
  123SOPE   C3813144   4.142   1.932   2.934
  123SOPE   H8X13145   4.103   2.019   2.880
  123SOPE   H8Y13146   4.226   1.979   2.989
  123SOPE   C3913147   4.052   1.860   3.026
  123SOPE   H9X13148   4.098   1.770   3.076
  123SOPE   H9Y13149   3.970   1.821   2.961
  123SOPE  C31013150   4.022   1.970   3.125
  123SOPE  H10X13151   3.965   2.047   3.069
  123SOPE  H10Y13152   4.118   2.015   3.160
  123SOPE  C31113153   3.944   1.918   3.241
  123SOPE  H11X13154   3.897   1.831   3.195
  123SOPE  H11Y13155   3.869   1.996   3.268
  123SOPE  C31213156   4.026   1.872   3.363
  123SOPE  H12X13157   4.089   1.959   3.389
  123SOPE  H12Y13158   4.085   1.782   3.337
  123SOPE  C31313159   3.951   1.841   3.490
  123SOPE  H13X13160   4.007   1.870   3.582
  123SOPE  H13Y13161   3.926   1.732   3.497
  123SOPE  C31413162   3.829   1.926   3.501
  123SOPE  H14X13163   3.765   1.876   3.435
  123SOPE  H14Y13164   3.817   2.027   3.460
  123SOPE  C31513165   3.779   1.951   3.638
  123SOPE  H15X13166   3.691   2.014   3.640
  123SOPE  H15Y13167   3.849   1.965   3.720
  123SOPE  C31613168   3.743   1.843   3.705
  123SOPE  H16X13169   3.786   1.752   3.640
  123SOPE  H16Y13170   3.723   1.747   3.638
  123SOPE  C31713171   3.653   1.859   3.883
  123SOPE  H17X13172   3.551   1.799   3.929
  123SOPE  H17Y13173   3.589   1.940   3.883
  123SOPE  C31813174   3.612   1.737   3.997
  123SOPE  H18X13175   3.652   1.715   4.097
  123SOPE  H18Y13176   3.705   1.803   3.947
  123SOPE  H18Z13177   3.623   1.621   3.972
  124SOPE     N13178   5.118   5.336   1.896
  124SOPE   HN113179   5.200   5.400   1.899
  124SOPE   HN213180   5.122   5.275   1.811
  124SOPE   HN313181   5.032   5.394   1.897
  124SOPE   C1213182   5.126   5.252   2.020
  124SOPE  H12A13183   5.216   5.188   2.008
  124SOPE  H12B13184   5.040   5.183   2.024
  124SOPE   C1113185   5.143   5.340   2.145
  124SOPE  H11A13186   5.126   5.276   2.235
  124SOPE  H11B13187   5.066   5.420   2.152
  124SOPE     P13188   5.393   5.327   2.221
  124SOPE   O1313189   5.515   5.395   2.181
  124SOPE   O1413190   5.379   5.184   2.184
  124SOPE   O1213191   5.273   5.401   2.146
  124SOPE   O1113192   5.363   5.354   2.375
  124SOPE    C113193   5.357   5.491   2.417
  124SOPE    HA13194   5.268   5.538   2.370
  124SOPE    HB13195   5.447   5.549   2.384
  124SOPE    C213196   5.349   5.507   2.573
  124SOPE    HS13197   5.396   5.605   2.601
  124SOPE   O2113198   5.415   5.397   2.641
  124SOPE   C2113199   5.429   5.395   2.773
  124SOPE   O2213200   5.401   5.486   2.849
  124SOPE   C2213201   5.492   5.261   2.815
  124SOPE   H2R13202   5.583   5.245   2.754
  124SOPE   H2S13203   5.420   5.179   2.795
  124SOPE    C313204   5.201   5.517   2.613
  124SOPE    HX13205   5.156   5.608   2.567
  124SOPE    HY13206   5.205   5.522   2.723
  124SOPE   O3113207   5.131   5.398   2.581
  124SOPE   C3113208   5.009   5.396   2.539
  124SOPE   O3213209   4.930   5.486   2.521
  124SOPE   C3213210   4.968   5.256   2.511
  124SOPE   H2X13211   5.000   5.231   2.409
  124SOPE   H2Y13212   4.860   5.268   2.508
  124SOPE   C2313213   5.529   5.260   2.964
  124SOPE   H3R13214   5.440   5.250   3.030
  124SOPE   H3S13215   5.579   5.356   2.987
  124SOPE   C2413216   5.632   5.153   2.999
  124SOPE   H4R13217   5.606   5.049   2.971
  124SOPE   H4S13218   5.711   5.183   2.930
  124SOPE   C2513219   5.658   5.150   3.151
  124SOPE   H5R13220   5.688   5.244   3.197
  124SOPE   H5S13221   5.558   5.127   3.192
  124SOPE   C2613222   5.751   5.039   3.197
  124SOPE   H6R13223   5.715   4.942   3.159
  124SOPE   H6S13224   5.835   5.049   3.132
  124SOPE   C2713225   5.790   5.029   3.346
  124SOPE   H7R13226   5.847   4.933   3.353
  124SOPE   H7S13227   5.856   5.106   3.389
  124SOPE   C2813228   5.674   5.040   3.441
  124SOPE   H8R13229   5.694   5.050   3.549
  124SOPE   H8S13230   5.600   5.115   3.406
  124SOPE   C2913231   5.622   4.909   3.422
  124SOPE   H9113232   5.680   4.815   3.434
  124SOPE  C21013233   5.498   4.903   3.446
  124SOPE  H10113234   5.460   4.809   3.445
  124SOPE  C21113235   5.392   4.987   3.487
  124SOPE  H11R13236   5.343   4.950   3.397
  124SOPE  H11S13237   5.407   5.089   3.457
  124SOPE  C21213238   5.345   4.981   3.643
  124SOPE  H12R13239   5.283   5.069   3.644
  124SOPE  H12S13240   5.431   5.010   3.702
  124SOPE  C21313241   5.261   4.881   3.741
  124SOPE  H13R13242   5.302   4.784   3.743
  124SOPE  H13S13243   5.225   4.782   3.707
  124SOPE  C21413244   5.121   4.929   3.812
  124SOPE  H14R13245   5.149   4.991   3.892
  124SOPE  H14S13246   5.131   4.829   3.867
  124SOPE  C21513247   4.957   4.973   3.732
  124SOPE  H15R13248   4.909   4.929   3.643
  124SOPE  H15S13249   4.995   5.053   3.676
  124SOPE  C21613250   4.793   4.942   3.741
  124SOPE  H16R13251   4.770   4.842   3.699
  124SOPE  H16S13252   4.722   4.940   3.661
  124SOPE  C21713253   4.758   4.987   3.878
  124SOPE  H17R13254   4.708   5.085   3.872
  124SOPE  H17S13255   4.863   4.985   3.912
  124SOPE  C21813256   4.688   4.980   4.000
  124SOPE  H18R13257   4.708   4.889   4.047
  124SOPE  H18S13258   4.589   5.021   3.995
  124SOPE  H18T13259   4.715   5.041   4.088
  124SOPE   C3313260   5.019   5.157   2.618
  124SOPE   H3X13261   5.130   5.154   2.617
  124SOPE   H3Y13262   4.979   5.055   2.599
  124SOPE   C3413263   4.979   5.197   2.757
  124SOPE   H4X13264   4.896   5.127   2.786
  124SOPE   H4Y13265   4.944   5.302   2.771
  124SOPE   C3513266   5.059   5.144   2.867
  124SOPE   H5X13267   5.095   5.046   2.832
  124SOPE   H5Y13268   4.994   5.138   2.956
  124SOPE   C3613269   5.151   5.237   2.930
  124SOPE   H6X13270   5.202   5.285   2.846
  124SOPE   H6Y13271   5.215   5.173   2.996
  124SOPE   C3713272   5.086   5.347   3.011
  124SOPE   H7X13273   4.996   5.324   3.064
  124SOPE   H7Y13274   5.048   5.428   2.947
  124SOPE   C3813275   5.187   5.378   3.119
  124SOPE   H8X13276   5.282   5.399   3.065
  124SOPE   H8Y13277   5.199   5.296   3.191
  124SOPE   C3913278   5.145   5.496   3.196
  124SOPE   H9X13279   5.038   5.488   3.227
  124SOPE   H9Y13280   5.145   5.568   3.111
  124SOPE  C31013281   5.241   5.540   3.312
  124SOPE  H10X13282   5.204   5.618   3.383
  124SOPE  H10Y13283   5.334   5.581   3.272
  124SOPE  C31113284   5.271   5.444   3.423
  124SOPE  H11X13285   5.346   5.490   3.490
  124SOPE  H11Y13286   5.306   5.348   3.377
  124SOPE  C31213287   5.154   5.420   3.512
  124SOPE  H12X13288   5.124   5.342   3.441
  124SOPE  H12Y13289   5.070   5.493   3.522
  124SOPE  C31313290   5.189   5.345   3.638
  124SOPE  H13X13291   5.245   5.253   3.620
  124SOPE  H13Y13292   5.100   5.316   3.686
  124SOPE  C31413293   5.246   5.423   3.751
  124SOPE  H14X13294   5.167   5.496   3.774
  124SOPE  H14Y13295   5.332   5.478   3.710
  124SOPE  C31513296   5.290   5.340   3.875
  124SOPE  H15X13297   5.350   5.401   3.944
  124SOPE  H15Y13298   5.350   5.255   3.838
  124SOPE  C31613299   5.185   5.281   3.969
  124SOPE  H16X13300   5.217   5.196   4.030
  124SOPE  H16Y13301   5.131   5.234   3.889
  124SOPE  C31713302   5.107   5.382   4.064
  124SOPE  H17X13303   5.033   5.431   3.992
  124SOPE  H17Y13304   5.183   5.442   4.111
  124SOPE  C31813305   5.021   5.356   4.189
  124SOPE  H18X13306   4.928   5.363   4.138
  124SOPE  H18Y13307   4.954   5.424   4.242
  124SOPE  H18Z13308   5.033   5.258   4.232
  125SOPE     N13309   1.470   4.886   1.994
  125SOPE   HN113310   1.557   4.839   2.027
  125SOPE   HN213311   1.407   4.815   1.952
  125SOPE   HN313312   1.503   4.953   1.923
  125SOPE   C1213313   1.410   4.965   2.109
  125SOPE  H12A13314   1.342   4.900   2.166
  125SOPE  H12B13315   1.349   5.047   2.063
  125SOPE   C1113316   1.519   5.028   2.198
  125SOPE  H11A13317   1.529   4.971   2.294
  125SOPE  H11B13318   1.483   5.131   2.223
  125SOPE     P13319   1.767   5.120   2.174
  125SOPE   O1313320   1.713   5.254   2.208
  125SOPE   O1413321   1.868   5.107   2.069
  125SOPE   O1213322   1.643   5.033   2.128
  125SOPE   O1113323   1.810   5.046   2.307
  125SOPE    C113324   1.873   5.101   2.423
  125SOPE    HA13325   1.907   5.206   2.412
  125SOPE    HB13326   1.964   5.040   2.444
  125SOPE    C213327   1.783   5.103   2.550
  125SOPE    HS13328   1.846   5.116   2.639
  125SOPE   O2113329   1.716   4.984   2.564
  125SOPE   C2113330   1.797   4.887   2.580
  125SOPE   O2213331   1.916   4.883   2.605
  125SOPE   C2213332   1.715   4.776   2.558
  125SOPE   H2R13333   1.773   4.683   2.573
  125SOPE   H2S13334   1.706   4.793   2.448
  125SOPE    C313335   1.670   5.208   2.552
  125SOPE    HX13336   1.592   5.177   2.479
  125SOPE    HY13337   1.710   5.305   2.517
  125SOPE   O3113338   1.608   5.210   2.683
  125SOPE   C3113339   1.672   5.269   2.783
  125SOPE   O3213340   1.769   5.341   2.772
  125SOPE   C3213341   1.609   5.226   2.918
  125SOPE   H2X13342   1.606   5.314   2.987
  125SOPE   H2Y13343   1.677   5.152   2.965
  125SOPE   C2313344   1.590   4.787   2.646
  125SOPE   H3R13345   1.499   4.742   2.597
  125SOPE   H3S13346   1.535   4.878   2.676
  125SOPE   C2413347   1.640   4.751   2.787
  125SOPE   H4R13348   1.556   4.751   2.850
  125SOPE   H4S13349   1.667   4.653   2.813
  125SOPE   C2513350   1.784   4.759   2.832
  125SOPE   H5R13351   1.853   4.726   2.754
  125SOPE   H5S13352   1.770   4.856   2.882
  125SOPE   C2613353   1.852   4.668   2.926
  125SOPE   H6R13354   1.874   4.559   2.893
  125SOPE   H6S13355   1.933   4.706   2.989
  125SOPE   C2713356   1.764   4.661   3.026
  125SOPE   H7R13357   1.752   4.546   3.028
  125SOPE   H7S13358   1.808   4.561   3.061
  125SOPE   C2813359   1.670   4.787   3.116
  125SOPE   H8R13360   1.593   4.840   3.061
  125SOPE   H8S13361   1.581   4.756   3.182
  125SOPE   C2913362   1.733   4.873   3.218
  125SOPE   H9113363   1.827   4.892   3.172
  125SOPE  C21013364   1.707   4.906   3.345
  125SOPE  H10113365   1.800   4.925   3.400
  125SOPE  C21113366   1.590   4.864   3.431
  125SOPE  H11R13367   1.502   4.832   3.371
  125SOPE  H11S13368   1.562   4.958   3.481
  125SOPE  C21213369   1.601   4.757   3.539
  125SOPE  H12R13370   1.616   4.656   3.497
  125SOPE  H12S13371   1.506   4.750   3.596
  125SOPE  C21313372   1.702   4.795   3.644
  125SOPE  H13R13373   1.807   4.803   3.605
  125SOPE  H13S13374   1.694   4.711   3.717
  125SOPE  C21413375   1.667   4.923   3.713
  125SOPE  H14R13376   1.562   4.919   3.748
  125SOPE  H14S13377   1.695   5.009   3.650
  125SOPE  C21513378   1.742   4.934   3.839
  125SOPE  H15R13379   1.785   5.036   3.851
  125SOPE  H15S13380   1.829   4.871   3.815
  125SOPE  C21613381   1.652   4.891   3.959
  125SOPE  H16R13382   1.567   4.955   3.975
  125SOPE  H16S13383   1.690   4.916   4.056
  125SOPE  C21713384   1.632   4.743   3.977
  125SOPE  H17R13385   1.581   4.694   3.893
  125SOPE  H17S13386   1.610   4.703   4.080
  125SOPE  C21813387   1.756   4.681   3.970
  125SOPE  H18R13388   1.736   4.575   3.977
  125SOPE  H18S13389   1.817   4.698   4.062
  125SOPE  H18T13390   1.823   4.702   3.884
  125SOPE   C3313391   1.464   5.172   2.904
  125SOPE   H3X13392   1.467   5.075   2.849
  125SOPE   H3Y13393   1.408   5.245   2.842
  125SOPE   C3413394   1.380   5.165   3.034
  125SOPE   H4X13395   1.275   5.142   3.005
  125SOPE   H4Y13396   1.379   5.267   3.078
  125SOPE   C3513397   1.425   5.068   3.144
  125SOPE   H5X13398   1.531   5.092   3.170
  125SOPE   H5Y13399   1.422   4.963   3.109
  125SOPE   C3613400   1.343   5.077   3.275
  125SOPE   H6X13401   1.301   5.179   3.289
  125SOPE   H6Y13402   1.410   5.058   3.361
  125SOPE   C3713403   1.232   4.970   3.281
  125SOPE   H7X13404   1.278   4.869   3.274
  125SOPE   H7Y13405   1.168   4.983   3.191
  125SOPE   C3813406   1.143   4.982   3.405
  125SOPE   H8X13407   1.054   4.916   3.392
  125SOPE   H8Y13408   1.109   5.087   3.418
  125SOPE   C3913409   1.210   4.944   3.536
  125SOPE   H9X13410   1.296   5.011   3.560
  125SOPE   H9Y13411   1.246   4.839   3.531
  125SOPE  C31013412   1.119   4.970   3.654
  125SOPE  H10X13413   1.016   4.932   3.650
  125SOPE  H10Y13414   1.093   5.075   3.668
  125SOPE  C31113415   1.189   4.921   3.776
  125SOPE  H11X13416   1.294   4.949   3.795
  125SOPE  H11Y13417   1.216   4.814   3.751
  125SOPE  C31213418   1.096   4.956   3.898
  125SOPE  H12X13419   1.000   4.904   3.886
  125SOPE  H12Y13420   1.050   5.054   3.900
  125SOPE  C31313421   1.167   4.917   4.028
  125SOPE  H13X13422   1.266   4.958   4.048
  125SOPE  H13Y13423   1.200   4.838   3.966
  125SOPE  C31413424   1.099   4.863   4.161
  125SOPE  H14X13425   1.159   4.823   4.242
  125SOPE  H14Y13426   1.000   4.804   4.172
  125SOPE  C31513427   1.064   4.973   4.219
  125SOPE  H15X13428   1.008   4.941   4.311
  125SOPE  H15Y13429   0.996   4.985   4.127
  125SOPE  C31613430   1.166   5.080   4.241
  125SOPE  H16X13431   1.114   5.177   4.245
  125SOPE  H16Y13432   1.232   5.107   4.160
  125SOPE  C31713433   1.239   5.048   4.371
  125SOPE  H17X13434   1.180   4.985   4.444
  125SOPE  H17Y13435   1.263   5.143   4.419
  125SOPE  C31813436   1.367   4.986   4.339
  125SOPE  H18X13437   1.422   4.968   4.435
  125SOPE  H18Y13438   1.429   5.027   4.261
  125SOPE  H18Z13439   1.329   4.896   4.289
  126SOPE     N13440   3.008   0.971   2.105
  126SOPE   HN113441   3.055   0.919   2.183
  126SOPE   HN213442   3.038   0.926   2.020
  126SOPE   HN313443   3.051   1.063   2.132
  126SOPE   C1213444   2.868   0.975   2.160
  126SOPE  H12A13445   2.870   0.998   2.270
  126SOPE  H12B13446   2.826   0.874   2.151
  126SOPE   C1113447   2.804   1.086   2.084
  126SOPE  H11A13448   2.695   1.085   2.109
  126SOPE  H11B13449   2.813   1.063   1.976
  126SOPE     P13450   2.778   1.334   2.158
  126SOPE   O1313451   2.692   1.371   2.044
  126SOPE   O1413452   2.869   1.438   2.210
  126SOPE   O1213453   2.870   1.211   2.111
  126SOPE   O1113454   2.689   1.266   2.269
  126SOPE    C113455   2.737   1.217   2.393
  126SOPE    HA13456   2.847   1.232   2.403
  126SOPE    HB13457   2.717   1.108   2.398
  126SOPE    C213458   2.661   1.283   2.510
  126SOPE    HS13459   2.552   1.277   2.498
  126SOPE   O2113460   2.704   1.419   2.515
  126SOPE   C2113461   2.647   1.498   2.598
  126SOPE   O2213462   2.556   1.469   2.676
  126SOPE   C2213463   2.721   1.627   2.584
  126SOPE   H2R13464   2.714   1.670   2.483
  126SOPE   H2S13465   2.829   1.609   2.609
  126SOPE    C313466   2.694   1.210   2.637
  126SOPE    HX13467   2.694   1.100   2.621
  126SOPE    HY13468   2.625   1.236   2.722
  126SOPE   O3113469   2.825   1.252   2.657
  126SOPE   C3113470   2.853   1.216   2.761
  126SOPE   O3213471   2.788   1.148   2.846
  126SOPE   C3213472   3.010   1.258   2.759
  126SOPE   H2X13473   3.039   1.361   2.773
  126SOPE   H2Y13474   3.086   1.185   2.734
  126SOPE   C2313475   2.656   1.715   2.686
  126SOPE   H3R13476   2.548   1.731   2.679
  126SOPE   H3S13477   2.699   1.816   2.667
  126SOPE   C2413478   2.702   1.647   2.815
  126SOPE   H4R13479   2.777   1.569   2.823
  126SOPE   H4S13480   2.788   1.706   2.782
  126SOPE   C2513481   2.625   1.664   2.953
  126SOPE   H5R13482   2.598   1.768   2.967
  126SOPE   H5S13483   2.529   1.619   2.926
  126SOPE   C2613484   2.686   1.608   3.093
  126SOPE   H6R13485   2.651   1.505   3.090
  126SOPE   H6S13486   2.794   1.618   3.102
  126SOPE   C2713487   2.676   1.666   3.241
  126SOPE   H7R13488   2.702   1.768   3.250
  126SOPE   H7S13489   2.576   1.699   3.229
  126SOPE   C2813490   2.742   1.610   3.380
  126SOPE   H8R13491   2.832   1.671   3.382
  126SOPE   H8S13492   2.723   1.596   3.494
  126SOPE   C2913493   2.691   1.483   3.332
  126SOPE   H9113494   2.596   1.474   3.292
  126SOPE  C21013495   2.742   1.374   3.328
  126SOPE  H10113496   2.666   1.301   3.356
  126SOPE  C21113497   2.872   1.393   3.385
  126SOPE  H11R13498   2.931   1.473   3.332
  126SOPE  H11S13499   2.898   1.301   3.345
  126SOPE  C21213500   2.891   1.401   3.536
  126SOPE  H12R13501   2.874   1.502   3.576
  126SOPE  H12S13502   2.999   1.387   3.550
  126SOPE  C21313503   2.811   1.297   3.616
  126SOPE  H13R13504   2.838   1.196   3.579
  126SOPE  H13S13505   2.701   1.307   3.604
  126SOPE  C21413506   2.847   1.305   3.764
  126SOPE  H14R13507   2.821   1.402   3.812
  126SOPE  H14S13508   2.957   1.289   3.772
  126SOPE  C21513509   2.778   1.196   3.840
  126SOPE  H15R13510   2.771   1.106   3.773
  126SOPE  H15S13511   2.675   1.221   3.874
  126SOPE  C21613512   2.865   1.151   3.955
  126SOPE  H16R13513   2.952   1.109   3.898
  126SOPE  H16S13514   2.801   1.078   4.012
  126SOPE  C21713515   2.937   1.232   4.058
  126SOPE  H17R13516   2.871   1.315   4.090
  126SOPE  H17S13517   3.035   1.266   4.018
  126SOPE  C21813518   2.981   1.142   4.174
  126SOPE  H18R13519   3.059   1.070   4.147
  126SOPE  H18S13520   2.895   1.081   4.210
  126SOPE  H18T13521   3.026   1.204   4.253
  126SOPE   C3313522   3.069   1.241   2.886
  126SOPE   H3X13523   2.992   1.166   2.907
  126SOPE   H3Y13524   2.998   1.288   2.954
  126SOPE   C3413525   3.238   1.218   2.931
  126SOPE   H4X13526   3.282   1.315   2.923
  126SOPE   H4Y13527   3.297   1.124   2.918
  126SOPE   C3513528   3.308   1.232   3.090
  126SOPE   H5X13529   3.360   1.180   3.174
  126SOPE   H5Y13530   3.299   1.138   3.149
  126SOPE   C3613531   3.270   1.368   3.157
  126SOPE   H6X13532   3.173   1.401   3.189
  126SOPE   H6Y13533   3.292   1.438   3.079
  126SOPE   C3713534   3.310   1.396   3.301
  126SOPE   H7X13535   3.408   1.410   3.274
  126SOPE   H7Y13536   3.295   1.315   3.369
  126SOPE   C3813537   3.258   1.508   3.391
  126SOPE   H8X13538   3.150   1.506   3.411
  126SOPE   H8Y13539   3.293   1.593   3.339
  126SOPE   C3913540   3.312   1.505   3.531
  126SOPE   H9X13541   3.418   1.496   3.556
  126SOPE   H9Y13542   3.242   1.451   3.588
  126SOPE  C31013543   3.328   1.600   3.636
  126SOPE  H10X13544   3.388   1.663   3.595
  126SOPE  H10Y13545   3.383   1.554   3.723
  126SOPE  C31113546   3.238   1.707   3.635
  126SOPE  H11X13547   3.207   1.713   3.529
  126SOPE  H11Y13548   3.255   1.811   3.662
  126SOPE  C31213549   3.183   1.651   3.754
  126SOPE  H12X13550   3.260   1.638   3.836
  126SOPE  H12Y13551   3.141   1.553   3.721
  126SOPE  C31313552   3.081   1.745   3.787
  126SOPE  H13X13553   3.027   1.771   3.693
  126SOPE  H13Y13554   3.126   1.841   3.825
  126SOPE  C31413555   3.003   1.665   3.886
  126SOPE  H14X13556   3.065   1.637   3.972
  126SOPE  H14Y13557   2.955   1.574   3.842
  126SOPE  C31513558   2.901   1.757   3.929
  126SOPE  H15X13559   2.861   1.762   3.824
  126SOPE  H15Y13560   2.953   1.852   3.951
  126SOPE  C31613561   2.807   1.708   4.041
  126SOPE  H16X13562   2.806   1.598   4.032
  126SOPE  H16Y13563   2.699   1.736   4.037
  126SOPE  C31713564   2.855   1.764   4.175
  126SOPE  H17X13565   2.789   1.715   4.251
  126SOPE  H17Y13566   2.835   1.871   4.189
  126SOPE  C31813567   3.006   1.744   4.189
  126SOPE  H18X13568   3.013   1.636   4.159
  126SOPE  H18Y13569   3.044   1.762   4.292
  126SOPE  H18Z13570   3.082   1.785   4.124
  127SOPE     N13571   6.389   2.380   1.952
  127SOPE   HN113572   6.491   2.373   1.934
  127SOPE   HN213573   6.345   2.443   1.882
  127SOPE   HN313574   6.375   2.421   2.047
  127SOPE   C1213575   6.324   2.244   1.940
  127SOPE  H12A13576   6.370   2.192   1.853
  127SOPE  H12B13577   6.216   2.262   1.918
  127SOPE   C1113578   6.336   2.157   2.068
  127SOPE  H11A13579   6.435   2.108   2.071
  127SOPE  H11B13580   6.262   2.074   2.060
  127SOPE     P13581   6.168   2.259   2.240
  127SOPE   O1313582   6.078   2.210   2.133
  127SOPE   O1413583   6.153   2.396   2.291
  127SOPE   O1213584   6.319   2.233   2.189
  127SOPE   O1113585   6.158   2.167   2.363
  127SOPE    C113586   6.184   2.032   2.388
  127SOPE    HA13587   6.293   2.016   2.386
  127SOPE    HB13588   6.132   1.965   2.315
  127SOPE    C213589   6.128   1.995   2.527
  127SOPE    HS13590   6.089   1.893   2.524
  127SOPE   O2113591   6.022   2.089   2.557
  127SOPE   C2113592   5.952   2.065   2.662
  127SOPE   O2213593   5.987   1.999   2.758
  127SOPE   C2213594   5.824   2.142   2.661
  127SOPE   H2R13595   5.744   2.100   2.727
  127SOPE   H2S13596   5.788   2.152   2.558
  127SOPE    C313597   6.247   1.995   2.630
  127SOPE    HX13598   6.325   1.937   2.575
  127SOPE    HY13599   6.223   1.936   2.721
  127SOPE   O3113600   6.288   2.126   2.673
  127SOPE   C3113601   6.417   2.154   2.662
  127SOPE   O3213602   6.498   2.096   2.593
  127SOPE   C3213603   6.441   2.284   2.735
  127SOPE   H2X13604   6.349   2.313   2.790
  127SOPE   H2Y13605   6.458   2.355   2.652
  127SOPE   C2313606   5.867   2.275   2.704
  127SOPE   H3R13607   5.790   2.355   2.692
  127SOPE   H3S13608   5.963   2.308   2.655
  127SOPE   C2413609   5.907   2.276   2.841
  127SOPE   H4R13610   5.808   2.251   2.900
  127SOPE   H4S13611   5.980   2.203   2.887
  127SOPE   C2513612   5.981   2.424   2.823
  127SOPE   H5R13613   5.926   2.520   2.830
  127SOPE   H5S13614   5.937   2.378   2.889
  127SOPE   C2613615   6.106   2.462   2.903
  127SOPE   H6R13616   6.154   2.390   2.970
  127SOPE   H6S13617   6.153   2.474   2.805
  127SOPE   C2713618   6.114   2.596   2.974
  127SOPE   H7R13619   6.221   2.622   2.983
  127SOPE   H7S13620   6.068   2.664   2.900
  127SOPE   C2813621   6.062   2.617   3.118
  127SOPE   H8R13622   6.088   2.719   3.132
  127SOPE   H8S13623   5.954   2.628   3.128
  127SOPE   C2913624   6.118   2.566   3.246
  127SOPE   H9113625   6.225   2.557   3.239
  127SOPE  C21013626   6.049   2.530   3.359
  127SOPE  H10113627   6.101   2.491   3.444
  127SOPE  C21113628   5.900   2.530   3.388
  127SOPE  H11R13629   5.866   2.426   3.408
  127SOPE  H11S13630   5.844   2.542   3.295
  127SOPE  C21213631   5.835   2.577   3.510
  127SOPE  H12R13632   5.728   2.567   3.516
  127SOPE  H12S13633   5.838   2.680   3.509
  127SOPE  C21313634   5.897   2.511   3.625
  127SOPE  H13R13635   6.003   2.542   3.622
  127SOPE  H13S13636   5.888   2.401   3.608
  127SOPE  C21413637   5.839   2.557   3.754
  127SOPE  H14R13638   5.730   2.533   3.758
  127SOPE  H14S13639   5.843   2.668   3.758
  127SOPE  C21513640   5.939   2.507   3.862
  127SOPE  H15R13641   5.921   2.558   3.960
  127SOPE  H15S13642   6.041   2.509   3.823
  127SOPE  C21613643   5.944   2.357   3.879
  127SOPE  H16R13644   5.907   2.310   3.785
  127SOPE  H16S13645   5.852   2.391   3.910
  127SOPE  C21713646   5.984   2.272   4.012
  127SOPE  H17R13647   5.984   2.335   4.104
  127SOPE  H17S13648   6.081   2.244   3.972
  127SOPE  C21813649   5.942   2.128   4.062
  127SOPE  H18R13650   5.931   2.049   3.988
  127SOPE  H18S13651   5.840   2.134   4.107
  127SOPE  H18T13652   6.006   2.077   4.134
  127SOPE   C3313653   6.561   2.291   2.829
  127SOPE   H3X13654   6.654   2.314   2.770
  127SOPE   H3Y13655   6.585   2.200   2.887
  127SOPE   C3413656   6.528   2.405   2.924
  127SOPE   H4X13657   6.444   2.380   2.991
  127SOPE   H4Y13658   6.501   2.496   2.864
  127SOPE   C3513659   6.645   2.438   3.008
  127SOPE   H5X13660   6.723   2.444   2.929
  127SOPE   H5Y13661   6.679   2.361   3.079
  127SOPE   C3613662   6.613   2.567   3.080
  127SOPE   H6X13663   6.577   2.647   3.013
  127SOPE   H6Y13664   6.701   2.605   3.119
  127SOPE   C3713665   6.527   2.556   3.205
  127SOPE   H7X13666   6.426   2.526   3.169
  127SOPE   H7Y13667   6.523   2.659   3.248
  127SOPE   C3813668   6.578   2.458   3.311
  127SOPE   H8X13669   6.683   2.425   3.294
  127SOPE   H8Y13670   6.511   2.369   3.304
  127SOPE   C3913671   6.561   2.511   3.454
  127SOPE   H9X13672   6.461   2.558   3.455
  127SOPE   H9Y13673   6.638   2.586   3.484
  127SOPE  C31013674   6.572   2.397   3.555
  127SOPE  H10X13675   6.673   2.353   3.539
  127SOPE  H10Y13676   6.493   2.321   3.534
  127SOPE  C31113677   6.563   2.437   3.702
  127SOPE  H11X13678   6.648   2.504   3.728
  127SOPE  H11Y13679   6.577   2.344   3.762
  127SOPE  C31213680   6.429   2.503   3.737
  127SOPE  H12X13681   6.344   2.440   3.704
  127SOPE  H12Y13682   6.423   2.600   3.683
  127SOPE  C31313683   6.414   2.529   3.886
  127SOPE  H13X13684   6.393   2.435   3.942
  127SOPE  H13Y13685   6.331   2.602   3.903
  127SOPE  C31413686   6.543   2.583   3.946
  127SOPE  H14X13687   6.571   2.651   3.872
  127SOPE  H14Y13688   6.618   2.503   3.966
  127SOPE  C31513689   6.536   2.669   4.065
  127SOPE  H15X13690   6.471   2.760   4.049
  127SOPE  H15Y13691   6.631   2.700   4.110
  127SOPE  C31613692   6.480   2.577   4.163
  127SOPE  H16X13693   6.384   2.541   4.121
  127SOPE  H16Y13694   6.491   2.657   4.238
  127SOPE  C31713695   6.535   2.481   4.262
  127SOPE  H17X13696   6.631   2.522   4.299
  127SOPE  H17Y13697   6.538   2.389   4.201
  127SOPE  C31813698   6.443   2.465   4.383
  127SOPE  H18X13699   6.489   2.421   4.469
  127SOPE  H18Y13700   6.347   2.415   4.355
  127SOPE  H18Z13701   6.417   2.554   4.443
  128SOPE     N13702   0.260   1.729   2.058
  128SOPE   HN113703   0.225   1.687   2.147
  128SOPE   HN213704   0.189   1.715   1.984
  128SOPE   HN313705   0.350   1.683   2.032
  128SOPE   C1213706   0.283   1.876   2.074
  128SOPE  H12A13707   0.184   1.924   2.082
  128SOPE  H12B13708   0.330   1.912   1.981
  128SOPE   C1113709   0.378   1.908   2.189
  128SOPE  H11A13710   0.357   1.847   2.280
  128SOPE  H11B13711   0.369   2.015   2.219
  128SOPE     P13712   0.613   1.782   2.174
  128SOPE   O1313713   0.692   1.824   2.291
  128SOPE   O1413714   0.676   1.736   2.049
  128SOPE   O1213715   0.509   1.893   2.138
  128SOPE   O1113716   0.518   1.661   2.213
  128SOPE    C113717   0.584   1.533   2.219
  128SOPE    HA13718   0.644   1.502   2.131
  128SOPE    HB13719   0.504   1.456   2.220
  128SOPE    C213720   0.663   1.505   2.354
  128SOPE    HS13721   0.651   1.395   2.377
  128SOPE   O2113722   0.620   1.587   2.465
  128SOPE   C2113723   0.498   1.557   2.485
  128SOPE   O2213724   0.439   1.471   2.421
  128SOPE   C2213725   0.438   1.652   2.598
  128SOPE   H2R13726   0.355   1.705   2.547
  128SOPE   H2S13727   0.520   1.720   2.624
  128SOPE    C313728   0.813   1.525   2.344
  128SOPE    HX13729   0.835   1.629   2.309
  128SOPE    HY13730   0.851   1.454   2.269
  128SOPE   O3113731   0.870   1.493   2.470
  128SOPE   C3113732   0.924   1.591   2.542
  128SOPE   O3213733   0.963   1.699   2.504
  128SOPE   C3213734   0.937   1.536   2.683
  128SOPE   H2X13735   1.032   1.479   2.685
  128SOPE   H2Y13736   0.852   1.465   2.685
  128SOPE   C2313737   0.409   1.610   2.749
  128SOPE   H3R13738   0.459   1.522   2.790
  128SOPE   H3S13739   0.317   1.566   2.742
  128SOPE   C2413740   0.327   1.694   2.851
  128SOPE   H4R13741   0.401   1.763   2.889
  128SOPE   H4S13742   0.257   1.757   2.796
  128SOPE   C2513743   0.263   1.612   2.969
  128SOPE   H5R13744   0.184   1.536   2.963
  128SOPE   H5S13745   0.343   1.543   2.998
  128SOPE   C2613746   0.205   1.700   3.080
  128SOPE   H6R13747   0.271   1.785   3.095
  128SOPE   H6S13748   0.107   1.748   3.057
  128SOPE   C2713749   0.181   1.616   3.205
  128SOPE   H7R13750   0.107   1.668   3.268
  128SOPE   H7S13751   0.141   1.516   3.177
  128SOPE   C2813752   0.314   1.597   3.274
  128SOPE   H8R13753   0.387   1.559   3.203
  128SOPE   H8S13754   0.344   1.700   3.303
  128SOPE   C2913755   0.315   1.500   3.387
  128SOPE   H9113756   0.314   1.392   3.370
  128SOPE  C21013757   0.303   1.541   3.508
  128SOPE  H10113758   0.254   1.468   3.576
  128SOPE  C21113759   0.285   1.690   3.531
  128SOPE  H11R13760   0.212   1.711   3.602
  128SOPE  H11S13761   0.213   1.749   3.469
  128SOPE  C21213762   0.392   1.754   3.606
  128SOPE  H12R13763   0.471   1.752   3.531
  128SOPE  H12S13764   0.416   1.706   3.704
  128SOPE  C21313765   0.343   1.889   3.631
  128SOPE  H13R13766   0.306   1.924   3.533
  128SOPE  H13S13767   0.417   1.962   3.653
  128SOPE  C21413768   0.237   1.899   3.736
  128SOPE  H14R13769   0.131   1.870   3.710
  128SOPE  H14S13770   0.257   2.004   3.727
  128SOPE  C21513771   0.254   1.886   3.884
  128SOPE  H15R13772   0.323   1.961   3.915
  128SOPE  H15S13773   0.294   1.788   3.896
  128SOPE  C21613774   0.128   1.907   3.964
  128SOPE  H16R13775   0.032   1.880   3.914
  128SOPE  H16S13776   0.144   2.017   3.976
  128SOPE  C21713777   0.126   1.865   4.109
  128SOPE  H17R13778   0.190   1.775   4.111
  128SOPE  H17S13779   0.021   1.837   4.136
  128SOPE  C21813780   0.173   1.981   4.199
  128SOPE  H18R13781   0.130   2.079   4.169
  128SOPE  H18S13782   0.282   1.992   4.193
  128SOPE  H18T13783   0.143   1.966   4.304
  128SOPE   C3313784   0.940   1.632   2.807
  128SOPE   H3X13785   1.001   1.720   2.782
  128SOPE   H3Y13786   0.993   1.582   2.891
  128SOPE   C3413787   0.804   1.674   2.867
  128SOPE   H4X13788   0.753   1.589   2.911
  128SOPE   H4Y13789   0.739   1.710   2.785
  128SOPE   C3513790   0.804   1.774   2.985
  128SOPE   H5X13791   0.862   1.865   2.957
  128SOPE   H5Y13792   0.853   1.730   3.075
  128SOPE   C3613793   0.660   1.811   3.025
  128SOPE   H6X13794   0.603   1.717   3.047
  128SOPE   H6Y13795   0.610   1.858   2.937
  128SOPE   C3713796   0.645   1.904   3.146
  128SOPE   H7X13797   0.691   2.004   3.127
  128SOPE   H7Y13798   0.696   1.858   3.235
  128SOPE   C3813799   0.500   1.925   3.187
  128SOPE   H8X13800   0.450   1.827   3.194
  128SOPE   H8Y13801   0.445   1.985   3.110
  128SOPE   C3913802   0.488   1.990   3.323
  128SOPE   H9X13803   0.549   1.932   3.397
  128SOPE   H9Y13804   0.383   1.981   3.357
  128SOPE  C31013805   0.522   2.139   3.328
  128SOPE  H10X13806   0.445   2.200   3.280
  128SOPE  H10Y13807   0.621   2.166   3.284
  128SOPE  C31113808   0.517   2.176   3.472
  128SOPE  H11X13809   0.446   2.117   3.532
  128SOPE  H11Y13810   0.492   2.281   3.498
  128SOPE  C31213811   0.636   2.145   3.530
  128SOPE  H12X13812   0.717   2.194   3.472
  128SOPE  H12Y13813   0.660   2.040   3.514
  128SOPE  C31313814   0.603   2.154   3.679
  128SOPE  H13X13815   0.524   2.218   3.714
  128SOPE  H13Y13816   0.678   2.231   3.710
  128SOPE  C31413817   0.598   2.007   3.758
  128SOPE  H14X13818   0.702   2.012   3.735
  128SOPE  H14Y13819   0.599   1.910   3.709
  128SOPE  C31513820   0.552   1.982   3.921
  128SOPE  H15X13821   0.471   2.052   3.916
  128SOPE  H15Y13822   0.551   2.074   3.983
  128SOPE  C31613823   0.629   1.945   4.062
  128SOPE  H16X13824   0.721   1.993   4.109
  128SOPE  H16Y13825   0.667   1.842   4.061
  128SOPE  C31713826   0.528   1.980   4.165
  128SOPE  H17X13827   0.447   1.924   4.117
  128SOPE  H17Y13828   0.510   2.089   4.184
  128SOPE  C31813829   0.558   1.921   4.289
  128SOPE  H18X13830   0.470   1.888   4.348
  128SOPE  H18Y13831   0.636   1.964   4.341
  128SOPE  H18Z13832   0.623   1.841   4.260
  129OSM      N13833   2.457   4.833   6.472
  129OSM    C1513834   2.493   4.704   6.406
  129OSM   H15A13835   2.594   4.712   6.363
  129OSM   H15B13836   2.428   4.682   6.322
  129OSM   H15C13837   2.490   4.625   6.479
  129OSM    C1413838   2.338   4.812   6.558
  129OSM   H14A13839   2.353   4.739   6.635
  129OSM   H14B13840   2.255   4.784   6.495
  129OSM   H14C13841   2.304   4.905   6.604
  129OSM    C1313842   2.568   4.873   6.564
  129OSM   H13A13843   2.660   4.890   6.509
  129OSM   H13B13844   2.584   4.794   6.636
  129OSM   H13C13845   2.543   4.964   6.618
  129OSM    C1213846   2.429   4.940   6.366
  129OSM   H12A13847   2.369   5.020   6.408
  129OSM   H12B13848   2.364   4.894   6.292
  129OSM    C1113849   2.550   5.000   6.290
  129OSM   H11A13850   2.609   5.064   6.360
  129OSM   H11B13851   2.514   5.070   6.210
  129OSM      P13852   2.781   4.874   6.249
  129OSM    O1313853   2.820   4.925   6.382
  129OSM    O1413854   2.811   4.733   6.219
  129OSM    O1113855   2.835   4.961   6.127
  129OSM    O1213856   2.625   4.894   6.232
  129OSM    C1S13857   2.769   4.947   6.000
  129OSM    H1S13858   2.660   4.929   6.012
  129OSM    H1T13859   2.822   4.870   5.943
  129OSM     NF13860   2.719   5.027   5.774
  129OSM    HNF13861   2.784   5.041   5.701
  129OSM    C2S13862   2.767   5.064   5.898
  129OSM    H2S13863   2.702   5.137   5.950
  129OSM    C3S13864   2.894   5.121   5.862
  129OSM    H3S13865   2.975   5.046   5.857
  129OSM     O313866   2.903   5.220   5.944
  129OSM    HO313867   2.913   5.174   6.027
  129OSM    C4S13868   2.912   5.238   5.774
  129OSM    H4S13869   2.918   5.347   5.797
  129OSM    C5S13870   2.963   5.230   5.662
  129OSM    H5S13871   2.947   5.130   5.638
  129OSM    C6S13872   2.994   5.332   5.560
  129OSM    H6S13873   3.057   5.423   5.556
  129OSM    H6T13874   2.956   5.406   5.620
  129OSM    C7S13875   2.977   5.291   5.420
  129OSM    H7S13876   3.039   5.214   5.407
  129OSM    H7T13877   3.052   5.321   5.344
  129OSM    C8S13878   2.841   5.249   5.372
  129OSM    H8S13879   2.779   5.331   5.336
  129OSM    H8T13880   2.771   5.209   5.444
  129OSM    C9S13881   2.821   5.268   5.230
  129OSM    H9S13882   2.918   5.221   5.233
  129OSM    H9T13883   2.875   5.338   5.164
  129OSM   C10S13884   2.676   5.212   5.197
  129OSM   H10S13885   2.627   5.305   5.206
  129OSM   H10T13886   2.637   5.143   5.273
  129OSM   C11S13887   2.638   5.159   5.057
  129OSM   H11S13888   2.662   5.050   5.040
  129OSM   H11T13889   2.710   5.227   5.007
  129OSM   C12S13890   2.509   5.157   4.989
  129OSM   H12S13891   2.498   5.264   4.962
  129OSM   H12T13892   2.446   5.109   5.065
  129OSM   C13S13893   2.496   5.062   4.872
  129OSM   H13S13894   2.553   4.968   4.876
  129OSM   H13T13895   2.552   5.096   4.793
  129OSM   C14S13896   2.361   5.077   4.804
  129OSM   H14S13897   2.334   5.186   4.815
  129OSM   H14T13898   2.298   5.014   4.867
  129OSM   C15S13899   2.354   5.048   4.653
  129OSM   H15S13900   2.442   5.076   4.591
  129OSM   H15T13901   2.269   5.102   4.608
  129OSM   C16S13902   2.335   4.903   4.630
  129OSM   H16S13903   2.225   4.885   4.629
  129OSM   H16T13904   2.379   4.844   4.713
  129OSM   C17S13905   2.398   4.863   4.499
  129OSM   H17S13906   2.336   4.777   4.479
  129OSM   H17T13907   2.504   4.833   4.507
  129OSM   C18S13908   2.378   4.942   4.372
  129OSM   H18S13909   2.435   5.034   4.362
  129OSM   H18T13910   2.270   4.958   4.350
  129OSM   H18U13911   2.427   4.877   4.297
  129OSM    C1F13912   2.593   5.016   5.756
  129OSM     OF13913   2.514   5.031   5.849
  129OSM    C2F13914   2.554   4.997   5.614
  129OSM    H2F13915   2.638   4.953   5.558
  129OSM    H2G13916   2.528   5.097   5.571
  129OSM    C3F13917   2.438   4.899   5.609
  129OSM    H3F13918   2.375   4.905   5.518
  129OSM    H3G13919   2.383   4.927   5.698
  129OSM    C4F13920   2.440   4.763   5.674
  129OSM    H4F13921   2.339   4.719   5.657
  129OSM    H4G13922   2.453   4.772   5.786
  129OSM    C5F13923   2.546   4.682   5.611
  129OSM    H5F13924   2.551   4.587   5.669
  129OSM    H5G13925   2.640   4.740   5.620
  129OSM    C6F13926   2.524   4.664   5.462
  129OSM    H6F13927   2.503   4.759   5.409
  129OSM    H6G13928   2.437   4.597   5.455
  129OSM    C7F13929   2.642   4.596   5.395
  129OSM    H7F13930   2.659   4.503   5.454
  129OSM    H7G13931   2.731   4.662   5.405
  129OSM    C8F13932   2.617   4.565   5.248
  129OSM    H8F13933   2.574   4.653   5.195
  129OSM    H8G13934   2.544   4.483   5.243
  129OSM    C9F13935   2.713   4.502   5.159
  129OSM    H9F13936   2.762   4.411   5.200
  129OSM   C10F13937   2.778   4.576   5.073
  129OSM   H10F13938   2.862   4.532   5.025
  129OSM   C11F13939   2.779   4.723   5.048
  129OSM   H11F13940   2.885   4.757   5.044
  129OSM   H11G13941   2.739   4.784   5.130
  129OSM   C12F13942   2.709   4.740   4.918
  129OSM   H12F13943   2.713   4.849   4.894
  129OSM   H12G13944   2.609   4.695   4.915
  129OSM   C13F13945   2.780   4.677   4.804
  129OSM   H13F13946   2.811   4.571   4.821
  129OSM   H13G13947   2.867   4.746   4.803
  129OSM   C14F13948   2.693   4.693   4.680
  129OSM   H14F13949   2.664   4.799   4.671
  129OSM   H14G13950   2.620   4.610   4.675
  129OSM   C15F13951   2.757   4.686   4.548
  129OSM   H15F13952   2.788   4.580   4.564
  129OSM   H15G13953   2.841   4.762   4.546
  129OSM   C16F13954   2.684   4.680   4.411
  129OSM   H16F13955   2.602   4.610   4.426
  129OSM   H16G13956   2.718   4.615   4.327
  129OSM   C17F13957   2.703   4.809   4.327
  129OSM   H17F13958   2.663   4.885   4.396
  129OSM   H17G13959   2.641   4.789   4.238
  129OSM   C18F13960   2.840   4.870   4.276
  129OSM   H18F13961   2.905   4.800   4.218
  129OSM   H18G13962   2.905   4.904   4.360
  129OSM   H18H13963   2.818   4.954   4.209
  130OSM      N13964   3.608   5.487   6.263
  130OSM    C1513965   3.543   5.520   6.391
  130OSM   H15A13966   3.451   5.465   6.399
  130OSM   H15B13967   3.527   5.627   6.402
  130OSM   H15C13968   3.607   5.483   6.472
  130OSM    C1413969   3.528   5.537   6.149
  130OSM   H14A13970   3.458   5.459   6.118
  130OSM   H14B13971   3.589   5.562   6.063
  130OSM   H14C13972   3.474   5.625   6.178
  130OSM    C1313973   3.746   5.547   6.261
  130OSM   H13A13974   3.817   5.481   6.312
  130OSM   H13B13975   3.750   5.640   6.317
  130OSM   H13C13976   3.781   5.562   6.161
  130OSM    C1213977   3.617   5.334   6.254
  130OSM   H12A13978   3.687   5.307   6.176
  130OSM   H12B13979   3.520   5.294   6.227
  130OSM    C1113980   3.655   5.256   6.382
  130OSM   H11A13981   3.667   5.148   6.352
  130OSM   H11B13982   3.571   5.256   6.455
  130OSM      P13983   3.913   5.241   6.439
  130OSM    O1313984   4.011   5.331   6.501
  130OSM    O1413985   3.903   5.102   6.489
  130OSM    O1113986   3.930   5.238   6.282
  130OSM    O1213987   3.770   5.311   6.446
  130OSM    C1S13988   4.038   5.304   6.217
  130OSM    H1S13989   4.135   5.287   6.269
  130OSM    H1T13990   4.019   5.412   6.208
  130OSM     NF13991   3.934   5.300   5.994
  130OSM    HNF13992   3.862   5.234   5.984
  130OSM    C2S13993   4.045   5.250   6.074
  130OSM    H2S13994   4.143   5.283   6.030
  130OSM    C3S13995   4.042   5.100   6.077
  130OSM    H3S13996   3.951   5.057   6.124
  130OSM     O313997   4.157   5.047   6.144
  130OSM    HO313998   4.195   5.119   6.195
  130OSM    C4S13999   4.039   5.057   5.935
  130OSM    H4S14000   4.139   5.076   5.892
  130OSM    C5S14001   3.940   4.984   5.872
  130OSM    H5S14002   3.863   4.936   5.931
  130OSM    C6S14003   3.931   4.932   5.730
  130OSM    H6S14004   3.900   4.825   5.718
  130OSM    H6T14005   4.026   4.918   5.685
  130OSM    C7S14006   3.904   5.021   5.618
  130OSM    H7S14007   3.921   4.960   5.526
  130OSM    H7T14008   3.973   5.110   5.625
  130OSM    C8S14009   3.765   5.052   5.625
  130OSM    H8S14010   3.759   5.111   5.719
  130OSM    H8T14011   3.717   4.952   5.636
  130OSM    C9S14012   3.735   5.121   5.496
  130OSM    H9S14013   3.825   5.171   5.451
  130OSM    H9T14014   3.661   5.199   5.523
  130OSM   C10S14015   3.684   5.017   5.396
  130OSM   H10S14016   3.593   4.971   5.441
  130OSM   H10T14017   3.762   4.938   5.384
  130OSM   C11S14018   3.661   5.071   5.255
  130OSM   H11S14019   3.608   5.169   5.260
  130OSM   H11T14020   3.598   5.001   5.197
  130OSM   C12S14021   3.791   5.083   5.175
  130OSM   H12S14022   3.837   4.982   5.168
  130OSM   H12T14023   3.865   5.144   5.232
  130OSM   C13S14024   3.761   5.139   5.033
  130OSM   H13S14025   3.714   5.238   5.038
  130OSM   H13T14026   3.699   5.065   4.979
  130OSM   C14S14027   3.882   5.152   4.943
  130OSM   H14S14028   3.922   5.051   4.964
  130OSM   H14T14029   3.944   5.239   4.976
  130OSM   C15S14030   3.878   5.142   4.793
  130OSM   H15S14031   3.826   5.048   4.765
  130OSM   H15T14032   3.979   5.130   4.753
  130OSM   C16S14033   3.826   5.271   4.737
  130OSM   H16S14034   3.884   5.353   4.785
  130OSM   H16T14035   3.721   5.278   4.772
  130OSM   C17S14036   3.834   5.284   4.586
  130OSM   H17S14037   3.935   5.318   4.556
  130OSM   H17T14038   3.759   5.364   4.561
  130OSM   C18S14039   3.799   5.161   4.504
  130OSM   H18S14040   3.772   5.194   4.402
  130OSM   H18T14041   3.710   5.108   4.547
  130OSM   H18U14042   3.882   5.088   4.495
  130OSM    C1F14043   3.916   5.422   5.955
  130OSM     OF14044   3.995   5.511   5.983
  130OSM    C2F14045   3.792   5.444   5.878
  130OSM    H2F14046   3.706   5.440   5.948
  130OSM    H2G14047   3.780   5.360   5.806
  130OSM    C3F14048   3.798   5.584   5.814
  130OSM    H3F14049   3.900   5.605   5.774
  130OSM    H3G14050   3.779   5.658   5.894
  130OSM    C4F14051   3.702   5.606   5.697
  130OSM    H4F14052   3.697   5.715   5.675
  130OSM    H4G14053   3.600   5.569   5.720
  130OSM    C5F14054   3.755   5.541   5.569
  130OSM    H5F14055   3.762   5.431   5.584
  130OSM    H5G14056   3.860   5.578   5.556
  130OSM    C6F14057   3.672   5.577   5.445
  130OSM    H6F14058   3.677   5.687   5.429
  130OSM    H6G14059   3.565   5.552   5.464
  130OSM    C7F14060   3.722   5.510   5.316
  130OSM    H7F14061   3.650   5.528   5.233
  130OSM    H7G14062   3.731   5.401   5.335
  130OSM    C8F14063   3.858   5.567   5.270
  130OSM    H8F14064   3.927   5.565   5.356
  130OSM    H8G14065   3.842   5.674   5.243
  130OSM    C9F14066   3.916   5.485   5.159
  130OSM    H9F14067   3.910   5.376   5.167
  130OSM   C10F14068   3.963   5.533   5.045
  130OSM   H10F14069   4.012   5.466   4.972
  130OSM   C11F14070   3.966   5.678   5.012
  130OSM   H11F14071   4.071   5.679   5.017
  130OSM   H11G14072   3.945   5.754   5.091
  130OSM   C12F14073   3.888   5.722   4.890
  130OSM   H12F14074   3.914   5.662   4.801
  130OSM   H12G14075   3.907   5.829   4.862
  130OSM   C13F14076   3.743   5.710   4.936
  130OSM   H13F14077   3.720   5.785   5.014
  130OSM   H13G14078   3.726   5.609   4.979
  130OSM   C14F14079   3.647   5.726   4.825
  130OSM   H14F14080   3.682   5.810   4.762
  130OSM   H14G14081   3.545   5.750   4.865
  130OSM   C15F14082   3.638   5.597   4.749
  130OSM   H15F14083   3.605   5.515   4.818
  130OSM   H15G14084   3.726   5.565   4.691
  130OSM   C16F14085   3.535   5.628   4.647
  130OSM   H16F14086   3.445   5.645   4.711
  130OSM   H16G14087   3.522   5.528   4.598
  130OSM   C17F14088   3.566   5.757   4.553
  130OSM   H17F14089   3.662   5.728   4.504
  130OSM   H17G14090   3.570   5.844   4.618
  130OSM   C18F14091   3.469   5.831   4.449
  130OSM   H18F14092   3.506   5.834   4.344
  130OSM   H18G14093   3.372   5.798   4.409
  130OSM   H18H14094   3.450   5.734   4.479
  131OSM      N14095   4.330   1.713   6.438
  131OSM    C1514096   4.381   1.610   6.535
  131OSM   H15A14097   4.430   1.528   6.485
  131OSM   H15B14098   4.302   1.565   6.594
  131OSM   H15C14099   4.451   1.655   6.604
  131OSM    C1414100   4.440   1.775   6.359
  131OSM   H14A14101   4.529   1.796   6.417
  131OSM   H14B14102   4.404   1.872   6.322
  131OSM   H14C14103   4.465   1.715   6.273
  131OSM    C1314104   4.234   1.647   6.344
  131OSM   H13A14105   4.284   1.566   6.293
  131OSM   H13B14106   4.194   1.716   6.268
  131OSM   H13C14107   4.146   1.613   6.398
  131OSM    C1214108   4.258   1.824   6.515
  131OSM   H12A14109   4.331   1.885   6.567
  131OSM   H12B14110   4.196   1.775   6.589
  131OSM    C1114111   4.165   1.922   6.438
  131OSM   H11A14112   4.138   2.003   6.509
  131OSM   H11B14113   4.072   1.866   6.412
  131OSM      P14114   4.158   2.101   6.248
  131OSM    O1314115   4.023   2.062   6.204
  131OSM    O1414116   4.170   2.219   6.337
  131OSM    O1114117   4.247   2.130   6.122
  131OSM    O1214118   4.226   1.975   6.320
  131OSM    C1S14119   4.327   2.029   6.060
  131OSM    H1S14120   4.328   1.933   6.117
  131OSM    H1T14121   4.432   2.064   6.059
  131OSM     NF14122   4.330   1.876   5.869
  131OSM    HNF14123   4.399   1.878   5.799
  131OSM    C2S14124   4.279   2.001   5.915
  131OSM    H2S14125   4.168   1.994   5.911
  131OSM    C3S14126   4.326   2.117   5.827
  131OSM    H3S14127   4.434   2.134   5.848
  131OSM     O314128   4.250   2.233   5.856
  131OSM    HO314129   4.218   2.215   5.946
  131OSM    C4S14130   4.311   2.089   5.680
  131OSM    H4S14131   4.209   2.067   5.645
  131OSM    C5S14132   4.410   2.092   5.588
  131OSM    H5S14133   4.513   2.121   5.617
  131OSM    C6S14134   4.383   2.066   5.443
  131OSM    H6S14135   4.384   2.164   5.392
  131OSM    H6T14136   4.279   2.028   5.431
  131OSM    C7S14137   4.474   1.970   5.364
  131OSM    H7S14138   4.469   1.869   5.412
  131OSM    H7T14139   4.582   1.999   5.365
  131OSM    C8S14140   4.424   1.960   5.218
  131OSM    H8S14141   4.316   1.933   5.228
  131OSM    H8T14142   4.473   1.873   5.168
  131OSM    C9S14143   4.434   2.086   5.126
  131OSM    H9S14144   4.538   2.126   5.122
  131OSM    H9T14145   4.368   2.166   5.166
  131OSM   C10S14146   4.394   2.052   4.981
  131OSM   H10S14147   4.293   2.005   4.990
  131OSM   H10T14148   4.465   1.975   4.944
  131OSM   C11S14149   4.390   2.163   4.872
  131OSM   H11S14150   4.493   2.198   4.851
  131OSM   H11T14151   4.330   2.249   4.907
  131OSM   C12S14152   4.326   2.109   4.741
  131OSM   H12S14153   4.220   2.089   4.769
  131OSM   H12T14154   4.373   2.012   4.712
  131OSM   C13S14155   4.318   2.198   4.614
  131OSM   H13S14156   4.270   2.294   4.638
  131OSM   H13T14157   4.252   2.143   4.542
  131OSM   C14S14158   4.453   2.229   4.547
  131OSM   H14S14159   4.512   2.137   4.533
  131OSM   H14T14160   4.510   2.296   4.615
  131OSM   C15S14161   4.449   2.296   4.407
  131OSM   H15S14162   4.555   2.307   4.377
  131OSM   H15T14163   4.405   2.398   4.413
  131OSM   C16S14164   4.381   2.216   4.294
  131OSM   H16S14165   4.383   2.283   4.205
  131OSM   H16T14166   4.274   2.197   4.318
  131OSM   C17S14167   4.449   2.084   4.251
  131OSM   H17S14168   4.559   2.096   4.245
  131OSM   H17T14169   4.413   2.064   4.148
  131OSM   C18S14170   4.416   1.960   4.337
  131OSM   H18S14171   4.451   1.866   4.291
  131OSM   H18T14172   4.306   1.951   4.351
  131OSM   H18U14173   4.462   1.969   4.437
  131OSM    C1F14174   4.270   1.764   5.907
  131OSM     OF14175   4.204   1.749   6.009
  131OSM    C2F14176   4.294   1.651   5.818
  131OSM    H2F14177   4.352   1.588   5.882
  131OSM    H2G14178   4.360   1.677   5.733
  131OSM    C3F14179   4.162   1.583   5.787
  131OSM    H3F14180   4.106   1.558   5.879
  131OSM    H3G14181   4.165   1.488   5.737
  131OSM    C4F14182   4.079   1.653   5.683
  131OSM    H4F14183   4.035   1.740   5.734
  131OSM    H4G14184   4.002   1.577   5.657
  131OSM    C5F14185   4.155   1.688   5.554
  131OSM    H5F14186   4.192   1.595   5.506
  131OSM    H5G14187   4.241   1.756   5.572
  131OSM    C6F14188   4.063   1.753   5.453
  131OSM    H6F14189   3.993   1.676   5.415
  131OSM    H6G14190   4.120   1.789   5.364
  131OSM    C7F14191   3.984   1.869   5.514
  131OSM    H7F14192   4.050   1.938   5.571
  131OSM    H7G14193   3.897   1.842   5.577
  131OSM    C8F14194   3.935   1.952   5.403
  131OSM    H8F14195   4.030   1.996   5.367
  131OSM    H8G14196   3.866   2.033   5.440
  131OSM    C9F14197   3.874   1.871   5.294
  131OSM    H9F14198   3.781   1.833   5.331
  131OSM   C10F14199   3.895   1.853   5.162
  131OSM   H10F14200   3.817   1.802   5.104
  131OSM   C11F14201   3.999   1.920   5.080
  131OSM   H11F14202   4.077   1.955   5.150
  131OSM   H11G14203   3.955   2.003   5.026
  131OSM   C12F14204   4.046   1.855   4.952
  131OSM   H12F14205   4.122   1.923   4.907
  131OSM   H12G14206   3.962   1.846   4.879
  131OSM   C13F14207   4.106   1.724   4.992
  131OSM   H13F14208   4.031   1.670   5.054
  131OSM   H13G14209   4.191   1.751   5.058
  131OSM   C14F14210   4.153   1.636   4.876
  131OSM   H14F14211   4.065   1.594   4.822
  131OSM   H14G14212   4.205   1.552   4.926
  131OSM   C15F14213   4.241   1.714   4.776
  131OSM   H15F14214   4.294   1.796   4.829
  131OSM   H15G14215   4.181   1.756   4.693
  131OSM   C16F14216   4.355   1.638   4.711
  131OSM   H16F14217   4.319   1.547   4.657
  131OSM   H16G14218   4.411   1.598   4.801
  131OSM   C17F14219   4.451   1.731   4.623
  131OSM   H17F14220   4.530   1.764   4.697
  131OSM   H17G14221   4.390   1.812   4.582
  131OSM   C18F14222   4.525   1.679   4.496
  131OSM   H18F14223   4.616   1.627   4.527
  131OSM   H18G14224   4.590   1.730   4.425
  131OSM   H18H14225   4.456   1.607   4.448
  132OSM      N14226   5.324   5.179   6.512
  132OSM    C1514227   5.259   5.238   6.635
  132OSM   H15A14228   5.154   5.211   6.639
  132OSM   H15B14229   5.266   5.346   6.632
  132OSM   H15C14230   5.306   5.202   6.725
  132OSM    C1414231   5.468   5.218   6.514
  132OSM   H14A14232   5.519   5.176   6.429
  132OSM   H14B14233   5.515   5.187   6.607
  132OSM   H14C14234   5.472   5.326   6.502
  132OSM    C1314235   5.316   5.030   6.518
  132OSM   H13A14236   5.325   4.993   6.620
  132OSM   H13B14237   5.400   4.984   6.468
  132OSM   H13C14238   5.224   4.990   6.476
  132OSM    C1214239   5.256   5.236   6.387
  132OSM   H12A14240   5.154   5.199   6.382
  132OSM   H12B14241   5.300   5.199   6.295
  132OSM    C1114242   5.253   5.391   6.372
  132OSM   H11A14243   5.220   5.438   6.466
  132OSM   H11B14244   5.177   5.419   6.295
  132OSM      P14245   5.423   5.459   6.185
  132OSM    O1314246   5.547   5.535   6.172
  132OSM    O1414247   5.417   5.324   6.125
  132OSM    O1114248   5.304   5.545   6.124
  132OSM    O1214249   5.382   5.443   6.338
  132OSM    C1S14250   5.313   5.603   5.993
  132OSM    H1S14251   5.408   5.659   5.979
  132OSM    H1T14252   5.232   5.680   5.986
  132OSM     NF14253   5.286   5.571   5.749
  132OSM    HNF14254   5.198   5.583   5.704
  132OSM    C2S14255   5.292   5.498   5.876
  132OSM    H2S14256   5.372   5.423   5.871
  132OSM    C3S14257   5.161   5.420   5.910
  132OSM    H3S14258   5.105   5.513   5.924
  132OSM     O314259   5.148   5.351   6.030
  132OSM    HO314260   5.221   5.391   6.079
  132OSM    C4S14261   5.130   5.324   5.789
  132OSM    H4S14262   5.214   5.280   5.738
  132OSM    C5S14263   5.009   5.282   5.738
  132OSM    H5S14264   4.907   5.311   5.768
  132OSM    C6S14265   4.967   5.204   5.626
  132OSM    H6S14266   4.856   5.229   5.610
  132OSM    H6T14267   4.993   5.112   5.672
  132OSM    C7S14268   5.023   5.216   5.488
  132OSM    H7S14269   4.967   5.175   5.405
  132OSM    H7T14270   5.132   5.208   5.484
  132OSM    C8S14271   4.997   5.344   5.437
  132OSM    H8S14272   5.058   5.399   5.508
  132OSM    H8T14273   4.889   5.372   5.453
  132OSM    C9S14274   5.043   5.362   5.293
  132OSM    H9S14275   5.033   5.460   5.314
  132OSM    H9T14276   4.964   5.372   5.217
  132OSM   C10S14277   5.195   5.369   5.258
  132OSM   H10S14278   5.230   5.276   5.303
  132OSM   H10T14279   5.263   5.443   5.308
  132OSM   C11S14280   5.222   5.377   5.108
  132OSM   H11S14281   5.178   5.459   5.060
  132OSM   H11T14282   5.161   5.302   5.058
  132OSM   C12S14283   5.367   5.398   5.059
  132OSM   H12S14284   5.426   5.328   5.120
  132OSM   H12T14285   5.406   5.501   5.079
  132OSM   C13S14286   5.383   5.379   4.907
  132OSM   H13S14287   5.489   5.387   4.878
  132OSM   H13T14288   5.330   5.463   4.857
  132OSM   C14S14289   5.323   5.251   4.851
  132OSM   H14S14290   5.213   5.261   4.851
  132OSM   H14T14291   5.344   5.171   4.927
  132OSM   C15S14292   5.362   5.199   4.709
  132OSM   H15S14293   5.300   5.110   4.682
  132OSM   H15T14294   5.470   5.180   4.709
  132OSM   C16S14295   5.335   5.287   4.590
  132OSM   H16S14296   5.391   5.383   4.598
  132OSM   H16T14297   5.223   5.289   4.604
  132OSM   C17S14298   5.326   5.235   4.448
  132OSM   H17S14299   5.228   5.181   4.440
  132OSM   H17T14300   5.410   5.164   4.441
  132OSM   C18S14301   5.338   5.338   4.335
  132OSM   H18S14302   5.438   5.386   4.337
  132OSM   H18T14303   5.263   5.420   4.334
  132OSM   H18U14304   5.328   5.281   4.240
  132OSM    C1F14305   5.394   5.615   5.691
  132OSM     OF14306   5.501   5.581   5.734
  132OSM    C2F14307   5.388   5.716   5.584
  132OSM    H2F14308   5.394   5.793   5.658
  132OSM    H2G14309   5.302   5.744   5.527
  132OSM    C3F14310   5.506   5.713   5.487
  132OSM    H3F14311   5.515   5.612   5.448
  132OSM    H3G14312   5.595   5.738   5.546
  132OSM    C4F14313   5.494   5.801   5.362
  132OSM    H4F14314   5.581   5.841   5.311
  132OSM    H4G14315   5.450   5.887   5.404
  132OSM    C5F14316   5.387   5.756   5.270
  132OSM    H5F14317   5.306   5.789   5.336
  132OSM    H5G14318   5.388   5.651   5.235
  132OSM    C6F14319   5.377   5.830   5.142
  132OSM    H6F14320   5.448   5.910   5.131
  132OSM    H6G14321   5.311   5.902   5.160
  132OSM    C7F14322   5.248   5.818   5.067
  132OSM    H7F14323   5.160   5.891   5.062
  132OSM    H7G14324   5.198   5.766   5.146
  132OSM    C8F14325   5.299   5.751   4.942
  132OSM    H8F14326   5.213   5.737   4.882
  132OSM    H8G14327   5.340   5.665   4.994
  132OSM    C9F14328   5.415   5.777   4.851
  132OSM    H9F14329   5.473   5.853   4.907
  132OSM   C10F14330   5.405   5.795   4.715
  132OSM   H10F14331   5.445   5.886   4.677
  132OSM   C11F14332   5.287   5.796   4.623
  132OSM   H11F14333   5.193   5.854   4.648
  132OSM   H11G14334   5.268   5.702   4.644
  132OSM   C12F14335   5.293   5.799   4.472
  132OSM   H12F14336   5.323   5.894   4.431
  132OSM   H12G14337   5.193   5.793   4.422
  132OSM   C13F14338   5.408   5.718   4.425
  132OSM   H13F14339   5.375   5.614   4.429
  132OSM   H13G14340   5.498   5.731   4.491
  132OSM   C14F14341   5.439   5.771   4.288
  132OSM   H14F14342   5.485   5.872   4.296
  132OSM   H14G14343   5.341   5.783   4.236
  132OSM   C15F14344   5.535   5.682   4.217
  132OSM   H15F14345   5.486   5.585   4.197
  132OSM   H15G14346   5.620   5.665   4.287
  132OSM   C16F14347   5.588   5.751   4.093
  132OSM   H16F14348   5.650   5.836   4.121
  132OSM   H16G14349   5.511   5.793   4.029
  132OSM   C17F14350   5.668   5.664   4.003
  132OSM   H17F14351   5.729   5.608   4.072
  132OSM   H17G14352   5.733   5.728   3.938
  132OSM   C18F14353   5.582   5.564   3.927
  132OSM   H18F14354   5.491   5.610   3.889
  132OSM   H18G14355   5.568   5.473   3.989
  132OSM   H18H14356   5.623   5.527   3.834
  133OSM      N14357   2.295   5.777   6.443
  133OSM    C1514358   2.148   5.803   6.437
  133OSM   H15A14359   2.109   5.820   6.536
  133OSM   H15B14360   2.102   5.713   6.396
  133OSM   H15C14361   2.124   5.885   6.372
  133OSM    C1414362   2.371   5.905   6.451
  133OSM   H14A14363   2.343   5.964   6.536
  133OSM   H14B14364   2.358   5.963   6.359
  133OSM   H14C14365   2.478   5.885   6.457
  133OSM    C1314366   2.320   5.691   6.564
  133OSM   H13A14367   2.422   5.655   6.562
  133OSM   H13B14368   2.252   5.605   6.562
  133OSM   H13C14369   2.301   5.742   6.658
  133OSM    C1214370   2.341   5.708   6.315
  133OSM   H12A14371   2.447   5.726   6.298
  133OSM   H12B14372   2.292   5.754   6.229
  133OSM    C1114373   2.317   5.556   6.304
  133OSM   H11A14374   2.377   5.502   6.380
  133OSM   H11B14375   2.356   5.525   6.203
  133OSM      P14376   2.138   5.377   6.276
  133OSM    O1314377   2.254   5.289   6.303
  133OSM    O1414378   2.008   5.349   6.339
  133OSM    O1114379   2.122   5.401   6.120
  133OSM    O1214380   2.179   5.524   6.319
  133OSM    C1S14381   2.211   5.335   6.031
  133OSM    H1S14382   2.191   5.227   6.040
  133OSM    H1T14383   2.318   5.346   6.059
  133OSM     NF14384   2.242   5.308   5.784
  133OSM    HNF14385   2.318   5.333   5.726
  133OSM    C2S14386   2.194   5.392   5.886
  133OSM    H2S14387   2.084   5.402   5.869
  133OSM    C3S14388   2.263   5.528   5.863
  133OSM    H3S14389   2.373   5.508   5.864
  133OSM     O314390   2.236   5.626   5.962
  133OSM    HO314391   2.182   5.578   6.027
  133OSM    C4S14392   2.221   5.585   5.729
  133OSM    H4S14393   2.116   5.616   5.726
  133OSM    C5S14394   2.298   5.607   5.619
  133OSM    H5S14395   2.404   5.580   5.623
  133OSM    C6S14396   2.250   5.664   5.486
  133OSM    H6S14397   2.272   5.588   5.409
  133OSM    H6T14398   2.310   5.753   5.456
  133OSM    C7S14399   2.099   5.700   5.474
  133OSM    H7S14400   2.078   5.790   5.537
  133OSM    H7T14401   2.038   5.618   5.517
  133OSM    C8S14402   2.045   5.730   5.332
  133OSM    H8S14403   2.095   5.820   5.290
  133OSM    H8T14404   1.937   5.755   5.346
  133OSM    C9S14405   2.052   5.620   5.224
  133OSM    H9S14406   2.007   5.526   5.262
  133OSM    H9T14407   2.158   5.601   5.196
  133OSM   C10S14408   1.982   5.663   5.094
  133OSM   H10S14409   2.026   5.759   5.060
  133OSM   H10T14410   1.873   5.680   5.112
  133OSM   C11S14411   1.997   5.564   4.977
  133OSM   H11S14412   1.937   5.474   5.003
  133OSM   H11T14413   2.103   5.534   4.963
  133OSM   C12S14414   1.946   5.626   4.846
  133OSM   H12S14415   2.022   5.697   4.807
  133OSM   H12T14416   1.854   5.685   4.868
  133OSM   C13S14417   1.915   5.523   4.737
  133OSM   H13S14418   1.860   5.436   4.780
  133OSM   H13T14419   2.013   5.488   4.698
  133OSM   C14S14420   1.829   5.585   4.625
  133OSM   H14S14421   1.841   5.696   4.633
  133OSM   H14T14422   1.722   5.561   4.645
  133OSM   C15S14423   1.864   5.545   4.481
  133OSM   H15S14424   1.832   5.440   4.463
  133OSM   H15T14425   1.974   5.553   4.464
  133OSM   C16S14426   1.793   5.634   4.378
  133OSM   H16S14427   1.845   5.733   4.369
  133OSM   H16T14428   1.687   5.651   4.404
  133OSM   C17S14429   1.799   5.573   4.241
  133OSM   H17S14430   1.749   5.476   4.221
  133OSM   H17T14431   1.905   5.548   4.233
  133OSM   C18S14432   1.752   5.672   4.138
  133OSM   H18S14433   1.659   5.722   4.167
  133OSM   H18T14434   1.732   5.613   4.046
  133OSM   H18U14435   1.826   5.752   4.114
  133OSM    C1F14436   2.198   5.192   5.762
  133OSM     OF14437   2.142   5.130   5.853
  133OSM    C2F14438   2.247   5.145   5.626
  133OSM    H2F14439   2.296   5.066   5.662
  133OSM    H2G14440   2.332   5.201   5.592
  133OSM    C3F14441   2.169   5.102   5.499
  133OSM    H3F14442   2.124   5.007   5.500
  133OSM    H3G14443   2.213   5.033   5.424
  133OSM    C4F14444   2.071   5.211   5.468
  133OSM    H4F14445   2.028   5.256   5.561
  133OSM    H4G14446   1.984   5.184   5.404
  133OSM    C5F14447   2.150   5.302   5.389
  133OSM    H5F14448   2.246   5.311   5.442
  133OSM    H5G14449   2.093   5.396   5.395
  133OSM    C6F14450   2.160   5.241   5.250
  133OSM    H6F14451   2.060   5.249   5.202
  133OSM    H6G14452   2.184   5.132   5.252
  133OSM    C7F14453   2.258   5.314   5.163
  133OSM    H7F14454   2.236   5.422   5.153
  133OSM    H7G14455   2.250   5.273   5.060
  133OSM    C8F14456   2.399   5.304   5.217
  133OSM    H8F14457   2.455   5.339   5.128
  133OSM    H8G14458   2.425   5.197   5.235
  133OSM    C9F14459   2.450   5.389   5.330
  133OSM    H9F14460   2.455   5.334   5.425
  133OSM   C10F14461   2.513   5.507   5.317
  133OSM   H10F14462   2.550   5.555   5.409
  133OSM   C11F14463   2.545   5.580   5.188
  133OSM   H11F14464   2.565   5.689   5.207
  133OSM   H11G14465   2.458   5.572   5.121
  133OSM   C12F14466   2.670   5.535   5.110
  133OSM   H12F14467   2.679   5.429   5.090
  133OSM   H12G14468   2.762   5.556   5.160
  133OSM   C13F14469   2.684   5.594   4.975
  133OSM   H13F14470   2.789   5.587   4.936
  133OSM   H13G14471   2.643   5.696   4.967
  133OSM   C14F14472   2.609   5.510   4.884
  133OSM   H14F14473   2.501   5.491   4.906
  133OSM   H14G14474   2.662   5.410   4.894
  133OSM   C15F14475   2.632   5.577   4.750
  133OSM   H15F14476   2.639   5.485   4.713
  133OSM   H15G14477   2.732   5.584   4.703
  133OSM   C16F14478   2.518   5.662   4.689
  133OSM   H16F14479   2.573   5.728   4.619
  133OSM   H16G14480   2.482   5.711   4.781
  133OSM   C17F14481   2.389   5.619   4.609
  133OSM   H17F14482   2.307   5.688   4.637
  133OSM   H17G14483   2.340   5.522   4.636
  133OSM   C18F14484   2.411   5.629   4.457
  133OSM   H18F14485   2.498   5.570   4.420
  133OSM   H18G14486   2.435   5.732   4.427
  133OSM   H18H14487   2.321   5.591   4.403
  134OSM      N14488   1.417   2.527   6.341
  134OSM    C1514489   1.446   2.419   6.243
  134OSM   H15A14490   1.529   2.359   6.278
  134OSM   H15B14491   1.472   2.462   6.147
  134OSM   H15C14492   1.362   2.353   6.227
  134OSM    C1414493   1.288   2.592   6.301
  134OSM   H14A14494   1.304   2.690   6.257
  134OSM   H14B14495   1.227   2.614   6.389
  134OSM   H14C14496   1.233   2.530   6.232
  134OSM    C1314497   1.403   2.477   6.481
  134OSM   H13A14498   1.496   2.438   6.520
  134OSM   H13B14499   1.327   2.401   6.488
  134OSM   H13C14500   1.373   2.562   6.544
  134OSM    C1214501   1.534   2.625   6.337
  134OSM   H12A14502   1.550   2.664   6.237
  134OSM   H12B14503   1.623   2.570   6.363
  134OSM    C1114504   1.526   2.748   6.429
  134OSM   H11A14505   1.619   2.805   6.421
  134OSM   H11B14506   1.520   2.712   6.535
  134OSM      P14507   1.429   2.985   6.349
  134OSM    O1314508   1.300   3.050   6.370
  134OSM    O1414509   1.553   3.044   6.405
  134OSM    O1114510   1.456   2.972   6.191
  134OSM    O1214511   1.416   2.832   6.394
  134OSM    C1S14512   1.395   2.869   6.114
  134OSM    H1S14513   1.290   2.856   6.145
  134OSM    H1T14514   1.447   2.772   6.129
  134OSM     NF14515   1.321   2.806   5.892
  134OSM    HNF14516   1.372   2.753   5.826
  134OSM    C2S14517   1.395   2.905   5.963
  134OSM    H2S14518   1.344   3.003   5.948
  134OSM    C3S14519   1.535   2.914   5.900
  134OSM    H3S14520   1.582   2.814   5.907
  134OSM     O314521   1.623   2.998   5.970
  134OSM    HO314522   1.569   3.031   6.044
  134OSM    C4S14523   1.510   2.946   5.752
  134OSM    H4S14524   1.480   3.048   5.725
  134OSM    C5S14525   1.534   2.856   5.655
  134OSM    H5S14526   1.597   2.771   5.683
  134OSM    C6S14527   1.509   2.872   5.509
  134OSM    H6S14528   1.463   2.970   5.495
  134OSM    H6T14529   1.418   2.815   5.483
  134OSM    C7S14530   1.618   2.822   5.409
  134OSM    H7S14531   1.718   2.867   5.431
  134OSM    H7T14532   1.597   2.849   5.303
  134OSM    C8S14533   1.634   2.670   5.417
  134OSM    H8S14534   1.652   2.645   5.524
  134OSM    H8T14535   1.723   2.636   5.360
  134OSM    C9S14536   1.515   2.591   5.359
  134OSM    H9S14537   1.418   2.636   5.389
  134OSM    H9T14538   1.519   2.488   5.402
  134OSM   C10S14539   1.523   2.571   5.207
  134OSM   H10S14540   1.610   2.504   5.187
  134OSM   H10T14541   1.545   2.668   5.158
  134OSM   C11S14542   1.393   2.508   5.152
  134OSM   H11S14543   1.308   2.576   5.176
  134OSM   H11T14544   1.372   2.414   5.208
  134OSM   C12S14545   1.391   2.474   5.001
  134OSM   H12S14546   1.287   2.438   4.980
  134OSM   H12T14547   1.461   2.391   4.977
  134OSM   C13S14548   1.426   2.591   4.908
  134OSM   H13S14549   1.533   2.615   4.918
  134OSM   H13T14550   1.364   2.679   4.936
  134OSM   C14S14551   1.400   2.561   4.761
  134OSM   H14S14552   1.457   2.474   4.721
  134OSM   H14T14553   1.428   2.651   4.700
  134OSM   C15S14554   1.254   2.532   4.747
  134OSM   H15S14555   1.202   2.612   4.802
  134OSM   H15T14556   1.226   2.432   4.788
  134OSM   C16S14557   1.211   2.537   4.607
  134OSM   H16S14558   1.204   2.638   4.566
  134OSM   H16T14559   1.109   2.490   4.600
  134OSM   C17S14560   1.307   2.469   4.518
  134OSM   H17S14561   1.290   2.368   4.556
  134OSM   H17T14562   1.412   2.489   4.504
  134OSM   C18S14563   1.259   2.505   4.387
  134OSM   H18S14564   1.161   2.468   4.415
  134OSM   H18T14565   1.305   2.461   4.298
  134OSM   H18U14566   1.209   2.593   4.357
  134OSM    C1F14567   1.195   2.784   5.905
  134OSM     OF14568   1.123   2.835   5.989
  134OSM    C2F14569   1.149   2.687   5.807
  134OSM    H2F14570   1.107   2.599   5.860
  134OSM    H2G14571   1.228   2.655   5.736
  134OSM    C3F14572   1.040   2.752   5.728
  134OSM    H3F14573   0.964   2.783   5.805
  134OSM    H3G14574   1.015   2.668   5.659
  134OSM    C4F14575   1.059   2.862   5.629
  134OSM    H4F14576   1.142   2.922   5.670
  134OSM    H4G14577   0.964   2.922   5.626
  134OSM    C5F14578   1.094   2.807   5.489
  134OSM    H5F14579   1.010   2.754   5.438
  134OSM    H5G14580   1.169   2.727   5.509
  134OSM    C6F14581   1.176   2.911   5.409
  134OSM    H6F14582   1.229   2.863   5.325
  134OSM    H6G14583   1.243   2.956   5.485
  134OSM    C7F14584   1.109   3.038   5.356
  134OSM    H7F14585   1.046   3.086   5.432
  134OSM    H7G14586   1.063   2.960   5.295
  134OSM    C8F14587   1.115   3.109   5.220
  134OSM    H8F14588   1.050   3.193   5.198
  134OSM    H8G14589   1.108   3.035   5.134
  134OSM    C9F14590   1.236   3.161   5.262
  134OSM    H9F14591   1.260   3.231   5.343
  134OSM   C10F14592   1.322   3.110   5.189
  134OSM   H10F14593   1.402   3.126   5.260
  134OSM   C11F14594   1.324   3.012   5.070
  134OSM   H11F14595   1.301   2.905   5.084
  134OSM   H11G14596   1.424   2.972   5.054
  134OSM   C12F14597   1.269   3.077   4.936
  134OSM   H12F14598   1.322   3.170   4.898
  134OSM   H12G14599   1.169   3.114   4.949
  134OSM   C13F14600   1.282   2.970   4.829
  134OSM   H13F14601   1.278   2.862   4.837
  134OSM   H13G14602   1.383   2.963   4.866
  134OSM   C14F14603   1.246   3.007   4.684
  134OSM   H14F14604   1.292   3.098   4.649
  134OSM   H14G14605   1.139   3.034   4.687
  134OSM   C15F14606   1.272   2.896   4.578
  134OSM   H15F14607   1.218   2.811   4.608
  134OSM   H15G14608   1.371   2.848   4.575
  134OSM   C16F14609   1.229   2.936   4.439
  134OSM   H16F14610   1.294   3.018   4.419
  134OSM   H16G14611   1.128   2.980   4.441
  134OSM   C17F14612   1.269   2.854   4.316
  134OSM   H17F14613   1.264   2.752   4.340
  134OSM   H17G14614   1.375   2.867   4.289
  134OSM   C18F14615   1.175   2.858   4.200
  134OSM   H18F14616   1.084   2.911   4.225
  134OSM   H18G14617   1.203   2.810   4.108
  134OSM   H18H14618   1.178   2.934   4.125
  135OSM      N14619   1.765   2.016   6.520
  135OSM    C1514620   1.903   2.068   6.551
  135OSM   H15A14621   1.971   2.062   6.466
  135OSM   H15B14622   1.949   2.015   6.633
  135OSM   H15C14623   1.903   2.174   6.576
  135OSM    C1414624   1.776   1.873   6.479
  135OSM   H14A14625   1.825   1.813   6.554
  135OSM   H14B14626   1.836   1.861   6.387
  135OSM   H14C14627   1.680   1.831   6.453
  135OSM    C1314628   1.688   2.031   6.647
  135OSM   H13A14629   1.598   1.972   6.649
  135OSM   H13B14630   1.660   2.134   6.662
  135OSM   H13C14631   1.748   2.004   6.734
  135OSM    C1214632   1.696   2.096   6.410
  135OSM   H12A14633   1.687   2.198   6.446
  135OSM   H12B14634   1.597   2.056   6.401
  135OSM    C1114635   1.753   2.102   6.265
  135OSM   H11A14636   1.707   2.188   6.211
  135OSM   H11B14637   1.720   2.012   6.208
  135OSM      P14638   1.992   2.009   6.201
  135OSM    O1314639   2.128   2.034   6.250
  135OSM    O1414640   1.928   1.878   6.224
  135OSM    O1114641   1.985   2.042   6.047
  135OSM    O1214642   1.894   2.120   6.263
  135OSM    C1S14643   1.994   2.177   6.001
  135OSM    H1S14644   2.095   2.220   6.023
  135OSM    H1T14645   1.915   2.238   6.044
  135OSM     NF14646   2.113   2.146   5.803
  135OSM    HNF14647   2.171   2.184   5.740
  135OSM    C2S14648   1.988   2.193   5.847
  135OSM    H2S14649   1.892   2.140   5.810
  135OSM    C3S14650   1.982   2.334   5.808
  135OSM    H3S14651   2.082   2.372   5.839
  135OSM     O314652   1.879   2.405   5.871
  135OSM    HO314653   1.861   2.348   5.946
  135OSM    C4S14654   1.979   2.342   5.657
  135OSM    H4S14655   2.080   2.350   5.613
  135OSM    C5S14656   1.873   2.335   5.577
  135OSM    H5S14657   1.774   2.313   5.620
  135OSM    C6S14658   1.880   2.346   5.428
  135OSM    H6S14659   1.819   2.435   5.400
  135OSM    H6T14660   1.830   2.256   5.388
  135OSM    C7S14661   2.017   2.363   5.357
  135OSM    H7S14662   2.087   2.286   5.392
  135OSM    H7T14663   2.062   2.461   5.385
  135OSM    C8S14664   2.004   2.358   5.202
  135OSM    H8S14665   2.088   2.415   5.157
  135OSM    H8T14666   1.911   2.413   5.175
  135OSM    C9S14667   2.003   2.215   5.143
  135OSM    H9S14668   1.929   2.152   5.197
  135OSM    H9T14669   2.103   2.170   5.162
  135OSM   C10S14670   1.978   2.202   4.991
  135OSM   H10S14671   1.949   2.097   4.966
  135OSM   H10T14672   2.073   2.221   4.936
  135OSM   C11S14673   1.867   2.292   4.935
  135OSM   H11S14674   1.897   2.398   4.948
  135OSM   H11T14675   1.778   2.272   4.999
  135OSM   C12S14676   1.834   2.261   4.787
  135OSM   H12S14677   1.724   2.273   4.771
  135OSM   H12T14678   1.857   2.154   4.766
  135OSM   C13S14679   1.904   2.352   4.684
  135OSM   H13S14680   2.002   2.387   4.724
  135OSM   H13T14681   1.842   2.441   4.665
  135OSM   C14S14682   1.943   2.283   4.552
  135OSM   H14S14683   1.984   2.183   4.576
  135OSM   H14T14684   2.027   2.341   4.506
  135OSM   C15S14685   1.836   2.269   4.444
  135OSM   H15S14686   1.781   2.363   4.425
  135OSM   H15T14687   1.766   2.188   4.474
  135OSM   C16S14688   1.902   2.223   4.314
  135OSM   H16S14689   1.974   2.143   4.341
  135OSM   H16T14690   1.957   2.306   4.265
  135OSM   C17S14691   1.798   2.170   4.218
  135OSM   H17S14692   1.724   2.252   4.198
  135OSM   H17T14693   1.741   2.084   4.260
  135OSM   C18S14694   1.856   2.131   4.084
  135OSM   H18S14695   1.896   2.219   4.030
  135OSM   H18T14696   1.771   2.097   4.029
  135OSM   H18U14697   1.926   2.045   4.084
  135OSM    C1F14698   2.128   2.033   5.785
  135OSM     OF14699   2.010   1.978   5.795
  135OSM    C2F14700   2.293   1.957   5.686
  135OSM    H2F14701   2.358   1.904   5.744
  135OSM    H2G14702   2.343   2.041   5.654
  135OSM    C3F14703   2.224   1.804   5.539
  135OSM    H3F14704   2.110   1.751   5.569
  135OSM    H3G14705   2.282   1.718   5.539
  135OSM    C4F14706   2.056   1.791   5.493
  135OSM    H4F14707   2.145   1.815   5.432
  135OSM    H4G14708   1.977   1.880   5.503
  135OSM    C5F14709   1.972   1.764   5.381
  135OSM    H5F14710   1.902   1.841   5.341
  135OSM    H5G14711   1.919   1.711   5.463
  135OSM    C6F14712   2.049   1.699   5.276
  135OSM    H6F14713   2.002   1.620   5.238
  135OSM    H6G14714   2.138   1.651   5.322
  135OSM    C7F14715   2.041   1.767   5.140
  135OSM    H7F14716   2.131   1.705   5.122
  135OSM    H7G14717   2.059   1.876   5.138
  135OSM    C8F14718   2.008   1.739   5.003
  135OSM    H8F14719   2.056   1.646   4.969
  135OSM    H8G14720   2.053   1.825   4.946
  135OSM    C9F14721   1.864   1.747   5.039
  135OSM    H9F14722   1.837   1.812   5.124
  135OSM   C10F14723   1.772   1.693   4.962
  135OSM   H10F14724   1.667   1.711   4.976
  135OSM   C11F14725   1.804   1.624   4.837
  135OSM   H11F14726   1.786   1.515   4.849
  135OSM   H11G14727   1.908   1.651   4.818
  135OSM   C12F14728   1.763   1.680   4.703
  135OSM   H12F14729   1.653   1.686   4.706
  135OSM   H12G14730   1.788   1.612   4.620
  135OSM   C13F14731   1.839   1.810   4.670
  135OSM   H13F14732   1.833   1.878   4.758
  135OSM   H13G14733   1.780   1.853   4.587
  135OSM   C14F14734   1.985   1.795   4.621
  135OSM   H14F14735   1.998   1.695   4.577
  135OSM   H14G14736   2.060   1.799   4.702
  135OSM   C15F14737   2.028   1.893   4.511
  135OSM   H15F14738   2.013   1.994   4.552
  135OSM   H15G14739   1.963   1.881   4.421
  135OSM   C16F14740   2.174   1.877   4.468
  135OSM   H16F14741   2.184   1.773   4.428
  135OSM   H16G14742   2.242   1.887   4.555
  135OSM   C17F14743   2.218   1.974   4.357
  135OSM   H17F14744   2.144   1.977   4.275
  135OSM   H17G14745   2.305   1.933   4.305
  135OSM   C18F14746   2.262   2.112   4.407
  135OSM   H18F14747   2.322   2.168   4.332
  135OSM   H18G14748   2.324   2.098   4.498
  135OSM   H18H14749   2.173   2.171   4.433
  136OSM      N14750   6.465   4.091   6.465
  136OSM    C1514751   6.555   3.980   6.421
  136OSM   H15A14752   6.601   3.930   6.505
  136OSM   H15B14753   6.635   4.015   6.356
  136OSM   H15C14754   6.495   3.908   6.364
  136OSM    C1414755   6.367   4.029   6.561
  136OSM   H14A14756   6.416   3.982   6.646
  136OSM   H14B14757   6.308   3.953   6.510
  136OSM   H14C14758   6.298   4.103   6.598
  136OSM    C1314759   6.553   4.185   6.540
  136OSM   H13A14760   6.506   4.276   6.573
  136OSM   H13B14761   6.642   4.207   6.483
  136OSM   H13C14762   6.584   4.134   6.630
  136OSM    C1214763   6.390   4.151   6.346
  136OSM   H12A14764   6.443   4.235   6.306
  136OSM   H12B14765   6.291   4.186   6.378
  136OSM    C1114766   6.365   4.058   6.224
  136OSM   H11A14767   6.464   4.023   6.187
  136OSM   H11B14768   6.322   4.114   6.138
  136OSM      P14769   6.128   3.960   6.275
  136OSM    O1314770   6.072   3.829   6.316
  136OSM    O1414771   6.097   4.079   6.356
  136OSM    O1114772   6.091   3.998   6.127
  136OSM    O1214773   6.287   3.944   6.261
  136OSM    C1S14774   6.111   3.899   6.030
  136OSM    H1S14775   6.060   3.813   6.073
  136OSM    H1T14776   6.217   3.863   6.020
  136OSM     NF14777   6.117   4.068   5.851
  136OSM    HNF14778   6.051   4.141   5.849
  136OSM    C2S14779   6.059   3.948   5.891
  136OSM    H2S14780   6.092   3.877   5.810
  136OSM    C3S14781   5.908   3.973   5.884
  136OSM    H3S14782   5.873   4.035   5.967
  136OSM     O314783   5.814   3.876   5.900
  136OSM    HO314784   5.868   3.797   5.904
  136OSM    C4S14785   5.870   4.014   5.751
  136OSM    H4S14786   5.871   4.122   5.739
  136OSM    C5S14787   5.833   3.936   5.648
  136OSM    H5S14788   5.793   3.833   5.659
  136OSM    C6S14789   5.793   4.011   5.534
  136OSM    H6S14790   5.718   4.093   5.556
  136OSM    H6T14791   5.758   3.947   5.456
  136OSM    C7S14792   5.891   4.036   5.442
  136OSM    H7S14793   5.960   4.098   5.503
  136OSM    H7T14794   5.827   4.082   5.357
  136OSM    C8S14795   6.004   3.952   5.412
  136OSM    H8S14796   6.033   3.895   5.502
  136OSM    H8T14797   6.093   4.010   5.380
  136OSM    C9S14798   5.965   3.886   5.291
  136OSM    H9S14799   5.865   3.840   5.308
  136OSM    H9T14800   6.046   3.810   5.295
  136OSM   C10S14801   5.973   3.965   5.156
  136OSM   H10S14802   5.893   4.041   5.148
  136OSM   H10T14803   5.936   3.928   5.062
  136OSM   C11S14804   6.119   3.981   5.114
  136OSM   H11S14805   6.199   3.931   5.170
  136OSM   H11T14806   6.132   4.070   5.174
  136OSM   C12S14807   6.149   3.990   4.959
  136OSM   H12S14808   6.215   4.075   4.934
  136OSM   H12T14809   6.058   4.009   4.898
  136OSM   C13S14810   6.232   3.877   4.909
  136OSM   H13S14811   6.174   3.785   4.915
  136OSM   H13T14812   6.316   3.866   4.980
  136OSM   C14S14813   6.284   3.892   4.768
  136OSM   H14S14814   6.380   3.947   4.765
  136OSM   H14T14815   6.215   3.944   4.698
  136OSM   C15S14816   6.315   3.755   4.718
  136OSM   H15S14817   6.228   3.692   4.687
  136OSM   H15T14818   6.358   3.701   4.799
  136OSM   C16S14819   6.434   3.760   4.627
  136OSM   H16S14820   6.436   3.652   4.598
  136OSM   H16T14821   6.533   3.797   4.656
  136OSM   C17S14822   6.399   3.851   4.518
  136OSM   H17S14823   6.475   3.844   4.433
  136OSM   H17T14824   6.362   3.954   4.525
  136OSM   C18S14825   6.267   3.801   4.484
  136OSM   H18S14826   6.336   3.720   4.459
  136OSM   H18T14827   6.238   3.835   4.389
  136OSM   H18U14828   6.196   3.719   4.507
  136OSM    C1F14829   6.242   4.086   5.829
  136OSM     OF14830   6.321   3.993   5.820
  136OSM    C2F14831   6.270   4.230   5.823
  136OSM    H2F14832   6.278   4.269   5.927
  136OSM    H2G14833   6.182   4.281   5.777
  136OSM    C3F14834   6.399   4.260   5.747
  136OSM    H3F14835   6.484   4.215   5.803
  136OSM    H3G14836   6.412   4.370   5.742
  136OSM    C4F14837   6.408   4.205   5.605
  136OSM    H4F14838   6.415   4.094   5.606
  136OSM    H4G14839   6.504   4.247   5.568
  136OSM    C5F14840   6.293   4.249   5.516
  136OSM    H5F14841   6.278   4.359   5.525
  136OSM    H5G14842   6.202   4.197   5.552
  136OSM    C6F14843   6.316   4.216   5.368
  136OSM    H6F14844   6.241   4.272   5.311
  136OSM    H6G14845   6.304   4.106   5.352
  136OSM    C7F14846   6.442   4.273   5.307
  136OSM    H7F14847   6.529   4.225   5.357
  136OSM    H7G14848   6.443   4.382   5.328
  136OSM    C8F14849   6.450   4.255   5.155
  136OSM    H8F14850   6.535   4.318   5.125
  136OSM    H8G14851   6.370   4.306   5.100
  136OSM    C9F14852   6.456   4.111   5.112
  136OSM    H9F14853   6.406   4.036   5.174
  136OSM   C10F14854   6.516   4.072   5.000
  136OSM   H10F14855   6.525   3.965   4.974
  136OSM   C11F14856   6.582   4.175   4.911
  136OSM   H11F14857   6.687   4.168   4.894
  136OSM   H11G14858   6.597   4.268   4.960
  136OSM   C12F14859   6.536   4.188   4.770
  136OSM   H12F14860   6.526   4.086   4.728
  136OSM   H12G14861   6.616   4.247   4.716
  136OSM   C13F14862   6.402   4.250   4.764
  136OSM   H13F14863   6.404   4.342   4.826
  136OSM   H13G14864   6.334   4.175   4.808
  136OSM   C14F14865   6.363   4.275   4.621
  136OSM   H14F14866   6.355   4.176   4.570
  136OSM   H14G14867   6.440   4.338   4.571
  136OSM   C15F14868   6.230   4.341   4.609
  136OSM   H15F14869   6.229   4.448   4.640
  136OSM   H15G14870   6.161   4.279   4.670
  136OSM   C16F14871   6.178   4.325   4.471
  136OSM   H16F14872   6.071   4.332   4.471
  136OSM   H16G14873   6.188   4.224   4.426
  136OSM   C17F14874   6.226   4.431   4.383
  136OSM   H17F14875   6.335   4.423   4.358
  136OSM   H17G14876   6.203   4.536   4.415
  136OSM   C18F14877   6.146   4.397   4.266
  136OSM   H18F14878   6.226   4.429   4.197
  136OSM   H18G14879   6.049   4.454   4.260
  136OSM   H18H14880   6.136   4.298   4.221
  137OSM      N14881   2.258   1.125   6.292
  137OSM    C1514882   2.225   0.982   6.310
  137OSM   H15A14883   2.135   0.959   6.254
  137OSM   H15B14884   2.204   0.961   6.415
  137OSM   H15C14885   2.306   0.920   6.275
  137OSM    C1414886   2.284   1.159   6.148
  137OSM   H14A14887   2.275   1.267   6.134
  137OSM   H14B14888   2.212   1.110   6.084
  137OSM   H14C14889   2.383   1.132   6.115
  137OSM    C1314890   2.135   1.197   6.337
  137OSM   H13A14891   2.123   1.191   6.445
  137OSM   H13B14892   2.046   1.154   6.292
  137OSM   H13C14893   2.140   1.303   6.313
  137OSM    C1214894   2.378   1.157   6.381
  137OSM   H12A14895   2.461   1.091   6.359
  137OSM   H12B14896   2.347   1.132   6.483
  137OSM    C1114897   2.431   1.302   6.388
  137OSM   H11A14898   2.463   1.340   6.288
  137OSM   H11B14899   2.523   1.298   6.452
  137OSM      P14900   2.285   1.528   6.407
  137OSM    O1314901   2.186   1.582   6.503
  137OSM    O1414902   2.404   1.609   6.374
  137OSM    O1114903   2.211   1.491   6.269
  137OSM    O1214904   2.334   1.383   6.453
  137OSM    C1S14905   2.188   1.613   6.196
  137OSM    H1S14906   2.282   1.668   6.176
  137OSM    H1T14907   2.120   1.684   6.251
  137OSM     NF14908   2.139   1.684   5.985
  137OSM    HNF14909   2.069   1.759   5.985
  137OSM    C2S14910   2.115   1.588   6.064
  137OSM    H2S14911   2.155   1.499   6.009
  137OSM    C3S14912   1.975   1.592   6.076
  137OSM    H3S14913   1.924   1.680   6.113
  137OSM     O314914   1.953   1.512   6.190
  137OSM    HO314915   2.028   1.451   6.204
  137OSM    C4S14916   1.909   1.563   5.938
  137OSM    H4S14917   1.822   1.626   5.917
  137OSM    C5S14918   1.935   1.474   5.837
  137OSM    H5S14919   2.003   1.391   5.855
  137OSM    C6S14920   1.837   1.462   5.724
  137OSM    H6S14921   1.750   1.530   5.730
  137OSM    H6T14922   1.766   1.375   5.723
  137OSM    C7S14923   1.915   1.450   5.602
  137OSM    H7S14924   1.962   1.351   5.578
  137OSM    H7T14925   1.999   1.523   5.609
  137OSM    C8S14926   1.817   1.494   5.499
  137OSM    H8S14927   1.790   1.599   5.532
  137OSM    H8T14928   1.723   1.442   5.481
  137OSM    C9S14929   1.896   1.494   5.376
  137OSM    H9S14930   2.003   1.511   5.408
  137OSM    H9T14931   1.844   1.580   5.323
  137OSM   C10S14932   1.899   1.389   5.270
  137OSM   H10S14933   1.796   1.390   5.231
  137OSM   H10T14934   1.927   1.297   5.324
  137OSM   C11S14935   2.004   1.416   5.157
  137OSM   H11S14936   2.106   1.399   5.195
  137OSM   H11T14937   1.994   1.510   5.103
  137OSM   C12S14938   1.988   1.336   5.035
  137OSM   H12S14939   1.888   1.359   4.991
  137OSM   H12T14940   1.993   1.250   5.095
  137OSM   C13S14941   2.111   1.307   4.947
  137OSM   H13S14942   2.088   1.219   4.883
  137OSM   H13T14943   2.191   1.276   5.015
  137OSM   C14S14944   2.166   1.420   4.863
  137OSM   H14S14945   2.233   1.392   4.779
  137OSM   H14T14946   2.205   1.500   4.929
  137OSM   C15S14947   2.061   1.487   4.792
  137OSM   H15S14948   2.076   1.581   4.735
  137OSM   H15T14949   1.994   1.503   4.879
  137OSM   C16S14950   1.984   1.401   4.709
  137OSM   H16S14951   1.923   1.480   4.662
  137OSM   H16T14952   1.904   1.375   4.774
  137OSM   C17S14953   2.038   1.283   4.624
  137OSM   H17S14954   1.960   1.228   4.565
  137OSM   H17T14955   2.082   1.202   4.682
  137OSM   C18S14956   2.117   1.329   4.508
  137OSM   H18S14957   2.204   1.392   4.528
  137OSM   H18T14958   2.053   1.407   4.482
  137OSM   H18U14959   2.112   1.264   4.417
  137OSM    C1F14960   2.250   1.710   5.945
  137OSM     OF14961   2.354   1.649   5.931
  137OSM    C2F14962   2.215   1.828   5.899
  137OSM    H2F14963   2.296   1.900   5.919
  137OSM    H2G14964   2.138   1.882   5.960
  137OSM    C3F14965   2.145   1.800   5.751
  137OSM    H3F14966   2.119   1.698   5.727
  137OSM    H3G14967   2.253   1.750   5.730
  137OSM    C4F14968   2.123   2.008   5.549
  137OSM    H4F14969   2.211   2.080   5.538
  137OSM    H4G14970   2.034   2.054   5.574
  137OSM    C5F14971   2.167   2.005   5.374
  137OSM    H5F14972   2.118   2.095   5.341
  137OSM    H5G14973   2.082   1.958   5.316
  137OSM    C6F14974   2.293   1.893   5.313
  137OSM    H6F14975   2.302   1.775   5.343
  137OSM    H6G14976   2.379   1.895   5.372
  137OSM    C7F14977   2.297   1.860   5.172
  137OSM    H7F14978   2.257   1.937   5.107
  137OSM    H7G14979   2.211   1.842   5.221
  137OSM    C8F14980   2.353   1.725   5.115
  137OSM    H8F14981   2.453   1.746   5.150
  137OSM    H8G14982   2.332   1.742   5.007
  137OSM    C9F14983   2.331   1.576   5.144
  137OSM    H9F14984   2.232   1.535   5.126
  137OSM   C10F14985   2.426   1.489   5.181
  137OSM   H10F14986   2.404   1.382   5.188
  137OSM   C11F14987   2.567   1.529   5.199
  137OSM   H11F14988   2.625   1.452   5.251
  137OSM   H11G14989   2.563   1.619   5.266
  137OSM   C12F14990   2.633   1.567   5.068
  137OSM   H12F14991   2.734   1.611   5.083
  137OSM   H12G14992   2.564   1.631   5.008
  137OSM   C13F14993   2.657   1.471   4.962
  137OSM   H13F14994   2.568   1.411   4.940
  137OSM   H13G14995   2.731   1.403   5.009
  137OSM   C14F14996   2.701   1.550   4.837
  137OSM   H14F14997   2.703   1.474   4.762
  137OSM   H14G14998   2.791   1.614   4.834
  137OSM   C15F14999   2.614   1.627   4.751
  137OSM   H15F15000   2.680   1.659   4.665
  137OSM   H15G15001   2.595   1.707   4.819
  137OSM   C16F15002   2.499   1.538   4.712
  137OSM   H16F15003   2.445   1.513   4.806
  137OSM   H16G15004   2.540   1.444   4.669
  137OSM   C17F15005   2.414   1.607   4.610
  137OSM   H17F15006   2.454   1.708   4.608
  137OSM   H17G15007   2.310   1.618   4.646
  137OSM   C18F15008   2.428   1.559   4.465
  137OSM   H18F15009   2.531   1.580   4.428
  137OSM   H18G15010   2.358   1.615   4.399
  137OSM   H18H15011   2.407   1.452   4.456
  138OSM      N15012   5.857   2.192   6.419
  138OSM    C1515013   5.783   2.158   6.293
  138OSM   H15A15014   5.814   2.060   6.258
  138OSM   H15B15015   5.810   2.224   6.211
  138OSM   H15C15016   5.676   2.163   6.302
  138OSM    C1415017   5.820   2.332   6.453
  138OSM   H14A15018   5.714   2.334   6.477
  138OSM   H14B15019   5.838   2.396   6.367
  138OSM   H14C15020   5.877   2.372   6.535
  138OSM    C1315021   5.816   2.099   6.531
  138OSM   H13A15022   5.709   2.083   6.539
  138OSM   H13B15023   5.852   2.134   6.627
  138OSM   H13C15024   5.865   2.002   6.516
  138OSM    C1215025   6.009   2.175   6.402
  138OSM   H12A15026   6.059   2.210   6.491
  138OSM   H12B15027   6.042   2.234   6.318
  138OSM    C1115028   6.070   2.034   6.377
  138OSM   H11A15029   6.078   1.976   6.472
  138OSM   H11B15030   6.176   2.051   6.344
  138OSM      P15031   5.985   1.807   6.285
  138OSM    O1315032   6.117   1.744   6.294
  138OSM    O1415033   5.890   1.772   6.393
  138OSM    O1115034   5.914   1.762   6.152
  138OSM    O1215035   5.998   1.965   6.276
  138OSM    C1S15036   5.832   1.850   6.077
  138OSM    H1S15037   5.822   1.949   6.123
  138OSM    H1T15038   5.730   1.808   6.071
  138OSM     NF15039   5.834   1.993   5.875
  138OSM    HNF15040   5.811   1.984   5.779
  138OSM    C2S15041   5.890   1.875   5.935
  138OSM    H2S15042   6.001   1.889   5.946
  138OSM    C3S15043   5.864   1.757   5.843
  138OSM    H3S15044   5.756   1.741   5.824
  138OSM     O315045   5.903   1.638   5.902
  138OSM    HO315046   5.945   1.661   5.987
  138OSM    C4S15047   5.939   1.785   5.716
  138OSM    H4S15048   6.048   1.787   5.727
  138OSM    C5S15049   5.886   1.808   5.594
  138OSM    H5S15050   5.778   1.793   5.576
  138OSM    C6S15051   5.969   1.837   5.472
  138OSM    H6S15052   6.076   1.852   5.497
  138OSM    H6T15053   5.932   1.929   5.422
  138OSM    C7S15054   5.953   1.723   5.373
  138OSM    H7S15055   5.853   1.719   5.327
  138OSM    H7T15056   5.958   1.636   5.436
  138OSM    C8S15057   6.062   1.722   5.266
  138OSM    H8S15058   6.058   1.628   5.207
  138OSM    H8T15059   6.163   1.728   5.313
  138OSM    C9S15060   6.044   1.837   5.167
  138OSM    H9S15061   6.063   1.936   5.215
  138OSM    H9T15062   5.939   1.836   5.131
  138OSM   C10S15063   6.136   1.812   5.050
  138OSM   H10S15064   6.120   1.711   5.007
  138OSM   H10T15065   6.242   1.814   5.086
  138OSM   C11S15066   6.111   1.907   4.934
  138OSM   H11S15067   6.211   1.920   4.912
  138OSM   H11T15068   6.065   2.005   4.960
  138OSM   C12S15069   6.079   1.853   4.796
  138OSM   H12S15070   6.151   1.773   4.767
  138OSM   H12T15071   6.088   1.933   4.719
  138OSM   C13S15072   5.935   1.810   4.799
  138OSM   H13S15073   5.878   1.902   4.825
  138OSM   H13T15074   5.921   1.733   4.878
  138OSM   C14S15075   5.882   1.760   4.667
  138OSM   H14S15076   5.939   1.669   4.635
  138OSM   H14T15077   5.890   1.837   4.587
  138OSM   C15S15078   5.736   1.723   4.687
  138OSM   H15S15079   5.667   1.806   4.712
  138OSM   H15T15080   5.729   1.647   4.770
  138OSM   C16S15081   5.685   1.659   4.563
  138OSM   H16S15082   5.573   1.668   4.566
  138OSM   H16T15083   5.730   1.558   4.569
  138OSM   C17S15084   5.727   1.706   4.427
  138OSM   H17S15085   5.707   1.642   4.344
  138OSM   H17T15086   5.833   1.690   4.408
  138OSM   C18S15087   5.645   1.820   4.381
  138OSM   H18S15088   5.534   1.805   4.389
  138OSM   H18T15089   5.674   1.841   4.276
  138OSM   H18U15090   5.673   1.898   4.449
  138OSM    C1F15091   5.848   2.113   5.928
  138OSM     OF15092   5.920   2.134   6.026
  138OSM    C2F15093   5.787   2.227   5.852
  138OSM    H2F15094   5.843   2.318   5.882
  138OSM    H2G15095   5.683   2.237   5.888
  138OSM    C3F15096   5.793   2.208   5.698
  138OSM    H3F15097   5.762   2.108   5.664
  138OSM    H3G15098   5.893   2.227   5.657
  138OSM    C4F15099   5.718   2.310   5.617
  138OSM    H4F15100   5.746   2.414   5.644
  138OSM    H4G15101   5.616   2.310   5.653
  138OSM    C5F15102   5.738   2.289   5.464
  138OSM    H5F15103   5.834   2.324   5.428
  138OSM    H5G15104   5.676   2.368   5.428
  138OSM    C6F15105   5.681   2.167   5.379
  138OSM    H6F15106   5.602   2.114   5.435
  138OSM    H6G15107   5.755   2.088   5.369
  138OSM    C7F15108   5.616   2.203   5.240
  138OSM    H7F15109   5.558   2.296   5.235
  138OSM    H7G15110   5.549   2.123   5.201
  138OSM    C8F15111   5.709   2.237   5.130
  138OSM    H8F15112   5.654   2.266   5.038
  138OSM    H8G15113   5.781   2.155   5.119
  138OSM    C9F15114   5.774   2.353   5.186
  138OSM    H9F15115   5.716   2.430   5.239
  138OSM   C10F15116   5.896   2.374   5.174
  138OSM   H10F15117   5.926   2.466   5.225
  138OSM   C11F15118   5.998   2.295   5.107
  138OSM   H11F15119   5.997   2.186   5.091
  138OSM   H11G15120   6.083   2.336   5.154
  138OSM   C12F15121   6.028   2.330   4.980
  138OSM   H12F15122   6.141   2.312   4.972
  138OSM   H12G15123   6.115   2.395   4.956
  138OSM   C13F15124   5.904   2.307   4.882
  138OSM   H13F15125   5.906   2.337   4.774
  138OSM   H13G15126   5.818   2.368   4.912
  138OSM   C14F15127   5.888   2.169   4.829
  138OSM   H14F15128   5.850   2.135   4.924
  138OSM   H14G15129   5.972   2.109   4.787
  138OSM   C15F15130   5.811   2.177   4.703
  138OSM   H15F15131   5.750   2.273   4.707
  138OSM   H15G15132   5.746   2.091   4.720
  138OSM   C16F15133   5.901   2.171   4.575
  138OSM   H16F15134   5.992   2.109   4.583
  138OSM   H16G15135   5.916   2.274   4.531
  138OSM   C17F15136   5.837   2.102   4.464
  138OSM   H17F15137   5.801   2.191   4.411
  138OSM   H17G15138   5.753   2.045   4.500
  138OSM   C18F15139   5.882   2.085   4.330
  138OSM   H18F15140   5.922   2.184   4.286
  138OSM   H18G15141   5.789   2.057   4.271
  138OSM   H18H15142   5.951   2.003   4.322
  139OSM      N15143   5.994   5.312   6.450
  139OSM    C1515144   5.846   5.307   6.438
  139OSM   H15A15145   5.806   5.209   6.456
  139OSM   H15B15146   5.815   5.338   6.338
  139OSM   H15C15147   5.803   5.380   6.506
  139OSM    C1415148   6.037   5.452   6.410
  139OSM   H14A15149   6.000   5.480   6.311
  139OSM   H14B15150   6.146   5.455   6.401
  139OSM   H14C15151   6.006   5.530   6.477
  139OSM    C1315152   6.041   5.287   6.588
  139OSM   H13A15153   6.021   5.186   6.621
  139OSM   H13B15154   6.002   5.362   6.655
  139OSM   H13C15155   6.150   5.298   6.587
  139OSM    C1215156   6.061   5.211   6.357
  139OSM   H12A15157   6.043   5.244   6.255
  139OSM   H12B15158   6.016   5.115   6.369
  139OSM    C1115159   6.214   5.191   6.373
  139OSM   H11A15160   6.255   5.121   6.297
  139OSM   H11B15161   6.236   5.143   6.471
  139OSM      P15162   6.343   5.380   6.241
  139OSM    O1315163   6.372   5.521   6.274
  139OSM    O1415164   6.454   5.292   6.200
  139OSM    O1115165   6.226   5.375   6.131
  139OSM    O1215166   6.280   5.317   6.371
  139OSM    C1S15167   6.269   5.420   5.999
  139OSM    H1S15168   6.379   5.422   5.991
  139OSM    H1T15169   6.241   5.526   5.980
  139OSM     NF15170   6.274   5.331   5.755
  139OSM    HNF15171   6.229   5.364   5.673
  139OSM    C2S15172   6.204   5.337   5.882
  139OSM    H2S15173   6.189   5.233   5.922
  139OSM    C3S15174   6.070   5.395   5.843
  139OSM    H3S15175   6.093   5.495   5.804
  139OSM     O315176   5.982   5.413   5.952
  139OSM    HO315177   6.039   5.426   6.029
  139OSM    C4S15178   6.014   5.308   5.734
  139OSM    H4S15179   5.994   5.206   5.764
  139OSM    C5S15180   6.008   5.339   5.602
  139OSM    H5S15181   6.045   5.437   5.566
  139OSM    C6S15182   5.952   5.244   5.500
  139OSM    H6S15183   5.905   5.155   5.549
  139OSM    H6T15184   6.028   5.205   5.430
  139OSM    C7S15185   5.845   5.318   5.419
  139OSM    H7S15186   5.776   5.367   5.492
  139OSM    H7T15187   5.786   5.242   5.364
  139OSM    C8S15188   5.901   5.423   5.320
  139OSM    H8S15189   5.976   5.487   5.372
  139OSM    H8T15190   5.818   5.493   5.295
  139OSM    C9S15191   5.956   5.356   5.190
  139OSM    H9S15192   5.872   5.303   5.142
  139OSM    H9T15193   6.043   5.291   5.212
  139OSM   C10S15194   6.004   5.451   5.083
  139OSM   H10S15195   6.062   5.520   5.141
  139OSM   H10T15196   5.911   5.495   5.045
  139OSM   C11S15197   6.094   5.408   4.965
  139OSM   H11S15198   6.024   5.380   4.883
  139OSM   H11T15199   6.164   5.329   4.992
  139OSM   C12S15200   6.185   5.516   4.907
  139OSM   H12S15201   6.276   5.546   4.962
  139OSM   H12T15202   6.130   5.607   4.913
  139OSM   C13S15203   6.224   5.502   4.763
  139OSM   H13S15204   6.139   5.487   4.692
  139OSM   H13T15205   6.297   5.422   4.759
  139OSM   C14S15206   6.300   5.627   4.738
  139OSM   H14S15207   6.360   5.661   4.821
  139OSM   H14T15208   6.222   5.694   4.707
  139OSM   C15S15209   6.404   5.625   4.638
  139OSM   H15S15210   6.469   5.712   4.615
  139OSM   H15T15211   6.332   5.597   4.563
  139OSM   C16S15212   6.441   5.515   4.563
  139OSM   H16S15213   6.378   5.421   4.565
  139OSM   H16T15214   6.512   5.529   4.650
  139OSM   C17S15215   6.528   5.530   4.445
  139OSM   H17S15216   6.605   5.612   4.453
  139OSM   H17T15217   6.474   5.544   4.359
  139OSM   C18S15218   6.573   5.415   4.366
  139OSM   H18S15219   6.599   5.309   4.384
  139OSM   H18T15220   6.661   5.437   4.416
  139OSM   H18U15221   6.621   5.459   4.283
  139OSM    C1F15222   6.397   5.315   5.737
  139OSM     OF15223   6.466   5.319   5.832
  139OSM    C2F15224   6.447   5.321   5.598
  139OSM    H2F15225   6.545   5.375   5.604
  139OSM    H2G15226   6.372   5.354   5.525
  139OSM    C3F15227   6.475   5.192   5.532
  139OSM    H3F15228   6.582   5.183   5.548
  139OSM    H3G15229   6.517   5.209   5.432
  139OSM    C4F15230   6.374   5.077   5.579
  139OSM    H4F15231   6.362   5.062   5.687
  139OSM    H4G15232   6.384   4.968   5.563
  139OSM    C5F15233   6.263   5.070   5.489
  139OSM    H5F15234   6.306   5.098   5.390
  139OSM    H5G15235   6.216   5.150   5.548
  139OSM    C6F15236   6.195   4.932   5.493
  139OSM    H6F15237   6.099   4.966   5.452
  139OSM    H6G15238   6.182   4.902   5.600
  139OSM    C7F15239   6.259   4.810   5.418
  139OSM    H7F15240   6.194   4.723   5.438
  139OSM    H7G15241   6.356   4.774   5.457
  139OSM    C8F15242   6.269   4.816   5.266
  139OSM    H8F15243   6.263   4.711   5.228
  139OSM    H8G15244   6.367   4.858   5.237
  139OSM    C9F15245   6.155   4.900   5.219
  139OSM    H9F15246   6.060   4.846   5.215
  139OSM   C10F15247   6.160   5.017   5.152
  139OSM   H10F15248   6.068   5.055   5.109
  139OSM   C11F15249   6.278   5.092   5.107
  139OSM   H11F15250   6.367   5.058   5.165
  139OSM   H11G15251   6.264   5.200   5.123
  139OSM   C12F15252   6.318   5.065   4.961
  139OSM   H12F15253   6.343   4.957   4.955
  139OSM   H12G15254   6.412   5.123   4.956
  139OSM   C13F15255   6.244   5.112   4.832
  139OSM   H13F15256   6.267   5.217   4.814
  139OSM   H13G15257   6.141   5.131   4.843
  139OSM   C14F15258   6.254   5.022   4.703
  139OSM   H14F15259   6.247   4.914   4.731
  139OSM   H14G15260   6.347   5.039   4.648
  139OSM   C15F15261   6.175   5.061   4.582
  139OSM   H15F15262   6.104   4.986   4.603
  139OSM   H15G15263   6.208   5.024   4.484
  139OSM   C16F15264   6.136   5.209   4.578
  139OSM   H16F15265   6.229   5.265   4.557
  139OSM   H16G15266   6.099   5.243   4.678
  139OSM   C17F15267   6.023   5.246   4.480
  139OSM   H17F15268   5.997   5.352   4.502
  139OSM   H17G15269   5.933   5.187   4.503
  139OSM   C18F15270   6.049   5.233   4.331
  139OSM   H18F15271   5.972   5.290   4.274
  139OSM   H18G15272   6.047   5.127   4.297
  139OSM   H18H15273   6.146   5.279   4.307
  140OSM      N15274   1.429   1.548   6.384
  140OSM    C1515275   1.423   1.650   6.492
  140OSM   H15A15276   1.347   1.621   6.564
  140OSM   H15B15277   1.398   1.747   6.452
  140OSM   H15C15278   1.518   1.654   6.542
  140OSM    C1415279   1.298   1.547   6.310
  140OSM   H14A15280   1.278   1.643   6.264
  140OSM   H14B15281   1.215   1.521   6.376
  140OSM   H14C15282   1.301   1.473   6.231
  140OSM    C1315283   1.539   1.588   6.291
  140OSM   H13A15284   1.638   1.580   6.335
  140OSM   H13B15285   1.525   1.688   6.253
  140OSM   H13C15286   1.547   1.521   6.204
  140OSM    C1215287   1.457   1.409   6.443
  140OSM   H12A15288   1.378   1.387   6.514
  140OSM   H12B15289   1.550   1.408   6.498
  140OSM    C1115290   1.472   1.288   6.347
  140OSM   H11A15291   1.388   1.283   6.276
  140OSM   H11B15292   1.463   1.195   6.408
  140OSM      P15293   1.716   1.200   6.336
  140OSM    O1315294   1.796   1.282   6.431
  140OSM    O1415295   1.664   1.067   6.371
  140OSM    O1115296   1.804   1.171   6.211
  140OSM    O1215297   1.597   1.292   6.279
  140OSM    C1S15298   1.829   1.289   6.145
  140OSM    H1S15299   1.940   1.298   6.144
  140OSM    H1T15300   1.779   1.386   6.182
  140OSM     NF15301   1.654   1.309   5.973
  140OSM    HNF15302   1.609   1.232   5.935
  140OSM    C2S15303   1.796   1.292   6.001
  140OSM    H2S15304   1.821   1.382   5.992
  140OSM    C3S15305   1.872   1.169   5.934
  140OSM    H3S15306   1.844   1.078   5.985
  140OSM     O315307   2.017   1.183   5.938
  140OSM    HO315308   2.038   1.274   5.963
  140OSM    C4S15309   1.840   1.166   5.787
  140OSM    H4S15310   1.900   1.222   5.713
  140OSM    C5S15311   1.738   1.100   5.735
  140OSM    H5S15312   1.688   1.028   5.800
  140OSM    C6S15313   1.705   1.102   5.590
  140OSM    H6S15314   1.697   1.203   5.543
  140OSM    H6T15315   1.601   1.062   5.581
  140OSM    C7S15316   1.811   1.033   5.505
  140OSM    H7S15317   1.825   0.932   5.546
  140OSM    H7T15318   1.915   1.063   5.513
  140OSM    C8S15319   1.759   1.033   5.361
  140OSM    H8S15320   1.712   1.122   5.319
  140OSM    H8T15321   1.669   0.974   5.386
  140OSM    C9S15322   1.871   0.985   5.265
  140OSM    H9S15323   1.900   0.884   5.272
  140OSM    H9T15324   1.967   1.008   5.310
  140OSM   C10S15325   1.863   0.987   5.113
  140OSM   H10S15326   1.789   0.933   5.066
  140OSM   H10T15327   1.953   0.939   5.066
  140OSM   C11S15328   1.803   1.098   5.045
  140OSM   H11S15329   1.897   1.119   5.087
  140OSM   H11T15330   1.716   1.138   5.098
  140OSM   C12S15331   1.792   1.073   4.897
  140OSM   H12S15332   1.701   1.015   4.874
  140OSM   H12T15333   1.885   1.031   4.849
  140OSM   C13S15334   1.787   1.200   4.829
  140OSM   H13S15335   1.896   1.215   4.846
  140OSM   H13T15336   1.731   1.273   4.891
  140OSM   C14S15337   1.747   1.198   4.681
  140OSM   H14S15338   1.644   1.163   4.678
  140OSM   H14T15339   1.811   1.128   4.625
  140OSM   C15S15340   1.737   1.331   4.605
  140OSM   H15S15341   1.830   1.363   4.566
  140OSM   H15T15342   1.711   1.416   4.668
  140OSM   C16S15343   1.727   1.334   4.456
  140OSM   H16S15344   1.623   1.311   4.437
  140OSM   H16T15345   1.798   1.262   4.404
  140OSM   C17S15346   1.750   1.476   4.402
  140OSM   H17S15347   1.687   1.558   4.435
  140OSM   H17T15348   1.716   1.448   4.305
  140OSM   C18S15349   1.888   1.529   4.391
  140OSM   H18S15350   1.939   1.549   4.485
  140OSM   H18T15351   1.902   1.624   4.335
  140OSM   H18U15352   1.939   1.441   4.343
  140OSM    C1F15353   1.590   1.433   5.987
  140OSM     OF15354   1.643   1.541   6.010
  140OSM    C2F15355   1.444   1.445   5.972
  140OSM    H2F15356   1.419   1.551   5.948
  140OSM    H2G15357   1.399   1.428   6.071
  140OSM    C3F15358   1.394   1.338   5.874
  140OSM    H3F15359   1.284   1.346   5.866
  140OSM    H3G15360   1.416   1.239   5.915
  140OSM    C4F15361   1.450   1.333   5.733
  140OSM    H4F15362   1.404   1.243   5.685
  140OSM    H4G15363   1.559   1.338   5.721
  140OSM    C5F15364   1.405   1.444   5.646
  140OSM    H5F15365   1.441   1.543   5.683
  140OSM    H5G15366   1.300   1.439   5.672
  140OSM    C6F15367   1.419   1.401   5.499
  140OSM    H6F15368   1.363   1.307   5.476
  140OSM    H6G15369   1.516   1.427   5.454
  140OSM    C7F15370   1.341   1.487   5.413
  140OSM    H7F15371   1.386   1.584   5.443
  140OSM    H7G15372   1.247   1.464   5.465
  140OSM    C8F15373   1.305   1.465   5.266
  140OSM    H8F15374   1.224   1.526   5.223
  140OSM    H8G15375   1.240   1.380   5.241
  140OSM    C9F15376   1.431   1.495   5.193
  140OSM    H9F15377   1.465   1.599   5.182
  140OSM   C10F15378   1.501   1.400   5.142
  140OSM   H10F15379   1.589   1.429   5.085
  140OSM   C11F15380   1.453   1.260   5.158
  140OSM   H11F15381   1.368   1.244   5.228
  140OSM   H11G15382   1.539   1.212   5.207
  140OSM   C12F15383   1.417   1.188   5.029
  140OSM   H12F15384   1.398   1.082   5.058
  140OSM   H12G15385   1.503   1.195   4.960
  140OSM   C13F15386   1.296   1.235   4.950
  140OSM   H13F15387   1.211   1.256   5.018
  140OSM   H13G15388   1.269   1.151   4.882
  140OSM   C14F15389   1.328   1.354   4.859
  140OSM   H14F15390   1.345   1.448   4.912
  140OSM   H14G15391   1.239   1.376   4.807
  140OSM   C15F15392   1.398   1.324   4.725
  140OSM   H15F15393   1.337   1.248   4.670
  140OSM   H15G15394   1.496   1.280   4.745
  140OSM   C16F15395   1.418   1.449   4.636
  140OSM   H16F15396   1.473   1.414   4.546
  140OSM   H16G15397   1.478   1.524   4.692
  140OSM   C17F15398   1.291   1.515   4.581
  140OSM   H17F15399   1.235   1.579   4.650
  140OSM   H17G15400   1.230   1.426   4.575
  140OSM   C18F15401   1.308   1.588   4.446
  140OSM   H18F15402   1.219   1.650   4.421
  140OSM   H18G15403   1.325   1.517   4.362
  140OSM   H18H15404   1.396   1.655   4.453
  141OSM      N15405   0.104   3.560   6.427
  141OSM    C1515406   0.043   3.455   6.341
  141OSM   H15A15407  -0.051   3.425   6.388
  141OSM   H15B15408   0.109   3.371   6.326
  141OSM   H15C15409   0.016   3.498   6.245
  141OSM    C1415410  -0.003   3.657   6.437
  141OSM   H14A15411  -0.040   3.698   6.344
  141OSM   H14B15412   0.045   3.741   6.488
  141OSM   H14C15413  -0.087   3.625   6.499
  141OSM    C1315414   0.143   3.505   6.560
  141OSM   H13A15415   0.060   3.459   6.606
  141OSM   H13B15416   0.173   3.582   6.630
  141OSM   H13C15417   0.220   3.430   6.544
  141OSM    C1215418   0.228   3.629   6.377
  141OSM   H12A15419   0.253   3.708   6.447
  141OSM   H12B15420   0.215   3.677   6.281
  141OSM    C1115421   0.351   3.538   6.373
  141OSM   H11A15422   0.374   3.500   6.475
  141OSM   H11B15423   0.440   3.599   6.342
  141OSM      P15424   0.415   3.306   6.272
  141OSM    O1315425   0.558   3.339   6.277
  141OSM    O1415426   0.363   3.208   6.372
  141OSM    O1115427   0.382   3.257   6.125
  141OSM    O1215428   0.325   3.434   6.281
  141OSM    C1S15429   0.248   3.257   6.075
  141OSM    H1S15430   0.187   3.340   6.117
  141OSM    H1T15431   0.198   3.160   6.096
  141OSM     NF15432   0.299   3.165   5.857
  141OSM    HNF15433   0.396   3.160   5.839
  141OSM    C2S15434   0.250   3.274   5.924
  141OSM    H2S15435   0.146   3.300   5.884
  141OSM    C3S15436   0.328   3.387   5.887
  141OSM    H3S15437   0.432   3.394   5.927
  141OSM     O315438   0.247   3.488   5.939
  141OSM    HO315439   0.210   3.466   6.024
  141OSM    C4S15440   0.332   3.397   5.739
  141OSM    H4S15441   0.243   3.443   5.697
  141OSM    C5S15442   0.430   3.357   5.659
  141OSM    H5S15443   0.529   3.353   5.708
  141OSM    C6S15444   0.418   3.375   5.510
  141OSM    H6S15445   0.436   3.297   5.435
  141OSM    H6T15446   0.523   3.405   5.495
  141OSM    C7S15447   0.298   3.461   5.451
  141OSM    H7S15448   0.282   3.557   5.501
  141OSM    H7T15449   0.198   3.449   5.496
  141OSM    C8S15450   0.304   3.478   5.294
  141OSM    H8S15451   0.211   3.539   5.272
  141OSM    H8T15452   0.279   3.384   5.246
  141OSM    C9S15453   0.440   3.529   5.215
  141OSM    H9S15454   0.532   3.496   5.257
  141OSM    H9T15455   0.468   3.640   5.201
  141OSM   C10S15456   0.431   3.502   5.070
  141OSM   H10S15457   0.383   3.407   5.044
  141OSM   H10T15458   0.511   3.551   5.006
  141OSM   C11S15459   0.316   3.564   5.021
  141OSM   H11S15460   0.301   3.637   5.100
  141OSM   H11T15461   0.218   3.557   5.072
  141OSM   C12S15462   0.347   3.604   4.873
  141OSM   H12S15463   0.438   3.660   4.839
  141OSM   H12T15464   0.308   3.692   4.825
  141OSM   C13S15465   0.272   3.496   4.809
  141OSM   H13S15466   0.167   3.483   4.844
  141OSM   H13T15467   0.346   3.416   4.815
  141OSM   C14S15468   0.240   3.529   4.677
  141OSM   H14S15469   0.343   3.566   4.653
  141OSM   H14T15470   0.183   3.621   4.690
  141OSM   C15S15471   0.143   3.428   4.602
  141OSM   H15S15472   0.066   3.403   4.674
  141OSM   H15T15473   0.214   3.344   4.601
  141OSM   C16S15474   0.048   3.452   4.475
  141OSM   H16S15475   0.098   3.445   4.378
  141OSM   H16T15476  -0.010   3.546   4.474
  141OSM   C17S15477  -0.034   3.354   4.399
  141OSM   H17S15478  -0.120   3.337   4.461
  141OSM   H17T15479   0.020   3.261   4.390
  141OSM   C18S15480  -0.061   3.418   4.261
  141OSM   H18S15481  -0.124   3.369   4.187
  141OSM   H18T15482   0.019   3.443   4.189
  141OSM   H18U15483  -0.075   3.522   4.283
  141OSM    C1F15484   0.212   3.078   5.831
  141OSM     OF15485   0.100   3.083   5.877
  141OSM    C2F15486   0.258   2.972   5.751
  141OSM    H2F15487   0.236   2.889   5.807
  141OSM    H2G15488   0.351   2.962   5.699
  141OSM    C3F15489   0.206   2.951   5.626
  141OSM    H3F15490   0.101   2.946   5.654
  141OSM    H3G15491   0.253   2.853   5.590
  141OSM    C4F15492   0.213   3.072   5.540
  141OSM    H4F15493   0.313   3.102   5.524
  141OSM    H4G15494   0.161   3.155   5.586
  141OSM    C5F15495   0.161   3.039   5.407
  141OSM    H5F15496   0.051   3.028   5.414
  141OSM    H5G15497   0.219   2.947   5.412
  141OSM    C6F15498   0.213   3.113   5.289
  141OSM    H6F15499   0.311   3.076   5.251
  141OSM    H6G15500   0.225   3.213   5.329
  141OSM    C7F15501   0.116   3.115   5.176
  141OSM    H7F15502   0.018   3.158   5.199
  141OSM    H7G15503   0.074   3.014   5.175
  141OSM    C8F15504   0.182   3.178   5.050
  141OSM    H8F15505   0.270   3.124   5.005
  141OSM    H8G15506   0.228   3.273   5.083
  141OSM    C9F15507   0.070   3.206   4.955
  141OSM    H9F15508  -0.003   3.279   4.985
  141OSM   C10F15509   0.037   3.144   4.846
  141OSM   H10F15510  -0.053   3.164   4.787
  141OSM   C11F15511   0.106   3.033   4.798
  141OSM   H11F15512   0.052   2.948   4.843
  141OSM   H11G15513   0.217   3.033   4.807
  141OSM   C12F15514   0.052   3.025   4.672
  141OSM   H12F15515  -0.052   2.992   4.651
  141OSM   H12G15516   0.068   2.917   4.679
  141OSM   C13F15517   0.140   3.108   4.573
  141OSM   H13F15518   0.089   3.201   4.563
  141OSM   H13G15519   0.106   3.089   4.471
  141OSM   C14F15520   0.300   3.109   4.582
  141OSM   H14F15521   0.388   3.047   4.558
  141OSM   H14G15522   0.340   3.090   4.677
  141OSM   C15F15523   0.358   3.107   4.446
  141OSM   H15F15524   0.334   3.205   4.487
  141OSM   H15G15525   0.279   3.065   4.381
  141OSM   C16F15526   0.492   3.158   4.386
  141OSM   H16F15527   0.547   3.064   4.391
  141OSM   H16G15528   0.525   3.205   4.480
  141OSM   C17F15529   0.522   3.244   4.240
  141OSM   H17F15530   0.601   3.316   4.259
  141OSM   H17G15531   0.457   3.322   4.200
  141OSM   C18F15532   0.521   3.192   4.098
  141OSM   H18F15533   0.429   3.137   4.074
  141OSM   H18G15534   0.612   3.133   4.103
  141OSM   H18H15535   0.510   3.255   4.009
  142OSM      N15536   6.366   1.267   6.550
  142OSM    C1515537   6.292   1.147   6.501
  142OSM   H15A15538   6.274   1.158   6.395
  142OSM   H15B15539   6.197   1.131   6.550
  142OSM   H15C15540   6.348   1.055   6.517
  142OSM    C1415541   6.361   1.275   6.698
  142OSM   H14A15542   6.424   1.199   6.742
  142OSM   H14B15543   6.261   1.259   6.735
  142OSM   H14C15544   6.392   1.373   6.735
  142OSM    C1315545   6.510   1.260   6.509
  142OSM   H13A15546   6.563   1.342   6.556
  142OSM   H13B15547   6.520   1.271   6.401
  142OSM   H13C15548   6.554   1.166   6.537
  142OSM    C1215549   6.306   1.396   6.495
  142OSM   H12A15550   6.378   1.474   6.519
  142OSM   H12B15551   6.215   1.417   6.549
  142OSM    C1115552   6.273   1.412   6.345
  142OSM   H11A15553   6.241   1.518   6.331
  142OSM   H11B15554   6.188   1.348   6.314
  142OSM      P15555   6.447   1.472   6.152
  142OSM    O1315556   6.466   1.609   6.205
  142OSM    O1415557   6.563   1.400   6.096
  142OSM    O1115558   6.330   1.473   6.044
  142OSM    O1215559   6.386   1.380   6.266
  142OSM    C1S15560   6.284   1.345   5.995
  142OSM    H1S15561   6.194   1.317   6.054
  142OSM    H1T15562   6.356   1.261   6.008
  142OSM     NF15563   6.369   1.381   5.764
  142OSM    HNF15564   6.372   1.468   5.719
  142OSM    C2S15565   6.252   1.355   5.843
  142OSM    H2S15566   6.207   1.258   5.811
  142OSM    C3S15567   6.146   1.462   5.824
  142OSM    H3S15568   6.184   1.564   5.851
  142OSM     O315569   6.035   1.424   5.905
  142OSM    HO315570   6.072   1.417   5.993
  142OSM    C4S15571   6.106   1.473   5.679
  142OSM    H4S15572   6.150   1.558   5.624
  142OSM    C5S15573   6.028   1.386   5.614
  142OSM    H5S15574   5.993   1.296   5.666
  142OSM    C6S15575   5.988   1.397   5.470
  142OSM    H6S15576   6.042   1.481   5.423
  142OSM    H6T15577   5.878   1.413   5.462
  142OSM    C7S15578   6.037   1.286   5.379
  142OSM    H7S15579   5.992   1.304   5.279
  142OSM    H7T15580   5.998   1.190   5.420
  142OSM    C8S15581   6.191   1.280   5.368
  142OSM    H8S15582   6.217   1.205   5.289
  142OSM    H8T15583   6.231   1.242   5.464
  142OSM    C9S15584   6.262   1.412   5.336
  142OSM    H9S15585   6.251   1.486   5.418
  142OSM    H9T15586   6.216   1.457   5.245
  142OSM   C10S15587   6.410   1.392   5.310
  142OSM   H10S15588   6.424   1.305   5.243
  142OSM   H10T15589   6.463   1.370   5.406
  142OSM   C11S15590   6.472   1.516   5.244
  142OSM   H11S15591   6.582   1.504   5.256
  142OSM   H11T15592   6.431   1.603   5.299
  142OSM   C12S15593   6.447   1.538   5.094
  142OSM   H12S15594   6.339   1.564   5.084
  142OSM   H12T15595   6.469   1.440   5.047
  142OSM   C13S15596   6.523   1.653   5.023
  142OSM   H13S15597   6.629   1.664   5.047
  142OSM   H13T15598   6.474   1.748   5.052
  142OSM   C14S15599   6.550   1.633   4.873
  142OSM   H14S15600   6.620   1.546   4.865
  142OSM   H14T15601   6.608   1.721   4.836
  142OSM   C15S15602   6.427   1.605   4.789
  142OSM   H15S15603   6.368   1.699   4.780
  142OSM   H15T15604   6.364   1.530   4.843
  142OSM   C16S15605   6.460   1.547   4.651
  142OSM   H16S15606   6.365   1.526   4.598
  142OSM   H16T15607   6.512   1.449   4.665
  142OSM   C17S15608   6.546   1.640   4.565
  142OSM   H17S15609   6.652   1.633   4.599
  142OSM   H17T15610   6.512   1.745   4.583
  142OSM   C18S15611   6.540   1.610   4.415
  142OSM   H18S15612   6.546   1.501   4.397
  142OSM   H18T15613   6.625   1.659   4.362
  142OSM   H18U15614   6.446   1.647   4.370
  142OSM    C1F15615   6.473   1.299   5.763
  142OSM     OF15616   6.465   1.183   5.801
  142OSM    C2F15617   6.595   1.361   5.704
  142OSM    H2F15618   6.610   1.459   5.755
  142OSM    H2G15619   6.573   1.384   5.597
  142OSM    C3F15620   6.728   1.284   5.716
  142OSM    H3F15621   6.753   1.258   5.821
  142OSM    H3G15622   6.802   1.359   5.680
  142OSM    C4F15623   6.740   1.160   5.628
  142OSM    H4F15624   6.700   1.072   5.684
  142OSM    H4G15625   6.847   1.139   5.605
  142OSM    C5F15626   6.667   1.177   5.496
  142OSM    H5F15627   6.688   1.276   5.451
  142OSM    H5G15628   6.557   1.163   5.515
  142OSM    C6F15629   6.710   1.076   5.394
  142OSM    H6F15630   6.719   0.991   5.465
  142OSM    H6G15631   6.812   1.082   5.356
  142OSM    C7F15632   6.603   1.061   5.283
  142OSM    H7F15633   6.501   1.059   5.328
  142OSM    H7G15634   6.622   0.968   5.225
  142OSM    C8F15635   6.608   1.150   5.165
  142OSM    H8F15636   6.626   1.251   5.199
  142OSM    H8G15637   6.519   1.132   5.100
  142OSM    C9F15638   6.723   1.126   5.083
  142OSM    H9F15639   6.818   1.142   5.136
  142OSM   C10F15640   6.718   1.072   4.964
  142OSM   H10F15641   6.802   1.071   4.905
  142OSM   C11F15642   6.623   1.021   4.871
  142OSM   H11F15643   6.525   1.064   4.890
  142OSM   H11G15644   6.623   0.917   4.900
  142OSM   C12F15645   6.673   1.007   4.725
  142OSM   H12F15646   6.729   0.917   4.696
  142OSM   H12G15647   6.713   1.094   4.676
  142OSM   C13F15648   6.570   0.951   4.646
  142OSM   H13F15649   6.524   0.906   4.739
  142OSM   H13G15650   6.585   0.881   4.559
  142OSM   C14F15651   6.453   1.020   4.628
  142OSM   H14F15652   6.438   1.075   4.720
  142OSM   H14G15653   6.376   0.940   4.603
  142OSM   C15F15654   6.482   1.114   4.528
  142OSM   H15F15655   6.513   1.060   4.437
  142OSM   H15G15656   6.557   1.193   4.557
  142OSM   C16F15657   6.352   1.170   4.520
  142OSM   H16F15658   6.396   1.265   4.476
  142OSM   H16G15659   6.336   1.258   4.587
  142OSM   C17F15660   6.213   1.067   4.432
  142OSM   H17F15661   6.109   1.111   4.406
  142OSM   H17G15662   6.261   1.047   4.508
  142OSM   C18F15663   6.176   0.994   4.311
  142OSM   H18F15664   6.254   0.926   4.346
  142OSM   H18G15665   6.175   1.051   4.218
  142OSM   H18H15666   6.063   0.977   4.308
  143OSM      N15667   6.914   5.163   6.468
  143OSM    C1515668   6.793   5.249   6.464
  143OSM   H15A15669   6.754   5.264   6.563
  143OSM   H15B15670   6.713   5.207   6.404
  143OSM   H15C15671   6.821   5.343   6.416
  143OSM    C1415672   7.012   5.202   6.565
  143OSM   H14A15673   6.976   5.189   6.665
  143OSM   H14B15674   7.047   5.302   6.544
  143OSM   H14C15675   7.094   5.130   6.550
  143OSM    C1315676   6.876   5.024   6.503
  143OSM   H13A15677   6.821   5.015   6.594
  143OSM   H13B15678   6.959   4.951   6.496
  143OSM   H13C15679   6.807   4.986   6.427
  143OSM    C1215680   6.988   5.173   6.336
  143OSM   H12A15681   6.910   5.179   6.263
  143OSM   H12B15682   7.039   5.079   6.313
  143OSM    C1115683   7.061   5.297   6.290
  143OSM   H11A15684   7.087   5.282   6.182
  143OSM   H11B15685   7.152   5.302   6.352
  143OSM      P15686   7.033   5.548   6.261
  143OSM    O1315687   6.923   5.644   6.272
  143OSM    O1415688   7.149   5.570   6.348
  143OSM    O1115689   7.074   5.525   6.111
  143OSM    O1215690   6.972   5.408   6.302
  143OSM    C1S15691   7.207   5.510   6.062
  143OSM    H1S15692   7.260   5.429   6.118
  143OSM    H1T15693   7.263   5.604   6.077
  143OSM     NF15694   7.315   5.411   5.857
  143OSM    HNF15695   7.388   5.447   5.802
  143OSM    C2S15696   7.206   5.488   5.906
  143OSM    H2S15697   7.105   5.444   5.880
  143OSM    C3S15698   7.215   5.616   5.833
  143OSM    H3S15699   7.316   5.660   5.857
  143OSM     O315700   7.100   5.689   5.866
  143OSM    HO315701   7.103   5.689   5.963
  143OSM    C4S15702   7.198   5.601   5.686
  143OSM    H4S15703   7.093   5.605   5.657
  143OSM    C5S15704   7.292   5.599   5.591
  143OSM    H5S15705   7.394   5.632   5.620
  143OSM    C6S15706   7.255   5.586   5.444
  143OSM    H6S15707   7.144   5.597   5.435
  143OSM    H6T15708   7.298   5.499   5.393
  143OSM    C7S15709   7.294   5.694   5.348
  143OSM    H7S15710   7.401   5.716   5.332
  143OSM    H7T15711   7.237   5.770   5.406
  143OSM    C8S15712   7.211   5.738   5.234
  143OSM    H8S15713   7.259   5.829   5.193
  143OSM    H8T15714   7.106   5.752   5.269
  143OSM    C9S15715   7.196   5.651   5.123
  143OSM    H9S15716   7.118   5.698   5.060
  143OSM    H9T15717   7.153   5.565   5.178
  143OSM   C10S15718   7.329   5.636   5.054
  143OSM   H10S15719   7.408   5.611   5.129
  143OSM   H10T15720   7.363   5.730   5.004
  143OSM   C11S15721   7.302   5.524   4.958
  143OSM   H11S15722   7.251   5.446   5.021
  143OSM   H11T15723   7.395   5.481   4.919
  143OSM   C12S15724   7.207   5.565   4.845
  143OSM   H12S15725   7.128   5.636   4.873
  143OSM   H12T15726   7.153   5.475   4.812
  143OSM   C13S15727   7.285   5.625   4.729
  143OSM   H13S15728   7.326   5.541   4.671
  143OSM   H13T15729   7.377   5.674   4.769
  143OSM   C14S15730   7.211   5.737   4.650
  143OSM   H14S15731   7.276   5.760   4.563
  143OSM   H14T15732   7.200   5.825   4.715
  143OSM   C15S15733   7.069   5.723   4.592
  143OSM   H15S15734   7.032   5.806   4.532
  143OSM   H15T15735   6.992   5.696   4.674
  143OSM   C16S15736   7.064   5.627   4.475
  143OSM   H16S15737   6.962   5.598   4.447
  143OSM   H16T15738   7.085   5.578   4.573
  143OSM   C17S15739   7.167   5.588   4.354
  143OSM   H17S15740   7.270   5.597   4.390
  143OSM   H17T15741   7.136   5.662   4.281
  143OSM   C18S15742   7.169   5.452   4.264
  143OSM   H18S15743   7.227   5.439   4.174
  143OSM   H18T15744   7.060   5.442   4.245
  143OSM   H18U15745   7.188   5.349   4.300
  143OSM    C1F15746   7.310   5.291   5.889
  143OSM     OF15747   7.200   5.258   5.928
  143OSM    C2F15748   7.434   5.209   5.875
  143OSM    H2F15749   7.472   5.177   5.975
  143OSM    H2G15750   7.497   5.273   5.823
  143OSM    C3F15751   7.452   5.102   5.767
  143OSM    H3F15752   7.383   5.029   5.774
  143OSM    H3G15753   7.536   5.033   5.787
  143OSM    C4F15754   7.415   5.124   5.622
  143OSM    H4F15755   7.470   5.206   5.596
  143OSM    H4G15756   7.327   5.156   5.571
  143OSM    C5F15757   7.413   4.991   5.559
  143OSM    H5F15758   7.348   4.917   5.614
  143OSM    H5G15759   7.525   4.986   5.567
  143OSM    C6F15760   7.377   4.958   5.423
  143OSM    H6F15761   7.283   4.985   5.388
  143OSM    H6G15762   7.381   4.849   5.412
  143OSM    C7F15763   7.447   5.039   5.330
  143OSM    H7F15764   7.506   4.973   5.268
  143OSM    H7G15765   7.505   5.109   5.392
  143OSM    C8F15766   7.379   5.113   5.223
  143OSM    H8F15767   7.338   5.068   5.140
  143OSM    H8G15768   7.461   5.142   5.159
  143OSM    C9F15769   7.299   5.222   5.284
  143OSM    H9F15770   7.348   5.279   5.364
  143OSM   C10F15771   7.183   5.259   5.240
  143OSM   H10F15772   7.129   5.335   5.298
  143OSM   C11F15773   7.120   5.192   5.123
  143OSM   H11F15774   7.063   5.124   5.177
  143OSM   H11G15775   7.174   5.111   5.071
  143OSM   C12F15776   7.024   5.289   5.047
  143OSM   H12F15777   7.089   5.348   4.987
  143OSM   H12G15778   6.958   5.346   5.114
  143OSM   C13F15779   6.918   5.242   4.950
  143OSM   H13F15780   6.808   5.249   4.939
  143OSM   H13G15781   6.900   5.174   5.018
  143OSM   C14F15782   6.981   5.163   4.855
  143OSM   H14F15783   6.911   5.105   4.789
  143OSM   H14G15784   7.080   5.124   4.886
  143OSM   C15F15785   7.016   5.236   4.760
  143OSM   H15F15786   7.094   5.302   4.793
  143OSM   H15G15787   6.913   5.286   4.740
  143OSM   C16F15788   7.063   5.129   4.667
  143OSM   H16F15789   7.090   5.203   4.619
  143OSM   H16G15790   6.971   5.116   4.625
  143OSM   C17F15791   7.181   5.098   4.576
  143OSM   H17F15792   7.199   5.016   4.642
  143OSM   H17G15793   7.267   5.164   4.592
  143OSM   C18F15794   7.165   5.047   4.428
  143OSM   H18F15795   7.252   4.986   4.424
  143OSM   H18G15796   7.156   5.120   4.347
  143OSM   H18H15797   7.096   4.969   4.392
  144OSM      N15798   0.287   4.638   6.401
  144OSM    C1515799   0.374   4.525   6.441
  144OSM   H15A15800   0.401   4.532   6.544
  144OSM   H15B15801   0.461   4.528   6.377
  144OSM   H15C15802   0.325   4.429   6.422
  144OSM    C1415803   0.370   4.763   6.405
  144OSM   H14A15804   0.463   4.750   6.352
  144OSM   H14B15805   0.395   4.786   6.507
  144OSM   H14C15806   0.309   4.842   6.363
  144OSM    C1315807   0.242   4.606   6.260
  144OSM   H13A15808   0.182   4.515   6.260
  144OSM   H13B15809   0.321   4.589   6.188
  144OSM   H13C15810   0.175   4.681   6.219
  144OSM    C1215811   0.169   4.653   6.498
  144OSM   H12A15812   0.206   4.665   6.599
  144OSM   H12B15813   0.108   4.563   6.491
  144OSM    C1115814   0.076   4.773   6.477
  144OSM   H11A15815   0.132   4.865   6.499
  144OSM   H11B15816  -0.010   4.773   6.550
  144OSM      P15817  -0.104   4.747   6.286
  144OSM    O1315818  -0.096   4.617   6.218
  144OSM    O1415819  -0.202   4.773   6.390
  144OSM    O1115820  -0.103   4.858   6.179
  144OSM    O1215821   0.038   4.778   6.342
  144OSM    C1S15822   0.008   4.865   6.089
  144OSM    H1S15823   0.082   4.783   6.100
  144OSM    H1T15824   0.064   4.961   6.104
  144OSM     NF15825   0.079   4.830   5.863
  144OSM    HNF15826   0.104   4.910   5.810
  144OSM    C2S15827  -0.043   4.855   5.945
  144OSM    H2S15828  -0.122   4.783   5.931
  144OSM    C3S15829  -0.118   4.988   5.920
  144OSM    H3S15830  -0.047   5.059   5.930
  144OSM     O315831  -0.181   5.032   6.032
  144OSM    HO315832  -0.205   4.957   6.086
  144OSM    C4S15833  -0.194   4.975   5.782
  144OSM    H4S15834  -0.253   4.887   5.758
  144OSM    C5S15835  -0.193   5.071   5.685
  144OSM    H5S15836  -0.141   5.164   5.709
  144OSM    C6S15837  -0.248   5.085   5.545
  144OSM    H6S15838  -0.174   5.088   5.465
  144OSM    H6T15839  -0.294   5.182   5.523
  144OSM    C7S15840  -0.318   4.958   5.518
  144OSM    H7S15841  -0.406   4.985   5.580
  144OSM    H7T15842  -0.272   4.863   5.546
  144OSM    C8S15843  -0.352   4.912   5.381
  144OSM    H8S15844  -0.388   5.000   5.349
  144OSM    H8T15845  -0.448   4.876   5.353
  144OSM    C9S15846  -0.269   4.911   5.270
  144OSM    H9S15847  -0.198   4.994   5.261
  144OSM    H9T15848  -0.331   4.868   5.187
  144OSM   C10S15849  -0.193   4.806   5.261
  144OSM   H10S15850  -0.248   4.710   5.268
  144OSM   H10T15851  -0.135   4.820   5.349
  144OSM   C11S15852  -0.097   4.834   5.149
  144OSM   H11S15853  -0.017   4.775   5.134
  144OSM   H11T15854  -0.029   4.906   5.138
  144OSM   C12S15855  -0.125   4.776   5.033
  144OSM   H12S15856  -0.199   4.852   5.046
  144OSM   H12T15857  -0.186   4.682   5.050
  144OSM   C13S15858  -0.023   4.778   4.916
  144OSM   H13S15859  -0.035   4.711   4.832
  144OSM   H13T15860   0.067   4.726   4.945
  144OSM   C14S15861  -0.005   4.912   4.853
  144OSM   H14S15862  -0.005   4.982   4.937
  144OSM   H14T15863  -0.089   4.947   4.796
  144OSM   C15S15864   0.124   4.911   4.773
  144OSM   H15S15865   0.179   4.817   4.796
  144OSM   H15T15866   0.175   5.000   4.813
  144OSM   C16S15867   0.114   4.929   4.622
  144OSM   H16S15868   0.011   4.944   4.598
  144OSM   H16T15869   0.149   4.840   4.566
  144OSM   C17S15870   0.157   5.063   4.568
  144OSM   H17S15871   0.266   5.055   4.571
  144OSM   H17T15872   0.115   5.140   4.637
  144OSM   C18S15873   0.127   5.098   4.422
  144OSM   H18S15874   0.028   5.110   4.391
  144OSM   H18T15875   0.167   5.025   4.350
  144OSM   H18U15876   0.143   5.205   4.403
  144OSM    C1F15877   0.166   4.726   5.854
  144OSM     OF15878   0.156   4.628   5.925
  144OSM    C2F15879   0.275   4.732   5.748
  144OSM    H2F15880   0.323   4.635   5.733
  144OSM    H2G15881   0.341   4.822   5.759
  144OSM    C3F15882   0.215   4.746   5.612
  144OSM    H3F15883   0.182   4.835   5.646
  144OSM    H3G15884   0.108   4.740   5.614
  144OSM    C4F15885   0.307   4.763   5.487
  144OSM    H4F15886   0.358   4.665   5.493
  144OSM    H4G15887   0.377   4.849   5.492
  144OSM    C5F15888   0.260   4.752   5.341
  144OSM    H5F15889   0.179   4.807   5.302
  144OSM    H5G15890   0.208   4.660   5.354
  144OSM    C6F15891   0.360   4.727   5.228
  144OSM    H6F15892   0.387   4.619   5.241
  144OSM    H6G15893   0.445   4.794   5.237
  144OSM    C7F15894   0.313   4.745   5.083
  144OSM    H7F15895   0.270   4.842   5.053
  144OSM    H7G15896   0.225   4.688   5.092
  144OSM    C8F15897   0.418   4.698   4.978
  144OSM    H8F15898   0.491   4.782   4.985
  144OSM    H8G15899   0.375   4.701   4.875
  144OSM    C9F15900   0.501   4.571   4.989
  144OSM    H9F15901   0.606   4.586   5.018
  144OSM   C10F15902   0.464   4.445   4.957
  144OSM   H10F15903   0.531   4.362   4.970
  144OSM   C11F15904   0.333   4.400   4.904
  144OSM   H11F15905   0.274   4.480   4.939
  144OSM   H11G15906   0.295   4.306   4.950
  144OSM   C12F15907   0.309   4.395   4.753
  144OSM   H12F15908   0.214   4.340   4.728
  144OSM   H12G15909   0.395   4.332   4.734
  144OSM   C13F15910   0.320   4.522   4.667
  144OSM   H13F15911   0.425   4.557   4.676
  144OSM   H13G15912   0.248   4.604   4.685
  144OSM   C14F15913   0.289   4.487   4.522
  144OSM   H14F15914   0.190   4.446   4.498
  144OSM   H14G15915   0.348   4.401   4.531
  144OSM   C15F15916   0.349   4.576   4.413
  144OSM   H15F15917   0.457   4.568   4.432
  144OSM   H15G15918   0.312   4.676   4.437
  144OSM   C16F15919   0.314   4.548   4.266
  144OSM   H16F15920   0.206   4.522   4.254
  144OSM   H16G15921   0.376   4.464   4.247
  144OSM   C17F15922   0.370   4.632   4.146
  144OSM   H17F15923   0.341   4.735   4.169
  144OSM   H17G15924   0.325   4.592   4.052
  144OSM   C18F15925   0.521   4.645   4.121
  144OSM   H18F15926   0.567   4.665   4.218
  144OSM   H18G15927   0.558   4.712   4.044
  144OSM   H18H15928   0.569   4.558   4.079
  145OSM      N15929   0.669   7.507   6.502
  145OSM    C1515930   0.658   7.501   6.649
  145OSM   H15A15931   0.562   7.459   6.678
  145OSM   H15B15932   0.687   7.589   6.704
  145OSM   H15C15933   0.735   7.431   6.686
  145OSM    C1415934   0.588   7.627   6.475
  145OSM   H14A15935   0.482   7.604   6.491
  145OSM   H14B15936   0.602   7.660   6.374
  145OSM   H14C15937   0.617   7.704   6.547
  145OSM    C1315938   0.815   7.527   6.468
  145OSM   H13A15939   0.829   7.497   6.364
  145OSM   H13B15940   0.881   7.463   6.527
  145OSM   H13C15941   0.852   7.628   6.479
  145OSM    C1215942   0.615   7.387   6.420
  145OSM   H12A15943   0.526   7.343   6.464
  145OSM   H12B15944   0.686   7.302   6.424
  145OSM    C1115945   0.601   7.395   6.267
  145OSM   H11A15946   0.556   7.491   6.241
  145OSM   H11B15947   0.533   7.311   6.233
  145OSM      P15948   0.784   7.248   6.197
  145OSM    O1315949   0.846   7.238   6.331
  145OSM    O1415950   0.682   7.147   6.168
  145OSM    O1115951   0.890   7.249   6.080
  145OSM    O1215952   0.727   7.392   6.202
  145OSM    C1S15953   0.846   7.297   5.951
  145OSM    H1S15954   0.936   7.332   5.894
  145OSM    H1T15955   0.777   7.382   5.958
  145OSM     NF15956   0.643   7.162   5.869
  145OSM    HNF15957   0.621   7.065   5.876
  145OSM    C2S15958   0.781   7.190   5.855
  145OSM    H2S15959   0.795   7.230   5.751
  145OSM    C3S15960   0.851   7.060   5.865
  145OSM    H3S15961   0.817   7.002   5.953
  145OSM     O315962   0.986   7.087   5.884
  145OSM    HO315963   1.002   7.181   5.896
  145OSM    C4S15964   0.815   6.976   5.743
  145OSM    H4S15965   0.742   6.897   5.757
  145OSM    C5S15966   0.860   6.991   5.619
  145OSM    H5S15967   0.945   7.059   5.606
  145OSM    C6S15968   0.818   6.901   5.506
  145OSM    H6S15969   0.776   6.808   5.546
  145OSM    H6T15970   0.897   6.850   5.451
  145OSM    C7S15971   0.728   6.972   5.405
  145OSM    H7S15972   0.776   7.061   5.360
  145OSM    H7T15973   0.638   7.004   5.462
  145OSM    C8S15974   0.686   6.872   5.296
  145OSM    H8S15975   0.638   6.787   5.351
  145OSM    H8T15976   0.774   6.834   5.241
  145OSM    C9S15977   0.589   6.922   5.190
  145OSM    H9S15978   0.499   6.948   5.249
  145OSM    H9T15979   0.561   6.839   5.122
  145OSM   C10S15980   0.633   7.024   5.086
  145OSM   H10S15981   0.731   6.996   5.047
  145OSM   H10T15982   0.651   7.114   5.147
  145OSM   C11S15983   0.528   7.035   4.969
  145OSM   H11S15984   0.430   7.080   4.997
  145OSM   H11T15985   0.493   6.936   4.938
  145OSM   C12S15986   0.563   7.122   4.848
  145OSM   H12S15987   0.594   7.222   4.879
  145OSM   H12T15988   0.466   7.139   4.795
  145OSM   C13S15989   0.666   7.065   4.752
  145OSM   H13S15990   0.769   7.075   4.791
  145OSM   H13T15991   0.658   7.128   4.660
  145OSM   C14S15992   0.644   6.917   4.722
  145OSM   H14S15993   0.538   6.908   4.707
  145OSM   H14T15994   0.664   6.854   4.811
  145OSM   C15S15995   0.712   6.862   4.596
  145OSM   H15S15996   0.677   6.757   4.582
  145OSM   H15T15997   0.822   6.859   4.611
  145OSM   C16S15998   0.683   6.941   4.468
  145OSM   H16S15999   0.702   7.049   4.482
  145OSM   H16T16000   0.576   6.930   4.438
  145OSM   C17S16001   0.774   6.897   4.352
  145OSM   H17S16002   0.734   6.945   4.260
  145OSM   H17T16003   0.765   6.787   4.340
  145OSM   C18S16004   0.921   6.938   4.369
  145OSM   H18S16005   0.931   7.035   4.419
  145OSM   H18T16006   0.970   6.949   4.270
  145OSM   H18U16007   0.979   6.866   4.430
  145OSM    C1F16008   0.552   7.254   5.861
  145OSM     OF16009   0.577   7.372   5.839
  145OSM    C2F16010   0.417   7.200   5.869
  145OSM    H2F16011   0.397   7.141   5.960
  145OSM    H2G16012   0.410   7.120   5.797
  145OSM    C3F16013   0.308   7.303   5.844
  145OSM    H3F16014   0.308   7.370   5.932
  145OSM    H3G16015   0.219   7.238   5.841
  145OSM    C4F16016   0.300   7.402   5.726
  145OSM    H4F16017   0.372   7.485   5.735
  145OSM    H4G16018   0.196   7.426   5.719
  145OSM    C5F16019   0.307   7.364   5.585
  145OSM    H5F16020   0.220   7.297   5.557
  145OSM    H5G16021   0.409   7.318   5.588
  145OSM    C6F16022   0.288   7.455   5.476
  145OSM    H6F16023   0.335   7.547   5.481
  145OSM    H6G16024   0.192   7.439   5.433
  145OSM    C7F16025   0.357   7.407   5.362
  145OSM    H7F16026   0.288   7.317   5.350
  145OSM    H7G16027   0.466   7.388   5.382
  145OSM    C8F16028   0.331   7.460   5.226
  145OSM    H8F16029   0.234   7.478   5.202
  145OSM    H8G16030   0.291   7.372   5.181
  145OSM    C9F16031   0.444   7.558   5.243
  145OSM    H9F16032   0.396   7.602   5.322
  145OSM   C10F16033   0.543   7.630   5.167
  145OSM   H10F16034   0.554   7.725   5.170
  145OSM   C11F16035   0.626   7.548   5.070
  145OSM   H11F16036   0.648   7.454   5.083
  145OSM   H11G16037   0.703   7.624   5.094
  145OSM   C12F16038   0.596   7.577   4.917
  145OSM   H12F16039   0.588   7.687   4.921
  145OSM   H12G16040   0.504   7.562   4.868
  145OSM   C13F16041   0.682   7.478   4.835
  145OSM   H13F16042   0.693   7.371   4.843
  145OSM   H13G16043   0.752   7.471   4.918
  145OSM   C14F16044   0.722   7.519   4.689
  145OSM   H14F16045   0.816   7.497   4.639
  145OSM   H14G16046   0.773   7.611   4.681
  145OSM   C15F16047   0.610   7.565   4.614
  145OSM   H15F16048   0.564   7.654   4.665
  145OSM   H15G16049   0.555   7.472   4.627
  145OSM   C16F16050   0.660   7.589   4.478
  145OSM   H16F16051   0.729   7.519   4.429
  145OSM   H16G16052   0.721   7.673   4.462
  145OSM   C17F16053   0.561   7.663   4.408
  145OSM   H17F16054   0.546   7.768   4.448
  145OSM   H17G16055   0.473   7.598   4.420
  145OSM   C18F16056   0.627   7.665   4.277
  145OSM   H18F16057   0.722   7.708   4.250
  145OSM   H18G16058   0.569   7.743   4.234
  145OSM   H18H16059   0.628   7.566   4.229
  146OSM      N16060  -0.066   0.200   6.466
  146OSM    C1516061  -0.079   0.285   6.576
  146OSM   H15A16062  -0.105   0.224   6.662
  146OSM   H15B16063  -0.133   0.377   6.567
  146OSM   H15C16064   0.026   0.312   6.590
  146OSM    C1416065   0.016   0.270   6.361
  146OSM   H14A16066   0.124   0.272   6.375
  146OSM   H14B16067  -0.011   0.374   6.363
  146OSM   H14C16068  -0.003   0.225   6.264
  146OSM    C1316069  -0.010   0.078   6.515
  146OSM   H13A16070  -0.060   0.014   6.590
  146OSM   H13B16071   0.073   0.104   6.576
  146OSM   H13C16072   0.020   0.012   6.432
  146OSM    C1216073  -0.200   0.165   6.427
  146OSM   H12A16074  -0.259   0.255   6.417
  146OSM   H12B16075  -0.242   0.102   6.507
  146OSM    C1116076  -0.202   0.087   6.300
  146OSM   H11A16077  -0.172   0.144   6.210
  146OSM   H11B16078  -0.313   0.076   6.296
  146OSM      P16079  -0.054  -0.127   6.220
  146OSM    O1316080   0.044  -0.194   6.305
  146OSM    O1416081  -0.138  -0.202   6.127
  146OSM    O1116082   0.012  -0.013   6.143
  146OSM    O1216083  -0.132  -0.036   6.316
  146OSM    C1S16084   0.067  -0.051   6.020
  146OSM    H1S16085   0.077  -0.161   5.998
  146OSM    H1T16086   0.167  -0.014   6.039
  146OSM     NF16087  -0.000  -0.040   5.774
  146OSM    HNF16088   0.039   0.018   5.703
  146OSM    C2S16089  -0.009   0.020   5.906
  146OSM    H2S16090  -0.118   0.021   5.927
  146OSM    C3S16091   0.049   0.162   5.908
  146OSM    H3S16092   0.160   0.163   5.902
  146OSM     O316093   0.009   0.240   6.019
  146OSM    HO316094  -0.034   0.172   6.072
  146OSM    C4S16095   0.000   0.226   5.790
  146OSM    H4S16096  -0.106   0.212   5.782
  146OSM    C5S16097   0.070   0.275   5.686
  146OSM    H5S16098   0.176   0.262   5.689
  146OSM    C6S16099   0.026   0.342   5.562
  146OSM    H6S16100   0.074   0.440   5.546
  146OSM    H6T16101  -0.052   0.364   5.619
  146OSM    C7S16102  -0.073   0.297   5.452
  146OSM    H7S16103  -0.109   0.379   5.389
  146OSM    H7T16104  -0.158   0.241   5.493
  146OSM    C8S16105   0.011   0.214   5.371
  146OSM    H8S16106   0.032   0.145   5.454
  146OSM    H8T16107   0.083   0.290   5.347
  146OSM    C9S16108  -0.034   0.144   5.251
  146OSM    H9S16109  -0.074   0.047   5.285
  146OSM    H9T16110   0.054   0.119   5.190
  146OSM   C10S16111  -0.128   0.226   5.167
  146OSM   H10S16112  -0.089   0.330   5.150
  146OSM   H10T16113  -0.222   0.232   5.225
  146OSM   C11S16114  -0.144   0.156   5.034
  146OSM   H11S16115  -0.185   0.055   5.049
  146OSM   H11T16116  -0.041   0.146   4.991
  146OSM   C12S16117  -0.233   0.226   4.934
  146OSM   H12S16118  -0.218   0.335   4.938
  146OSM   H12T16119  -0.341   0.204   4.949
  146OSM   C13S16120  -0.192   0.181   4.798
  146OSM   H13S16121  -0.084   0.186   4.776
  146OSM   H13T16122  -0.242   0.236   4.721
  146OSM   C14S16123  -0.245   0.047   4.769
  146OSM   H14S16124  -0.253  -0.020   4.857
  146OSM   H14T16125  -0.152   0.019   4.715
  146OSM   C15S16126  -0.376   0.059   4.686
  146OSM   H15S16127  -0.373   0.114   4.590
  146OSM   H15T16128  -0.463   0.096   4.746
  146OSM   C16S16129  -0.403  -0.074   4.636
  146OSM   H16S16130  -0.472  -0.082   4.550
  146OSM   H16T16131  -0.495  -0.081   4.697
  146OSM   C17S16132  -0.259  -0.146   4.629
  146OSM   H17S16133  -0.282  -0.249   4.615
  146OSM   H17T16134  -0.176  -0.223   4.624
  146OSM   C18S16135  -0.220  -0.079   4.506
  146OSM   H18S16136  -0.166   0.014   4.510
  146OSM   H18T16137  -0.315  -0.072   4.447
  146OSM   H18U16138  -0.140  -0.137   4.459
  146OSM    C1F16139  -0.046  -0.155   5.738
  146OSM     OF16140  -0.094  -0.235   5.816
  146OSM    C2F16141  -0.032  -0.180   5.594
  146OSM    H2F16142   0.021  -0.103   5.536
  146OSM    H2G16143  -0.125  -0.218   5.546
  146OSM    C3F16144   0.058  -0.292   5.581
  146OSM    H3F16145   0.072  -0.317   5.476
  146OSM    H3G16146   0.002  -0.375   5.635
  146OSM    C4F16147   0.195  -0.279   5.632
  146OSM    H4F16148   0.227  -0.376   5.580
  146OSM    H4G16149   0.191  -0.275   5.745
  146OSM    C5F16150   0.329  -0.252   5.576
  146OSM    H5F16151   0.431  -0.255   5.615
  146OSM    H5G16152   0.307  -0.177   5.646
  146OSM    C6F16153   0.330  -0.250   5.429
  146OSM    H6F16154   0.229  -0.213   5.394
  146OSM    H6G16155   0.354  -0.351   5.401
  146OSM    C7F16156   0.450  -0.188   5.364
  146OSM    H7F16157   0.539  -0.145   5.411
  146OSM    H7G16158   0.411  -0.124   5.436
  146OSM    C8F16159   0.417  -0.155   5.214
  146OSM    H8F16160   0.307  -0.152   5.199
  146OSM    H8G16161   0.423  -0.250   5.177
  146OSM    C9F16162   0.492  -0.065   5.113
  146OSM    H9F16163   0.558  -0.008   5.184
  146OSM   C10F16164   0.433   0.014   5.014
  146OSM   H10F16165   0.442   0.120   5.012
  146OSM   C11F16166   0.294   0.049   4.971
  146OSM   H11F16167   0.254   0.154   5.000
  146OSM   H11G16168   0.217  -0.017   5.012
  146OSM   C12F16169   0.318   0.056   4.835
  146OSM   H12F16170   0.409   0.012   4.788
  146OSM   H12G16171   0.316   0.166   4.806
  146OSM   C13F16172   0.196  -0.028   4.794
  146OSM   H13F16173   0.101   0.016   4.836
  146OSM   H13G16174   0.208  -0.130   4.838
  146OSM   C14F16175   0.203  -0.030   4.642
  146OSM   H14F16176   0.199   0.068   4.687
  146OSM   H14G16177   0.304  -0.078   4.629
  146OSM   C15F16178   0.200   0.096   4.551
  146OSM   H15F16179   0.285   0.169   4.569
  146OSM   H15G16180   0.102   0.151   4.569
  146OSM   C16F16181   0.203   0.055   4.408
  146OSM   H16F16182   0.134  -0.029   4.387
  146OSM   H16G16183   0.307   0.032   4.376
  146OSM   C17F16184   0.132   0.160   4.330
  146OSM   H17F16185   0.030   0.180   4.364
  146OSM   H17G16186   0.128   0.129   4.226
  146OSM   C18F16187   0.184   0.293   4.347
  146OSM   H18F16188   0.113   0.355   4.401
  146OSM   H18G16189   0.194   0.362   4.264
  146OSM   H18H16190   0.291   0.289   4.384
  147OSM      N16191   3.663   4.016   2.165
  147OSM    C1516192   3.649   3.888   2.090
  147OSM   H15A16193   3.739   3.827   2.096
  147OSM   H15B16194   3.629   3.915   1.986
  147OSM   H15C16195   3.566   3.827   2.124
  147OSM    C1416196   3.661   3.995   2.313
  147OSM   H14A16197   3.562   3.962   2.347
  147OSM   H14B16198   3.685   4.088   2.364
  147OSM   H14C16199   3.734   3.921   2.342
  147OSM    C1316200   3.799   4.066   2.130
  147OSM   H13A16201   3.809   4.068   2.022
  147OSM   H13B16202   3.872   3.996   2.168
  147OSM   H13C16203   3.815   4.163   2.173
  147OSM    C1216204   3.563   4.122   2.119
  147OSM   H12A16205   3.560   4.118   2.011
  147OSM   H12B16206   3.600   4.221   2.146
  147OSM    C1116207   3.415   4.117   2.163
  147OSM   H11A16208   3.365   4.198   2.103
  147OSM   H11B16209   3.401   4.144   2.271
  147OSM      P16210   3.206   3.965   2.128
  147OSM    O1316211   3.155   4.071   2.037
  147OSM    O1416212   3.189   3.821   2.091
  147OSM    O1116213   3.170   3.994   2.280
  147OSM    O1216214   3.363   3.989   2.132
  147OSM    C1S16215   3.181   3.889   2.377
  147OSM    H1S16216   3.258   3.814   2.348
  147OSM    H1T16217   3.083   3.837   2.387
  147OSM     NF16218   3.222   3.826   2.611
  147OSM    HNF16219   3.143   3.816   2.672
  147OSM    C2S16220   3.221   3.941   2.519
  147OSM    H2S16221   3.320   3.990   2.511
  147OSM    C3S16222   3.124   4.050   2.568
  147OSM    H3S16223   3.030   4.001   2.560
  147OSM     O316224   3.116   4.170   2.491
  147OSM    HO316225   3.165   4.146   2.412
  147OSM    C4S16226   3.162   4.091   2.709
  147OSM    H4S16227   3.255   4.145   2.715
  147OSM    C5S16228   3.103   4.064   2.827
  147OSM    H5S16229   3.023   3.996   2.834
  147OSM    C6S16230   3.129   4.099   2.967
  147OSM    H6S16231   3.032   4.100   3.024
  147OSM    H6T16232   3.162   4.202   2.970
  147OSM    C7S16233   3.222   3.999   3.034
  147OSM    H7S16234   3.324   4.019   2.995
  147OSM    H7T16235   3.198   3.893   3.010
  147OSM    C8S16236   3.217   4.017   3.186
  147OSM    H8S16237   3.116   3.993   3.224
  147OSM    H8T16238   3.231   4.123   3.213
  147OSM    C9S16239   3.317   3.926   3.257
  147OSM    H9S16240   3.314   3.825   3.211
  147OSM    H9T16241   3.287   3.914   3.363
  147OSM   C10S16242   3.461   3.977   3.252
  147OSM   H10S16243   3.493   4.003   3.148
  147OSM   H10T16244   3.519   3.887   3.280
  147OSM   C11S16245   3.483   4.095   3.349
  147OSM   H11S16246   3.427   4.079   3.444
  147OSM   H11T16247   3.447   4.189   3.304
  147OSM   C12S16248   3.627   4.112   3.393
  147OSM   H12S16249   3.642   4.202   3.458
  147OSM   H12T16250   3.689   4.127   3.301
  147OSM   C13S16251   3.675   3.986   3.465
  147OSM   H13S16252   3.774   4.002   3.513
  147OSM   H13T16253   3.687   3.908   3.387
  147OSM   C14S16254   3.598   3.934   3.583
  147OSM   H14S16255   3.502   3.888   3.552
  147OSM   H14T16256   3.577   4.013   3.658
  147OSM   C15S16257   3.689   3.827   3.644
  147OSM   H15S16258   3.791   3.869   3.662
  147OSM   H15T16259   3.700   3.746   3.569
  147OSM   C16S16260   3.629   3.779   3.774
  147OSM   H16S16261   3.522   3.753   3.757
  147OSM   H16T16262   3.634   3.866   3.843
  147OSM   C17S16263   3.701   3.659   3.834
  147OSM   H17S16264   3.811   3.667   3.819
  147OSM   H17T16265   3.667   3.566   3.784
  147OSM   C18S16266   3.670   3.652   3.984
  147OSM   H18S16267   3.704   3.556   4.027
  147OSM   H18T16268   3.561   3.664   4.001
  147OSM   H18U16269   3.721   3.737   4.036
  147OSM    C1F16270   3.312   3.729   2.597
  147OSM     OF16271   3.412   3.750   2.529
  147OSM    C2F16272   3.284   3.596   2.660
  147OSM    H2F16273   3.259   3.522   2.581
  147OSM    H2G16274   3.199   3.599   2.731
  147OSM    C3F16275   3.408   3.546   2.737
  147OSM    H3F16276   3.499   3.547   2.673
  147OSM    H3G16277   3.386   3.442   2.769
  147OSM    C4F16278   3.433   3.632   2.861
  147OSM    H4F16279   3.333   3.658   2.904
  147OSM    H4G16280   3.484   3.724   2.825
  147OSM    C5F16281   3.524   3.573   2.967
  147OSM    H5F16282   3.578   3.654   3.022
  147OSM    H5G16283   3.598   3.505   2.919
  147OSM    C6F16284   3.451   3.489   3.069
  147OSM    H6F16285   3.532   3.447   3.134
  147OSM    H6G16286   3.402   3.408   3.010
  147OSM    C7F16287   3.347   3.553   3.160
  147OSM    H7F16288   3.264   3.594   3.100
  147OSM    H7G16289   3.394   3.635   3.219
  147OSM    C8F16290   3.284   3.459   3.260
  147OSM    H8F16291   3.263   3.358   3.216
  147OSM    H8G16292   3.188   3.494   3.293
  147OSM    C9F16293   3.361   3.457   3.386
  147OSM    H9F16294   3.427   3.377   3.380
  147OSM   C10F16295   3.339   3.504   3.507
  147OSM   H10F16296   3.389   3.453   3.591
  147OSM   C11F16297   3.217   3.580   3.539
  147OSM   H11F16298   3.153   3.517   3.595
  147OSM   H11G16299   3.152   3.604   3.453
  147OSM   C12F16300   3.255   3.703   3.619
  147OSM   H12F16301   3.329   3.762   3.561
  147OSM   H12G16302   3.302   3.677   3.716
  147OSM   C13F16303   3.133   3.788   3.644
  147OSM   H13F16304   3.065   3.736   3.716
  147OSM   H13G16305   3.076   3.800   3.548
  147OSM   C14F16306   3.178   3.921   3.699
  147OSM   H14F16307   3.097   3.993   3.680
  147OSM   H14G16308   3.264   3.963   3.645
  147OSM   C15F16309   3.209   3.916   3.849
  147OSM   H15F16310   3.301   3.857   3.872
  147OSM   H15G16311   3.124   3.863   3.899
  147OSM   C16F16312   3.225   4.058   3.902
  147OSM   H16F16313   3.150   4.075   3.983
  147OSM   H16G16314   3.203   4.130   3.820
  147OSM   C17F16315   3.364   4.094   3.954
  147OSM   H17F16316   3.363   4.206   3.960
  147OSM   H17G16317   3.446   4.065   3.885
  147OSM   C18F16318   3.393   4.042   4.095
  147OSM   H18F16319   3.313   4.077   4.163
  147OSM   H18G16320   3.491   4.083   4.128
  147OSM   H18H16321   3.397   3.931   4.100
  148OSM      N16322   3.064   2.465   2.019
  148OSM    C1516323   2.978   2.351   1.982
  148OSM   H15A16324   3.037   2.285   1.918
  148OSM   H15B16325   2.896   2.387   1.922
  148OSM   H15C16326   2.946   2.296   2.069
  148OSM    C1416327   3.101   2.544   1.897
  148OSM   H14A16328   3.163   2.630   1.928
  148OSM   H14B16329   3.015   2.583   1.847
  148OSM   H14C16330   3.158   2.482   1.828
  148OSM    C1316331   2.990   2.553   2.116
  148OSM   H13A16332   2.978   2.654   2.077
  148OSM   H13B16333   3.052   2.569   2.205
  148OSM   H13C16334   2.896   2.512   2.147
  148OSM    C1216335   3.191   2.410   2.080
  148OSM   H12A16336   3.237   2.343   2.009
  148OSM   H12B16337   3.168   2.356   2.171
  148OSM    C1116338   3.294   2.514   2.126
  148OSM   H11A16339   3.313   2.590   2.047
  148OSM   H11B16340   3.392   2.463   2.146
  148OSM      P16341   3.251   2.722   2.282
  148OSM    O1316342   3.393   2.764   2.283
  148OSM    O1416343   3.157   2.795   2.195
  148OSM    O1116344   3.192   2.725   2.429
  148OSM    O1216345   3.243   2.568   2.247
  148OSM    C1S16346   3.174   2.602   2.503
  148OSM    H1S16347   3.262   2.536   2.488
  148OSM    H1T16348   3.084   2.550   2.467
  148OSM     NF16349   3.265   2.690   2.711
  148OSM    HNF16350   3.351   2.647   2.736
  148OSM    C2S16351   3.159   2.619   2.659
  148OSM    H2S16352   3.067   2.677   2.680
  148OSM    C3S16353   3.157   2.483   2.729
  148OSM    H3S16354   3.249   2.426   2.705
  148OSM     O316355   3.046   2.409   2.682
  148OSM    HO316356   2.989   2.473   2.640
  148OSM    C4S16357   3.141   2.491   2.880
  148OSM    H4S16358   3.039   2.518   2.913
  148OSM    C5S16359   3.239   2.476   2.972
  148OSM    H5S16360   3.344   2.470   2.939
  148OSM    C6S16361   3.229   2.481   3.121
  148OSM    H6S16362   3.281   2.569   3.165
  148OSM    H6T16363   3.280   2.390   3.161
  148OSM    C7S16364   3.089   2.479   3.179
  148OSM    H7S16365   3.033   2.392   3.141
  148OSM    H7T16366   3.032   2.568   3.141
  148OSM    C8S16367   3.099   2.485   3.332
  148OSM    H8S16368   3.176   2.561   3.359
  148OSM    H8T16369   3.116   2.390   3.386
  148OSM    C9S16370   2.976   2.547   3.383
  148OSM    H9S16371   2.886   2.488   3.356
  148OSM    H9T16372   2.973   2.637   3.320
  148OSM   C10S16373   2.968   2.595   3.527
  148OSM   H10S16374   2.863   2.570   3.547
  148OSM   H10T16375   2.986   2.705   3.536
  148OSM   C11S16376   3.021   2.513   3.641
  148OSM   H11S16377   3.130   2.528   3.646
  148OSM   H11T16378   2.999   2.406   3.618
  148OSM   C12S16379   2.960   2.557   3.775
  148OSM   H12S16380   2.986   2.477   3.847
  148OSM   H12T16381   2.848   2.567   3.773
  148OSM   C13S16382   3.015   2.692   3.824
  148OSM   H13S16383   3.011   2.766   3.741
  148OSM   H13T16384   3.121   2.681   3.853
  148OSM   C14S16385   2.930   2.750   3.938
  148OSM   H14S16386   2.827   2.760   3.895
  148OSM   H14T16387   2.964   2.852   3.965
  148OSM   C15S16388   2.921   2.664   4.066
  148OSM   H15S16389   2.876   2.565   4.041
  148OSM   H15T16390   2.854   2.720   4.132
  148OSM   C16S16391   3.047   2.652   4.153
  148OSM   H16S16392   3.068   2.754   4.193
  148OSM   H16T16393   3.133   2.621   4.089
  148OSM   C17S16394   3.032   2.562   4.277
  148OSM   H17S16395   2.931   2.579   4.321
  148OSM   H17T16396   3.106   2.591   4.355
  148OSM   C18S16397   3.047   2.414   4.247
  148OSM   H18S16398   3.037   2.350   4.337
  148OSM   H18T16399   3.144   2.392   4.197
  148OSM   H18U16400   2.966   2.389   4.175
  148OSM    C1F16401   3.270   2.816   2.696
  148OSM     OF16402   3.185   2.897   2.659
  148OSM    C2F16403   3.397   2.852   2.729
  148OSM    H2F16404   3.408   2.934   2.651
  148OSM    H2G16405   3.478   2.777   2.713
  148OSM    C3F16406   3.396   2.901   2.875
  148OSM    H3F16407   3.338   2.995   2.877
  148OSM    H3G16408   3.495   2.936   2.907
  148OSM    C4F16409   3.415   2.812   2.995
  148OSM    H4F16410   3.523   2.785   3.017
  148OSM    H4G16411   3.356   2.726   2.967
  148OSM    C5F16412   3.352   2.873   3.118
  148OSM    H5F16413   3.251   2.910   3.094
  148OSM    H5G16414   3.382   2.970   3.144
  148OSM    C6F16415   3.390   2.801   3.246
  148OSM    H6F16416   3.491   2.815   3.289
  148OSM    H6G16417   3.443   2.709   3.227
  148OSM    C7F16418   3.319   2.864   3.365
  148OSM    H7F16419   3.222   2.906   3.331
  148OSM    H7G16420   3.367   2.953   3.399
  148OSM    C8F16421   3.340   2.798   3.500
  148OSM    H8F16422   3.324   2.694   3.470
  148OSM    H8G16423   3.254   2.836   3.559
  148OSM    C9F16424   3.472   2.817   3.576
  148OSM    H9F16425   3.563   2.827   3.513
  148OSM   C10F16426   3.483   2.852   3.706
  148OSM   H10F16427   3.583   2.879   3.746
  148OSM   C11F16428   3.370   2.881   3.806
  148OSM   H11F16429   3.273   2.885   3.754
  148OSM   H11G16430   3.371   2.981   3.855
  148OSM   C12F16431   3.368   2.789   3.928
  148OSM   H12F16432   3.338   2.688   3.895
  148OSM   H12G16433   3.289   2.830   3.995
  148OSM   C13F16434   3.497   2.788   4.012
  148OSM   H13F16435   3.521   2.889   4.040
  148OSM   H13G16436   3.585   2.751   3.953
  148OSM   C14F16437   3.480   2.735   4.156
  148OSM   H14F16438   3.388   2.765   4.207
  148OSM   H14G16439   3.574   2.755   4.215
  148OSM   C15F16440   3.459   2.590   4.150
  148OSM   H15F16441   3.571   2.588   4.130
  148OSM   H15G16442   3.390   2.558   4.068
  148OSM   C16F16443   3.424   2.498   4.266
  148OSM   H16F16444   3.320   2.521   4.290
  148OSM   H16G16445   3.490   2.558   4.328
  148OSM   C17F16446   3.440   2.338   4.264
  148OSM   H17F16447   3.537   2.291   4.239
  148OSM   H17G16448   3.375   2.295   4.186
  148OSM   C18F16449   3.407   2.270   4.395
  148OSM   H18F16450   3.418   2.159   4.386
  148OSM   H18G16451   3.309   2.304   4.428
  148OSM   H18H16452   3.473   2.302   4.475
  149OSM      N16453   4.637   2.409   2.029
  149OSM    C1516454   4.785   2.418   2.008
  149OSM   H15A16455   4.839   2.355   2.079
  149OSM   H15B16456   4.824   2.518   2.028
  149OSM   H15C16457   4.809   2.386   1.909
  149OSM    C1416458   4.605   2.453   2.169
  149OSM   H14A16459   4.653   2.546   2.193
  149OSM   H14B16460   4.643   2.377   2.240
  149OSM   H14C16461   4.498   2.464   2.184
  149OSM    C1316462   4.570   2.498   1.934
  149OSM   H13A16463   4.461   2.490   1.941
  149OSM   H13B16464   4.593   2.472   1.831
  149OSM   H13C16465   4.600   2.600   1.953
  149OSM    C1216466   4.590   2.266   2.009
  149OSM   H12A16467   4.581   2.247   1.903
  149OSM   H12B16468   4.490   2.256   2.050
  149OSM    C1116469   4.679   2.157   2.070
  149OSM   H11A16470   4.764   2.140   2.000
  149OSM   H11B16471   4.621   2.061   2.076
  149OSM      P16472   4.812   2.091   2.275
  149OSM    O1316473   4.893   2.019   2.173
  149OSM    O1416474   4.878   2.147   2.395
  149OSM    O1116475   4.689   2.004   2.324
  149OSM    O1216476   4.727   2.199   2.198
  149OSM    C1S16477   4.560   2.062   2.358
  149OSM    H1S16478   4.494   2.009   2.285
  149OSM    H1T16479   4.546   2.164   2.332
  149OSM     NF16480   4.600   2.119   2.608
  149OSM    HNF16481   4.653   2.058   2.668
  149OSM    C2S16482   4.521   2.057   2.521
  149OSM    H2S16483   4.409   2.073   2.537
  149OSM    C3S16484   4.540   1.930   2.552
  149OSM    H3S16485   4.630   1.921   2.513
  149OSM     O316486   4.436   1.889   2.446
  149OSM    HO316487   4.346   1.848   2.445
  149OSM    C4S16488   4.565   1.907   2.738
  149OSM    H4S16489   4.667   1.853   2.765
  149OSM    C5S16490   4.485   1.891   2.851
  149OSM    H5S16491   4.382   1.860   2.864
  149OSM    C6S16492   4.467   1.841   2.987
  149OSM    H6S16493   4.431   1.730   2.992
  149OSM    H6T16494   4.370   1.865   3.036
  149OSM    C7S16495   4.584   1.861   3.050
  149OSM    H7S16496   4.660   1.808   2.991
  149OSM    H7T16497   4.546   1.799   3.134
  149OSM    C8S16498   4.570   2.012   3.047
  149OSM    H8S16499   4.533   2.076   2.961
  149OSM    H8T16500   4.675   2.032   3.052
  149OSM    C9S16501   4.471   2.054   3.151
  149OSM    H9S16502   4.366   2.018   3.136
  149OSM    H9T16503   4.470   2.163   3.146
  149OSM   C10S16504   4.525   2.007   3.281
  149OSM   H10S16505   4.632   2.040   3.281
  149OSM   H10T16506   4.525   1.896   3.293
  149OSM   C11S16507   4.450   2.071   3.393
  149OSM   H11S16508   4.347   2.028   3.401
  149OSM   H11T16509   4.438   2.179   3.371
  149OSM   C12S16510   4.536   2.044   3.516
  149OSM   H12S16511   4.637   2.088   3.496
  149OSM   H12T16512   4.550   1.934   3.526
  149OSM   C13S16513   4.485   2.106   3.644
  149OSM   H13S16514   4.387   2.061   3.671
  149OSM   H13T16515   4.469   2.215   3.623
  149OSM   C14S16516   4.587   2.091   3.759
  149OSM   H14S16517   4.559   2.158   3.843
  149OSM   H14T16518   4.688   2.123   3.726
  149OSM   C15S16519   4.600   1.946   3.806
  149OSM   H15S16520   4.662   1.891   3.732
  149OSM   H15T16521   4.505   1.892   3.810
  149OSM   C16S16522   4.671   1.933   3.937
  149OSM   H16S16523   4.660   1.831   3.979
  149OSM   H16T16524   4.634   2.004   4.015
  149OSM   C17S16525   4.815   1.959   3.898
  149OSM   H17S16526   4.838   2.068   3.892
  149OSM   H17T16527   4.853   1.899   3.813
  149OSM   C18S16528   4.899   1.922   4.006
  149OSM   H18S16529   4.904   1.819   4.040
  149OSM   H18T16530   4.840   1.975   4.078
  149OSM   H18U16531   4.996   1.971   4.002
  149OSM    C1F16532   4.618   2.236   2.602
  149OSM     OF16533   4.538   2.303   2.539
  149OSM    C2F16534   4.740   2.271   2.676
  149OSM    H2F16535   4.811   2.307   2.599
  149OSM    H2G16536   4.782   2.186   2.734
  149OSM    C3F16537   4.705   2.373   2.782
  149OSM    H3F16538   4.669   2.443   2.703
  149OSM    H3G16539   4.794   2.421   2.823
  149OSM    C4F16540   4.606   2.327   2.900
  149OSM    H4F16541   4.662   2.249   2.954
  149OSM    H4G16542   4.516   2.284   2.850
  149OSM    C5F16543   4.549   2.425   3.016
  149OSM    H5F16544   4.491   2.372   3.091
  149OSM    H5G16545   4.459   2.484   2.987
  149OSM    C6F16546   4.654   2.515   3.084
  149OSM    H6F16547   4.618   2.605   3.136
  149OSM    H6G16548   4.718   2.565   3.018
  149OSM    C7F16549   4.760   2.427   3.146
  149OSM    H7F16550   4.802   2.362   3.065
  149OSM    H7G16551   4.701   2.366   3.216
  149OSM    C8F16552   4.878   2.500   3.211
  149OSM    H8F16553   4.837   2.590   3.258
  149OSM    H8G16554   4.946   2.543   3.134
  149OSM    C9F16555   4.958   2.402   3.300
  149OSM    H9F16556   5.038   2.355   3.242
  149OSM   C10F16557   4.945   2.357   3.429
  149OSM   H10F16558   5.001   2.271   3.464
  149OSM   C11F16559   4.848   2.382   3.541
  149OSM   H11F16560   4.782   2.303   3.579
  149OSM   H11G16561   4.783   2.403   3.460
  149OSM   C12F16562   4.855   2.488   3.657
  149OSM   H12F16563   4.924   2.545   3.588
  149OSM   H12G16564   4.936   2.511   3.726
  149OSM   C13F16565   4.711   2.540   3.718
  149OSM   H13F16566   4.666   2.617   3.668
  149OSM   H13G16567   4.662   2.640   3.731
  149OSM   C14F16568   4.626   2.496   3.822
  149OSM   H14F16569   4.599   2.402   3.772
  149OSM   H14G16570   4.534   2.564   3.826
  149OSM   C15F16571   4.724   2.509   3.933
  149OSM   H15F16572   4.767   2.606   3.967
  149OSM   H15G16573   4.816   2.456   3.903
  149OSM   C16F16574   4.656   2.475   4.058
  149OSM   H16F16575   4.566   2.417   4.031
  149OSM   H16G16576   4.622   2.572   4.101
  149OSM   C17F16577   4.759   2.401   4.141
  149OSM   H17F16578   4.711   2.387   4.239
  149OSM   H17G16579   4.849   2.465   4.155
  149OSM   C18F16580   4.801   2.263   4.087
  149OSM   H18F16581   4.851   2.206   4.167
  149OSM   H18G16582   4.873   2.264   4.004
  149OSM   H18H16583   4.714   2.206   4.049
  150OSM      N16584   2.151   4.274   2.159
  150OSM    C1516585   2.199   4.242   2.022
  150OSM   H15A16586   2.256   4.149   2.022
  150OSM   H15B16587   2.266   4.319   1.988
  150OSM   H15C16588   2.115   4.230   1.955
  150OSM    C1416589   2.054   4.170   2.203
  150OSM   H14A16590   2.094   4.071   2.207
  150OSM   H14B16591   1.973   4.175   2.130
  150OSM   H14C16592   2.008   4.197   2.298
  150OSM    C1316593   2.272   4.273   2.247
  150OSM   H13A16594   2.249   4.293   2.351
  150OSM   H13B16595   2.339   4.352   2.214
  150OSM   H13C16596   2.326   4.180   2.237
  150OSM    C1216597   2.084   4.411   2.168
  150OSM   H12A16598   2.156   4.490   2.146
  150OSM   H12B16599   2.056   4.427   2.272
  150OSM    C1116600   1.954   4.437   2.086
  150OSM   H11A16601   1.980   4.444   1.978
  150OSM   H11B16602   1.919   4.538   2.118
  150OSM      P16603   1.703   4.361   2.146
  150OSM    O1316604   1.625   4.418   2.035
  150OSM    O1416605   1.653   4.240   2.216
  150OSM    O1116606   1.719   4.476   2.248
  150OSM    O1216607   1.855   4.336   2.105
  150OSM    C1S16608   1.799   4.467   2.363
  150OSM    H1S16609   1.851   4.566   2.367
  150OSM    H1T16610   1.873   4.386   2.358
  150OSM     NF16611   1.689   4.312   2.532
  150OSM    HNF16612   1.592   4.289   2.529
  150OSM    C2S16613   1.712   4.443   2.489
  150OSM    H2S16614   1.776   4.486   2.570
  150OSM    C3S16615   1.571   4.496   2.465
  150OSM    H3S16616   1.510   4.463   2.383
  150OSM     O316617   1.576   4.625   2.409
  150OSM    HO316618   1.666   4.652   2.432
  150OSM    C4S16619   1.489   4.507   2.592
  150OSM    H4S16620   1.395   4.472   2.601
  150OSM    C5S16621   1.521   4.522   2.714
  150OSM    H5S16622   1.630   4.534   2.703
  150OSM    C6S16623   1.431   4.543   2.841
  150OSM    H6S16624   1.326   4.539   2.825
  150OSM    H6T16625   1.407   4.653   2.864
  150OSM    C7S16626   1.463   4.482   2.983
  150OSM    H7S16627   1.500   4.380   2.975
  150OSM    H7T16628   1.393   4.525   3.058
  150OSM    C8S16629   1.545   4.561   3.076
  150OSM    H8S16630   1.527   4.659   3.023
  150OSM    H8T16631   1.595   4.537   2.977
  150OSM    C9S16632   1.657   4.547   3.224
  150OSM    H9S16633   1.667   4.441   3.241
  150OSM    H9T16634   1.615   4.608   3.305
  150OSM   C10S16635   1.828   4.610   3.259
  150OSM   H10S16636   1.876   4.702   3.214
  150OSM   H10T16637   1.916   4.571   3.200
  150OSM   C11S16638   1.880   4.628   3.387
  150OSM   H11S16639   1.789   4.672   3.423
  150OSM   H11T16640   1.966   4.702   3.388
  150OSM   C12S16641   1.908   4.483   3.398
  150OSM   H12S16642   1.998   4.461   3.336
  150OSM   H12T16643   1.823   4.423   3.357
  150OSM   C13S16644   1.921   4.450   3.540
  150OSM   H13S16645   2.018   4.496   3.570
  150OSM   H13T16646   1.914   4.342   3.554
  150OSM   C14S16647   1.813   4.514   3.622
  150OSM   H14S16648   1.709   4.499   3.584
  150OSM   H14T16649   1.843   4.618   3.617
  150OSM   C15S16650   1.819   4.478   3.767
  150OSM   H15S16651   1.803   4.369   3.774
  150OSM   H15T16652   1.723   4.519   3.802
  150OSM   C16S16653   1.954   4.520   3.838
  150OSM   H16S16654   1.995   4.615   3.800
  150OSM   H16T16655   2.017   4.440   3.795
  150OSM   C17S16656   1.964   4.530   3.998
  150OSM   H17S16657   1.946   4.434   4.022
  150OSM   H17T16658   1.887   4.533   4.076
  150OSM   C18S16659   2.055   4.601   4.090
  150OSM   H18S16660   2.070   4.535   4.180
  150OSM   H18T16661   2.081   4.704   4.098
  150OSM   H18U16662   2.144   4.596   4.039
  150OSM    C1F16663   1.778   4.223   2.554
  150OSM     OF16664   1.897   4.252   2.564
  150OSM    C2F16665   1.722   4.085   2.562
  150OSM    H2F16666   1.729   4.038   2.462
  150OSM    H2G16667   1.614   4.091   2.589
  150OSM    C3F16668   1.803   4.003   2.662
  150OSM    H3F16669   1.908   3.997   2.627
  150OSM    H3G16670   1.761   3.899   2.663
  150OSM    C4F16671   1.807   4.062   2.803
  150OSM    H4F16672   1.821   4.172   2.808
  150OSM    H4G16673   1.891   4.012   2.858
  150OSM    C5F16674   1.682   4.031   2.879
  150OSM    H5F16675   1.691   3.921   2.870
  150OSM    H5G16676   1.588   4.059   2.827
  150OSM    C6F16677   1.679   4.095   3.018
  150OSM    H6F16678   1.691   4.205   3.006
  150OSM    H6G16679   1.765   4.062   3.082
  150OSM    C7F16680   1.542   4.085   3.084
  150OSM    H7F16681   1.518   3.985   3.104
  150OSM    H7G16682   1.458   4.104   3.015
  150OSM    C8F16683   1.529   4.147   3.222
  150OSM    H8F16684   1.522   4.256   3.202
  150OSM    H8G16685   1.623   4.128   3.279
  150OSM    C9F16686   1.404   4.096   3.292
  150OSM    H9F16687   1.311   4.124   3.241
  150OSM   C10F16688   1.387   4.024   3.402
  150OSM   H10F16689   1.285   4.007   3.438
  150OSM   C11F16690   1.494   3.971   3.490
  150OSM   H11F16691   1.588   3.983   3.432
  150OSM   H11G16692   1.468   3.863   3.507
  150OSM   C12F16693   1.516   4.041   3.624
  150OSM   H12F16694   1.418   4.028   3.676
  150OSM   H12G16695   1.541   4.147   3.606
  150OSM   C13F16696   1.621   3.985   3.721
  150OSM   H13F16697   1.584   3.889   3.747
  150OSM   H13G16698   1.605   4.021   3.824
  150OSM   C14F16699   1.770   4.000   3.685
  150OSM   H14F16700   1.779   4.087   3.616
  150OSM   H14G16701   1.818   3.913   3.636
  150OSM   C15F16702   1.855   4.024   3.808
  150OSM   H15F16703   1.867   3.929   3.865
  150OSM   H15G16704   1.799   4.090   3.875
  150OSM   C16F16705   1.990   4.088   3.773
  150OSM   H16F16706   1.979   4.187   3.724
  150OSM   H16G16707   2.048   4.020   3.707
  150OSM   C17F16708   2.071   4.109   3.897
  150OSM   H17F16709   2.009   4.170   3.964
  150OSM   H17G16710   2.162   4.169   3.879
  150OSM   C18F16711   2.114   3.979   3.956
  150OSM   H18F16712   2.039   3.900   3.966
  150OSM   H18G16713   2.142   3.998   4.061
  150OSM   H18H16714   2.198   3.941   3.893
  151OSM      N16715   1.389   3.907   2.051
  151OSM    C1516716   1.536   3.895   2.062
  151OSM   H15A16717   1.580   3.902   1.964
  151OSM   H15B16718   1.558   3.798   2.107
  151OSM   H15C16719   1.578   3.974   2.126
  151OSM    C1416720   1.359   4.047   2.031
  151OSM   H14A16721   1.395   4.100   1.947
  151OSM   H14B16722   1.396   4.100   2.121
  151OSM   H14C16723   1.252   4.064   2.042
  151OSM    C1316724   1.339   3.835   1.931
  151OSM   H13A16725   1.231   3.833   1.934
  151OSM   H13B16726   1.382   3.736   1.932
  151OSM   H13C16727   1.374   3.882   1.840
  151OSM    C1216728   1.325   3.862   2.182
  151OSM   H12A16729   1.229   3.913   2.198
  151OSM   H12B16730   1.384   3.895   2.267
  151OSM    C1116731   1.306   3.711   2.199
  151OSM   H11A16732   1.240   3.675   2.120
  151OSM   H11B16733   1.258   3.692   2.298
  151OSM      P16734   1.424   3.489   2.224
  151OSM    O1316735   1.285   3.438   2.200
  151OSM    O1416736   1.536   3.421   2.158
  151OSM    O1116737   1.448   3.507   2.380
  151OSM    O1216738   1.428   3.642   2.182
  151OSM    C1S16739   1.345   3.468   2.469
  151OSM    H1S16740   1.336   3.357   2.464
  151OSM    H1T16741   1.245   3.506   2.442
  151OSM     NF16742   1.306   3.449   2.706
  151OSM    HNF16743   1.245   3.489   2.773
  151OSM    C2S16744   1.380   3.519   2.612
  151OSM    H2S16745   1.488   3.498   2.631
  151OSM    C3S16746   1.351   3.667   2.637
  151OSM    H3S16747   1.239   3.678   2.636
  151OSM     O316748   1.405   3.752   2.539
  151OSM    HO316749   1.441   3.693   2.472
  151OSM    C4S16750   1.404   3.710   2.771
  151OSM    H4S16751   1.514   3.712   2.775
  151OSM    C5S16752   1.336   3.752   2.879
  151OSM    H5S16753   1.226   3.758   2.875
  151OSM    C6S16754   1.394   3.794   3.012
  151OSM    H6S16755   1.332   3.747   3.083
  151OSM    H6T16756   1.364   3.897   3.039
  151OSM    C7S16757   1.547   3.766   3.038
  151OSM    H7S16758   1.579   3.849   2.981
  151OSM    H7T16759   1.590   3.681   2.982
  151OSM    C8S16760   1.623   3.798   3.172
  151OSM    H8S16761   1.608   3.891   3.227
  151OSM    H8T16762   1.732   3.792   3.150
  151OSM    C9S16763   1.588   3.717   3.288
  151OSM    H9S16764   1.627   3.637   3.226
  151OSM    H9T16765   1.479   3.719   3.312
  151OSM   C10S16766   1.675   3.725   3.412
  151OSM   H10S16767   1.669   3.824   3.446
  151OSM   H10T16768   1.780   3.704   3.386
  151OSM   C11S16769   1.635   3.650   3.536
  151OSM   H11S16770   1.690   3.554   3.519
  151OSM   H11T16771   1.523   3.647   3.556
  151OSM   C12S16772   1.701   3.669   3.662
  151OSM   H12S16773   1.628   3.735   3.699
  151OSM   H12T16774   1.800   3.710   3.640
  151OSM   C13S16775   1.687   3.560   3.767
  151OSM   H13S16776   1.712   3.462   3.722
  151OSM   H13T16777   1.580   3.559   3.800
  151OSM   C14S16778   1.781   3.602   3.879
  151OSM   H14S16779   1.800   3.711   3.868
  151OSM   H14T16780   1.876   3.550   3.859
  151OSM   C15S16781   1.736   3.574   4.023
  151OSM   H15S16782   1.737   3.463   4.039
  151OSM   H15T16783   1.633   3.611   4.037
  151OSM   C16S16784   1.826   3.641   4.129
  151OSM   H16S16785   1.807   3.751   4.132
  151OSM   H16T16786   1.933   3.628   4.102
  151OSM   C17S16787   1.801   3.589   4.271
  151OSM   H17S16788   1.817   3.480   4.283
  151OSM   H17T16789   1.693   3.612   4.288
  151OSM   C18S16790   1.876   3.660   4.383
  151OSM   H18S16791   1.983   3.683   4.361
  151OSM   H18T16792   1.872   3.604   4.478
  151OSM   H18U16793   1.820   3.752   4.404
  151OSM    C1F16794   1.329   3.327   2.712
  151OSM     OF16795   1.402   3.260   2.639
  151OSM    C2F16796   1.272   3.280   2.824
  151OSM    H2F16797   1.194   3.212   2.793
  151OSM    H2G16798   1.190   3.335   2.870
  151OSM    C3F16799   1.421   3.234   2.854
  151OSM    H3F16800   1.455   3.133   2.836
  151OSM    H3G16801   1.396   3.144   2.897
  151OSM    C4F16802   1.531   3.305   2.935
  151OSM    H4F16803   1.578   3.378   2.866
  151OSM    H4G16804   1.589   3.267   3.023
  151OSM    C5F16805   1.505   3.366   3.064
  151OSM    H5F16806   1.453   3.450   2.991
  151OSM    H5G16807   1.554   3.469   3.060
  151OSM    C6F16808   1.357   3.312   3.286
  151OSM    H6F16809   1.430   3.263   3.322
  151OSM    H6G16810   1.281   3.241   3.283
  151OSM    C7F16811   1.250   3.423   3.377
  151OSM    H7F16812   1.288   3.527   3.396
  151OSM    H7G16813   1.262   3.408   3.484
  151OSM    C8F16814   1.119   3.501   3.315
  151OSM    H8F16815   1.066   3.536   3.405
  151OSM    H8G16816   1.063   3.422   3.277
  151OSM    C9F16817   1.097   3.595   3.192
  151OSM    H9F16818   1.090   3.547   3.092
  151OSM   C10F16819   1.084   3.726   3.185
  151OSM   H10F16820   1.078   3.778   3.087
  151OSM   C11F16821   1.089   3.803   3.310
  151OSM   H11F16822   1.101   3.911   3.294
  151OSM   H11G16823   1.172   3.766   3.374
  151OSM   C12F16824   0.959   3.780   3.385
  151OSM   H12F16825   0.921   3.675   3.385
  151OSM   H12G16826   0.879   3.840   3.336
  151OSM   C13F16827   0.997   3.818   3.527
  151OSM   H13F16828   0.916   3.827   3.593
  151OSM   H13G16829   1.045   3.917   3.532
  151OSM   C14F16830   1.025   3.708   3.628
  151OSM   H14F16831   1.125   3.672   3.601
  151OSM   H14G16832   0.946   3.629   3.620
  151OSM   C15F16833   1.019   3.754   3.775
  151OSM   H15F16834   1.018   3.664   3.840
  151OSM   H15G16835   0.931   3.816   3.805
  151OSM   C16F16836   1.135   3.843   3.805
  151OSM   H16F16837   1.097   3.913   3.883
  151OSM   H16G16838   1.173   3.897   3.717
  151OSM   C17F16839   1.242   3.775   3.877
  151OSM   H17F16840   1.342   3.819   3.856
  151OSM   H17G16841   1.245   3.665   3.861
  151OSM   C18F16842   1.212   3.805   4.019
  151OSM   H18F16843   1.123   3.759   4.065
  151OSM   H18G16844   1.234   3.906   4.061
  151OSM   H18H16845   1.290   3.740   4.045
  152OSM      N16846   3.339   6.101   1.976
  152OSM    C1516847   3.369   6.185   1.855
  152OSM   H15A16848   3.399   6.286   1.885
  152OSM   H15B16849   3.278   6.198   1.796
  152OSM   H15C16850   3.445   6.142   1.791
  152OSM    C1416851   3.244   6.181   2.060
  152OSM   H14A16852   3.160   6.214   2.000
  152OSM   H14B16853   3.296   6.269   2.099
  152OSM   H14C16854   3.206   6.124   2.143
  152OSM    C1316855   3.275   5.973   1.931
  152OSM   H13A16856   3.325   5.933   1.844
  152OSM   H13B16857   3.169   5.984   1.911
  152OSM   H13C16858   3.283   5.897   2.008
  152OSM    C1216859   3.462   6.063   2.057
  152OSM   H12A16860   3.526   5.998   1.998
  152OSM   H12B16861   3.428   6.005   2.142
  152OSM    C1116862   3.555   6.171   2.115
  152OSM   H11A16863   3.591   6.242   2.038
  152OSM   H11B16864   3.642   6.110   2.152
  152OSM      P16865   3.585   6.317   2.326
  152OSM    O1316866   3.725   6.268   2.314
  152OSM    O1416867   3.565   6.463   2.319
  152OSM    O1116868   3.529   6.262   2.463
  152OSM    O1216869   3.491   6.241   2.221
  152OSM    C1S16870   3.420   6.170   2.476
  152OSM    H1S16871   3.420   6.094   2.394
  152OSM    H1T16872   3.322   6.224   2.470
  152OSM     NF16873   3.421   6.191   2.724
  152OSM    HNF16874   3.511   6.214   2.758
  152OSM    C2S16875   3.427   6.098   2.614
  152OSM    H2S16876   3.338   6.031   2.621
  152OSM    C3S16877   3.557   6.013   2.622
  152OSM    H3S16878   3.644   6.080   2.642
  152OSM     O316879   3.585   5.944   2.501
  152OSM    HO316880   3.546   6.001   2.434
  152OSM    C4S16881   3.546   5.916   2.736
  152OSM    H4S16882   3.457   5.851   2.733
  152OSM    C5S16883   3.630   5.905   2.840
  152OSM    H5S16884   3.716   5.972   2.851
  152OSM    C6S16885   3.610   5.805   2.950
  152OSM    H6S16886   3.672   5.715   2.929
  152OSM    H6T16887   3.506   5.765   2.948
  152OSM    C7S16888   3.627   5.868   3.092
  152OSM    H7S16889   3.586   5.788   3.157
  152OSM    H7T16890   3.561   5.955   3.104
  152OSM    C8S16891   3.765   5.919   3.146
  152OSM    H8S16892   3.790   6.020   3.112
  152OSM    H8T16893   3.849   5.872   3.101
  152OSM    C9S16894   3.804   5.878   3.290
  152OSM    H9S16895   3.904   5.917   3.314
  152OSM    H9T16896   3.820   5.771   3.315
  152OSM   C10S16897   3.693   5.906   3.385
  152OSM   H10S16898   3.607   5.837   3.363
  152OSM   H10T16899   3.664   6.010   3.364
  152OSM   C11S16900   3.743   5.878   3.525
  152OSM   H11S16901   3.842   5.927   3.535
  152OSM   H11T16902   3.757   5.768   3.538
  152OSM   C12S16903   3.650   5.933   3.631
  152OSM   H12S16904   3.610   6.031   3.595
  152OSM   H12T16905   3.712   5.951   3.722
  152OSM   C13S16906   3.538   5.834   3.667
  152OSM   H13S16907   3.589   5.735   3.684
  152OSM   H13T16908   3.473   5.820   3.578
  152OSM   C14S16909   3.454   5.870   3.791
  152OSM   H14S16910   3.519   5.861   3.880
  152OSM   H14T16911   3.373   5.793   3.801
  152OSM   C15S16912   3.378   6.004   3.791
  152OSM   H15S16913   3.302   5.998   3.709
  152OSM   H15T16914   3.444   6.090   3.767
  152OSM   C16S16915   3.295   6.030   3.919
  152OSM   H16S16916   3.220   5.949   3.929
  152OSM   H16T16917   3.237   6.124   3.910
  152OSM   C17S16918   3.371   6.036   4.052
  152OSM   H17S16919   3.443   6.121   4.049
  152OSM   H17T16920   3.428   5.942   4.066
  152OSM   C18S16921   3.273   6.055   4.169
  152OSM   H18S16922   3.200   5.971   4.175
  152OSM   H18T16923   3.217   6.150   4.154
  152OSM   H18U16924   3.324   6.059   4.268
  152OSM    C1F16925   3.312   6.257   2.761
  152OSM     OF16926   3.207   6.248   2.700
  152OSM    C2F16927   3.326   6.342   2.883
  152OSM    H2F16928   3.317   6.448   2.854
  152OSM    H2G16929   3.425   6.324   2.930
  152OSM    C3F16930   3.217   6.303   2.985
  152OSM    H3F16931   3.120   6.336   2.941
  152OSM    H3G16932   3.229   6.360   3.078
  152OSM    C4F16933   3.214   6.152   3.020
  152OSM    H4F16934   3.205   6.091   2.926
  152OSM    H4G16935   3.124   6.131   3.081
  152OSM    C5F16936   3.336   6.096   3.095
  152OSM    H5F16937   3.430   6.145   3.064
  152OSM    H5G16938   3.346   5.990   3.061
  152OSM    C6F16939   3.315   6.085   3.248
  152OSM    H6F16940   3.362   5.991   3.285
  152OSM    H6G16941   3.207   6.080   3.274
  152OSM    C7F16942   3.381   6.196   3.329
  152OSM    H7F16943   3.352   6.296   3.290
  152OSM    H7G16944   3.490   6.182   3.312
  152OSM    C8F16945   3.360   6.182   3.482
  152OSM    H8F16946   3.438   6.247   3.526
  152OSM    H8G16947   3.391   6.077   3.504
  152OSM    C9F16948   3.225   6.206   3.550
  152OSM    H9F16949   3.159   6.119   3.562
  152OSM   C10F16950   3.188   6.315   3.618
  152OSM   H10F16951   3.087   6.320   3.664
  152OSM   C11F16952   3.271   6.437   3.642
  152OSM   H11F16953   3.202   6.519   3.672
  152OSM   H11G16954   3.321   6.469   3.549
  152OSM   C12F16955   3.373   6.416   3.754
  152OSM   H12F16956   3.436   6.507   3.765
  152OSM   H12G16957   3.444   6.332   3.735
  152OSM   C13F16958   3.302   6.386   3.885
  152OSM   H13F16959   3.374   6.349   3.960
  152OSM   H13G16960   3.216   6.317   3.880
  152OSM   C14F16961   3.245   6.510   3.941
  152OSM   H14F16962   3.139   6.531   3.914
  152OSM   H14G16963   3.298   6.591   3.892
  152OSM   C15F16964   3.262   6.502   4.091
  152OSM   H15F16965   3.288   6.404   4.136
  152OSM   H15G16966   3.158   6.525   4.106
  152OSM   C16F16967   3.344   6.600   4.167
  152OSM   H16F16968   3.363   6.604   4.275
  152OSM   H16G16969   3.274   6.681   4.183
  152OSM   C17F16970   3.477   6.595   4.094
  152OSM   H17F16971   3.554   6.645   4.139
  152OSM   H17G16972   3.501   6.615   3.991
  152OSM   C18F16973   3.542   6.481   4.134
  152OSM   H18F16974   3.508   6.506   4.236
  152OSM   H18G16975   3.653   6.484   4.135
  152OSM   H18H16976   3.493   6.387   4.114
  153OSM      N16977   1.987   5.809   2.221
  153OSM    C1516978   1.926   5.797   2.084
  153OSM   H15A16979   2.002   5.820   2.009
  153OSM   H15B16980   1.838   5.859   2.071
  153OSM   H15C16981   1.894   5.697   2.063
  153OSM    C1416982   2.047   5.947   2.231
  153OSM   H14A16983   1.970   6.022   2.214
  153OSM   H14B16984   2.125   5.965   2.157
  153OSM   H14C16985   2.093   5.964   2.326
  153OSM    C1316986   1.880   5.802   2.321
  153OSM   H13A16987   1.818   5.891   2.314
  153OSM   H13B16988   1.918   5.796   2.423
  153OSM   H13C16989   1.815   5.717   2.304
  153OSM    C1216990   2.087   5.699   2.251
  153OSM   H12A16991   2.035   5.613   2.292
  153OSM   H12B16992   2.158   5.731   2.326
  153OSM    C1116993   2.165   5.643   2.132
  153OSM   H11A16994   2.098   5.587   2.063
  153OSM   H11B16995   2.235   5.567   2.175
  153OSM      P16996   2.382   5.778   2.076
  153OSM    O1316997   2.446   5.651   2.120
  153OSM    O1416998   2.433   5.841   1.953
  153OSM    O1116999   2.392   5.879   2.200
  153OSM    O1217000   2.227   5.750   2.060
  153OSM    C1S17001   2.483   5.847   2.308
  153OSM    H1S17002   2.583   5.891   2.287
  153OSM    H1T17003   2.500   5.738   2.324
  153OSM     NF17004   2.324   5.817   2.498
  153OSM    HNF17005   2.237   5.862   2.492
  153OSM    C2S17006   2.429   5.901   2.443
  153OSM    H2S17007   2.516   5.899   2.514
  153OSM    C3S17008   2.375   6.046   2.435
  153OSM    H3S17009   2.282   6.046   2.374
  153OSM     O317010   2.463   6.143   2.380
  153OSM    HO317011   2.533   6.095   2.334
  153OSM    C4S17012   2.335   6.085   2.577
  153OSM    H4S17013   2.227   6.088   2.597
  153OSM    C5S17014   2.418   6.112   2.678
  153OSM    H5S17015   2.526   6.111   2.658
  153OSM    C6S17016   2.376   6.152   2.817
  153OSM    H6S17017   2.302   6.234   2.810
  153OSM    H6T17018   2.460   6.193   2.876
  153OSM    C7S17019   2.340   6.039   2.913
  153OSM    H7S17020   2.267   5.975   2.861
  153OSM    H7T17021   2.292   6.084   3.003
  153OSM    C8S17022   2.466   5.960   2.957
  153OSM    H8S17023   2.531   6.013   3.030
  153OSM    H8T17024   2.529   5.948   2.866
  153OSM    C9S17025   2.435   5.818   3.009
  153OSM    H9S17026   2.531   5.764   3.027
  153OSM    H9T17027   2.382   5.768   2.925
  153OSM   C10S17028   2.347   5.805   3.136
  153OSM   H10S17029   2.337   5.696   3.158
  153OSM   H10T17030   2.245   5.843   3.115
  153OSM   C11S17031   2.398   5.877   3.262
  153OSM   H11S17032   2.412   5.986   3.241
  153OSM   H11T17033   2.498   5.834   3.286
  153OSM   C12S17034   2.302   5.859   3.382
  153OSM   H12S17035   2.275   5.751   3.385
  153OSM   H12T17036   2.208   5.916   3.365
  153OSM   C13S17037   2.360   5.892   3.522
  153OSM   H13S17038   2.403   5.994   3.522
  153OSM   H13T17039   2.444   5.822   3.544
  153OSM   C14S17040   2.257   5.879   3.637
  153OSM   H14S17041   2.308   5.843   3.729
  153OSM   H14T17042   2.181   5.802   3.611
  153OSM   C15S17043   2.186   6.012   3.664
  153OSM   H15S17044   2.125   6.033   3.573
  153OSM   H15T17045   2.260   6.095   3.673
  153OSM   C16S17046   2.093   6.014   3.787
  153OSM   H16S17047   2.008   5.945   3.767
  153OSM   H16T17048   2.051   6.117   3.795
  153OSM   C17S17049   2.154   5.980   3.924
  153OSM   H17S17050   2.193   5.877   3.929
  153OSM   H17T17051   2.072   5.989   3.999
  153OSM   C18S17052   2.264   6.076   3.968
  153OSM   H18S17053   2.335   6.035   4.042
  153OSM   H18T17054   2.213   6.156   4.021
  153OSM   H18U17055   2.316   6.121   3.881
  153OSM    C1F17056   2.335   5.696   2.552
  153OSM     OF17057   2.438   5.630   2.545
  153OSM    C2F17058   2.209   5.649   2.619
  153OSM    H2F17059   2.142   5.608   2.541
  153OSM    H2G17060   2.156   5.738   2.662
  153OSM    C3F17061   2.229   5.547   2.733
  153OSM    H3F17062   2.323   5.565   2.790
  153OSM    H3G17063   2.235   5.445   2.690
  153OSM    C4F17064   2.110   5.546   2.832
  153OSM    H4F17065   2.018   5.524   2.773
  153OSM    H4G17066   2.096   5.645   2.880
  153OSM    C5F17067   2.121   5.439   2.941
  153OSM    H5F17068   2.197   5.463   3.018
  153OSM    H5G17069   2.154   5.346   2.892
  153OSM    C6F17070   1.989   5.416   3.012
  153OSM    H6F17071   1.997   5.335   3.087
  153OSM    H6G17072   1.914   5.384   2.938
  153OSM    C7F17073   1.945   5.542   3.085
  153OSM    H7F17074   1.916   5.624   3.015
  153OSM    H7G17075   2.029   5.578   3.147
  153OSM    C8F17076   1.828   5.516   3.177
  153OSM    H8F17077   1.739   5.491   3.112
  153OSM    H8G17078   1.818   5.617   3.222
  153OSM    C9F17079   1.845   5.425   3.294
  153OSM    H9F17080   1.808   5.323   3.280
  153OSM   C10F17081   1.906   5.461   3.410
  153OSM   H10F17082   1.920   5.386   3.488
  153OSM   C11F17083   1.965   5.597   3.442
  153OSM   H11F17084   1.967   5.662   3.352
  153OSM   H11G17085   2.072   5.584   3.472
  153OSM   C12F17086   1.889   5.678   3.548
  153OSM   H12F17087   1.784   5.682   3.512
  153OSM   H12G17088   1.930   5.781   3.558
  153OSM   C13F17089   1.863   5.620   3.687
  153OSM   H13F17090   1.819   5.519   3.673
  153OSM   H13G17091   1.782   5.683   3.732
  153OSM   C14F17092   1.985   5.619   3.780
  153OSM   H14F17093   2.042   5.714   3.769
  153OSM   H14G17094   2.050   5.533   3.756
  153OSM   C15F17095   1.942   5.608   3.925
  153OSM   H15F17096   1.888   5.512   3.942
  153OSM   H15G17097   1.870   5.693   3.928
  153OSM   C16F17098   2.049   5.628   4.035
  153OSM   H16F17099   2.009   5.657   4.133
  153OSM   H16G17100   2.109   5.717   4.020
  153OSM   C17F17101   2.130   5.500   4.054
  153OSM   H17F17102   2.203   5.501   3.970
  153OSM   H17G17103   2.063   5.412   4.044
  153OSM   C18F17104   2.202   5.486   4.188
  153OSM   H18F17105   2.282   5.561   4.198
  153OSM   H18G17106   2.248   5.385   4.192
  153OSM   H18H17107   2.131   5.496   4.273
  154OSM      N17108   1.127   4.656   2.094
  154OSM    C1517109   1.245   4.640   2.185
  154OSM   H15A17110   1.336   4.615   2.132
  154OSM   H15B17111   1.228   4.551   2.248
  154OSM   H15C17112   1.258   4.725   2.251
  154OSM    C1417113   1.003   4.645   2.180
  154OSM   H14A17114   0.999   4.544   2.221
  154OSM   H14B17115   0.912   4.662   2.123
  154OSM   H14C17116   1.005   4.715   2.262
  154OSM    C1317117   1.125   4.786   2.025
  154OSM   H13A17118   1.204   4.798   1.951
  154OSM   H13B17119   1.136   4.866   2.099
  154OSM   H13C17120   1.031   4.801   1.974
  154OSM    C1217121   1.127   4.539   1.995
  154OSM   H12A17122   1.190   4.564   1.910
  154OSM   H12B17123   1.026   4.526   1.961
  154OSM    C1117124   1.173   4.399   2.043
  154OSM   H11A17125   1.282   4.386   2.018
  154OSM   H11B17126   1.117   4.325   1.981
  154OSM      P17127   1.130   4.232   2.229
  154OSM    O1317128   1.016   4.168   2.163
  154OSM    O1417129   1.261   4.173   2.220
  154OSM    O1117130   1.121   4.237   2.383
  154OSM    O1217131   1.147   4.381   2.183
  154OSM    C1S17132   1.006   4.290   2.439
  154OSM    H1S17133   0.925   4.216   2.421
  154OSM    H1T17134   0.984   4.389   2.394
  154OSM     NF17135   0.904   4.311   2.651
  154OSM    HNF17136   0.865   4.401   2.660
  154OSM    C2S17137   1.028   4.302   2.589
  154OSM    H2S17138   1.085   4.211   2.622
  154OSM    C3S17139   1.105   4.425   2.622
  154OSM    H3S17140   1.056   4.521   2.595
  154OSM     O317141   1.216   4.426   2.540
  154OSM    HO317142   1.228   4.337   2.506
  154OSM    C4S17143   1.137   4.429   2.770
  154OSM    H4S17144   1.219   4.365   2.806
  154OSM    C5S17145   1.077   4.515   2.856
  154OSM    H5S17146   0.996   4.576   2.815
  154OSM    C6S17147   1.099   4.534   3.005
  154OSM    H6S17148   1.000   4.535   3.054
  154OSM    H6T17149   1.142   4.635   3.024
  154OSM    C7S17150   1.175   4.430   3.087
  154OSM    H7S17151   1.268   4.403   3.040
  154OSM    H7T17152   1.130   4.330   3.079
  154OSM    C8S17153   1.203   4.475   3.233
  154OSM    H8S17154   1.117   4.524   3.280
  154OSM    H8T17155   1.287   4.549   3.229
  154OSM    C9S17156   1.242   4.357   3.321
  154OSM    H9S17157   1.314   4.311   3.252
  154OSM    H9T17158   1.157   4.288   3.338
  154OSM   C10S17159   1.311   4.387   3.455
  154OSM   H10S17160   1.391   4.462   3.439
  154OSM   H10T17161   1.359   4.294   3.495
  154OSM   C11S17162   1.217   4.444   3.560
  154OSM   H11S17163   1.184   4.543   3.521
  154OSM   H11T17164   1.272   4.460   3.656
  154OSM   C12S17165   1.089   4.366   3.590
  154OSM   H12S17166   1.020   4.367   3.502
  154OSM   H12T17167   1.039   4.424   3.670
  154OSM   C13S17168   1.111   4.223   3.636
  154OSM   H13S17169   1.192   4.214   3.712
  154OSM   H13T17170   1.143   4.159   3.550
  154OSM   C14S17171   0.982   4.166   3.696
  154OSM   H14S17172   0.977   4.074   3.637
  154OSM   H14T17173   0.893   4.228   3.675
  154OSM   C15S17174   0.988   4.123   3.843
  154OSM   H15S17175   1.092   4.093   3.861
  154OSM   H15T17176   0.919   4.036   3.855
  154OSM   C16S17177   0.956   4.226   3.952
  154OSM   H16S17178   0.931   4.172   4.046
  154OSM   H16T17179   0.868   4.285   3.920
  154OSM   C17S17180   1.070   4.325   3.983
  154OSM   H17S17181   1.025   4.399   4.053
  154OSM   H17T17182   1.095   4.378   3.889
  154OSM   C18S17183   1.197   4.271   4.049
  154OSM   H18S17184   1.256   4.354   4.089
  154OSM   H18T17185   1.262   4.218   3.978
  154OSM   H18U17186   1.175   4.203   4.134
  154OSM    C1F17187   0.843   4.203   2.690
  154OSM     OF17188   0.888   4.090   2.682
  154OSM    C2F17189   0.713   4.232   2.745
  154OSM    H2F17190   0.651   4.167   2.684
  154OSM    H2G17191   0.677   4.336   2.726
  154OSM    C3F17192   0.713   4.190   2.891
  154OSM    H3F17193   0.720   4.079   2.900
  154OSM    H3G17194   0.621   4.236   2.932
  154OSM    C4F17195   0.795   4.253   2.997
  154OSM    H4F17196   0.812   4.356   2.961
  154OSM    H4G17197   0.887   4.191   3.003
  154OSM    C5F17198   0.716   4.256   3.131
  154OSM    H5F17199   0.677   4.155   3.158
  154OSM    H5G17200   0.627   4.322   3.120
  154OSM    C6F17201   0.808   4.303   3.242
  154OSM    H6F17202   0.907   4.257   3.218
  154OSM    H6G17203   0.778   4.265   3.341
  154OSM    C7F17204   0.825   4.455   3.245
  154OSM    H7F17205   0.831   4.492   3.140
  154OSM    H7G17206   0.922   4.475   3.295
  154OSM    C8F17207   0.717   4.538   3.317
  154OSM    H8F17208   0.620   4.527   3.265
  154OSM    H8G17209   0.747   4.645   3.306
  154OSM    C9F17210   0.693   4.502   3.462
  154OSM    H9F17211   0.657   4.400   3.479
  154OSM   C10F17212   0.716   4.581   3.568
  154OSM   H10F17213   0.693   4.543   3.668
  154OSM   C11F17214   0.771   4.720   3.566
  154OSM   H11F17215   0.713   4.792   3.628
  154OSM   H11G17216   0.783   4.765   3.465
  154OSM   C12F17217   0.909   4.702   3.626
  154OSM   H12F17218   0.964   4.781   3.575
  154OSM   H12G17219   0.968   4.615   3.593
  154OSM   C13F17220   0.899   4.698   3.779
  154OSM   H13F17221   0.832   4.621   3.819
  154OSM   H13G17222   0.858   4.797   3.813
  154OSM   C14F17223   1.029   4.651   3.843
  154OSM   H14F17224   1.067   4.739   3.804
  154OSM   H14G17225   1.106   4.586   3.803
  154OSM   C15F17226   1.032   4.658   3.992
  154OSM   H15F17227   0.953   4.612   4.050
  154OSM   H15G17228   0.985   4.757   3.999
  154OSM   C16F17229   1.173   4.632   4.052
  154OSM   H16F17230   1.257   4.707   4.059
  154OSM   H16G17231   1.227   4.564   3.986
  154OSM   C17F17232   1.168   4.583   4.191
  154OSM   H17F17233   1.106   4.495   4.205
  154OSM   H17G17234   1.127   4.646   4.275
  154OSM   C18F17235   1.316   4.559   4.202
  154OSM   H18F17236   1.378   4.482   4.160
  154OSM   H18G17237   1.307   4.516   4.299
  154OSM   H18H17238   1.375   4.655   4.194
  155OSM      N17239   2.160   1.360   1.970
  155OSM    C1517240   2.297   1.423   1.983
  155OSM   H15A17241   2.371   1.352   2.019
  155OSM   H15B17242   2.293   1.503   2.058
  155OSM   H15C17243   2.335   1.465   1.891
  155OSM    C1417244   2.061   1.471   1.953
  155OSM   H14A17245   2.070   1.540   2.037
  155OSM   H14B17246   1.960   1.434   1.954
  155OSM   H14C17247   2.080   1.526   1.862
  155OSM    C1317248   2.146   1.270   1.851
  155OSM   H13A17249   2.225   1.193   1.849
  155OSM   H13B17250   2.153   1.327   1.760
  155OSM   H13C17251   2.049   1.220   1.851
  155OSM    C1217252   2.131   1.278   2.096
  155OSM   H12A17253   2.196   1.192   2.090
  155OSM   H12B17254   2.027   1.247   2.099
  155OSM    C1117255   2.161   1.344   2.232
  155OSM   H11A17256   2.269   1.368   2.234
  155OSM   H11B17257   2.144   1.271   2.316
  155OSM      P17258   1.940   1.465   2.307
  155OSM    O1317259   1.901   1.604   2.339
  155OSM    O1417260   1.858   1.398   2.203
  155OSM    O1117261   1.950   1.377   2.437
  155OSM    O1217262   2.087   1.464   2.250
  155OSM    C1S17263   2.034   1.410   2.547
  155OSM    H1S17264   2.104   1.494   2.526
  155OSM    H1T17265   2.097   1.321   2.571
  155OSM     NF17266   2.053   1.461   2.775
  155OSM    HNF17267   2.064   1.397   2.849
  155OSM    C2S17268   1.957   1.445   2.675
  155OSM    H2S17269   1.897   1.538   2.657
  155OSM    C3S17270   1.866   1.335   2.718
  155OSM    H3S17271   1.916   1.238   2.736
  155OSM     O317272   1.772   1.308   2.619
  155OSM    HO317273   1.758   1.395   2.578
  155OSM    C4S17274   1.816   1.377   2.853
  155OSM    H4S17275   1.760   1.472   2.860
  155OSM    C5S17276   1.826   1.301   2.960
  155OSM    H5S17277   1.865   1.199   2.958
  155OSM    C6S17278   1.779   1.342   3.091
  155OSM    H6S17279   1.808   1.270   3.172
  155OSM    H6T17280   1.674   1.348   3.079
  155OSM    C7S17281   1.793   1.475   3.146
  155OSM    H7S17282   1.781   1.477   3.258
  155OSM    H7T17283   1.736   1.553   3.090
  155OSM    C8S17284   1.928   1.501   3.134
  155OSM    H8S17285   1.922   1.594   3.199
  155OSM    H8T17286   1.946   1.527   3.027
  155OSM    C9S17287   2.013   1.383   3.181
  155OSM    H9S17288   2.111   1.400   3.134
  155OSM    H9T17289   2.003   1.288   3.132
  155OSM   C10S17290   2.006   1.371   3.337
  155OSM   H10S17291   1.903   1.349   3.363
  155OSM   H10T17292   2.023   1.467   3.394
  155OSM   C11S17293   2.102   1.267   3.396
  155OSM   H11S17294   2.111   1.186   3.321
  155OSM   H11T17295   2.055   1.233   3.489
  155OSM   C12S17296   2.244   1.309   3.435
  155OSM   H12S17297   2.272   1.369   3.348
  155OSM   H12T17298   2.317   1.227   3.427
  155OSM   C13S17299   2.252   1.372   3.577
  155OSM   H13S17300   2.200   1.306   3.648
  155OSM   H13T17301   2.193   1.465   3.587
  155OSM   C14S17302   2.395   1.400   3.630
  155OSM   H14S17303   2.464   1.412   3.547
  155OSM   H14T17304   2.437   1.305   3.670
  155OSM   C15S17305   2.405   1.511   3.741
  155OSM   H15S17306   2.510   1.513   3.777
  155OSM   H15T17307   2.340   1.471   3.821
  155OSM   C16S17308   2.358   1.660   3.723
  155OSM   H16S17309   2.257   1.671   3.684
  155OSM   H16T17310   2.413   1.725   3.653
  155OSM   C17S17311   2.405   1.757   3.826
  155OSM   H17S17312   2.394   1.863   3.791
  155OSM   H17T17313   2.511   1.732   3.846
  155OSM   C18S17314   2.365   1.738   3.962
  155OSM   H18S17315   2.255   1.734   3.953
  155OSM   H18T17316   2.408   1.828   4.013
  155OSM   H18U17317   2.415   1.643   3.993
  155OSM    C1F17318   2.137   1.553   2.769
  155OSM     OF17319   2.111   1.658   2.709
  155OSM    C2F17320   2.238   1.529   2.881
  155OSM    H2F17321   2.343   1.540   2.858
  155OSM    H2G17322   2.203   1.463   2.964
  155OSM    C3F17323   2.230   1.639   2.967
  155OSM    H3F17324   2.123   1.680   2.944
  155OSM    H3G17325   2.173   1.715   2.905
  155OSM    C4F17326   2.347   1.716   3.110
  155OSM    H4F17327   2.445   1.748   3.094
  155OSM    H4G17328   2.377   1.617   3.112
  155OSM    C5F17329   2.291   1.831   3.258
  155OSM    H5F17330   2.258   1.932   3.237
  155OSM    H5G17331   2.377   1.846   3.308
  155OSM    C6F17332   2.146   1.818   3.367
  155OSM    H6F17333   2.124   1.728   3.424
  155OSM    H6G17334   2.043   1.794   3.333
  155OSM    C7F17335   2.089   1.918   3.446
  155OSM    H7F17336   2.084   1.967   3.346
  155OSM    H7G17337   2.183   1.900   3.500
  155OSM    C8F17338   1.962   1.866   3.512
  155OSM    H8F17339   1.900   1.796   3.450
  155OSM    H8G17340   1.903   1.958   3.525
  155OSM    C9F17341   2.006   1.797   3.638
  155OSM    H9F17342   2.084   1.850   3.695
  155OSM   C10F17343   1.970   1.673   3.675
  155OSM   H10F17344   1.997   1.641   3.776
  155OSM   C11F17345   1.879   1.577   3.600
  155OSM   H11F17346   1.915   1.472   3.611
  155OSM   H11G17347   1.875   1.594   3.490
  155OSM   C12F17348   1.735   1.592   3.652
  155OSM   H12F17349   1.670   1.528   3.592
  155OSM   H12G17350   1.697   1.696   3.640
  155OSM   C13F17351   1.720   1.553   3.798
  155OSM   H13F17352   1.615   1.568   3.831
  155OSM   H13G17353   1.782   1.626   3.855
  155OSM   C14F17354   1.773   1.413   3.831
  155OSM   H14F17355   1.883   1.409   3.815
  155OSM   H14G17356   1.728   1.334   3.768
  155OSM   C15F17357   1.748   1.382   3.976
  155OSM   H15F17358   1.789   1.282   4.006
  155OSM   H15G17359   1.639   1.379   3.997
  155OSM   C16F17360   1.819   1.487   4.062
  155OSM   H16F17361   1.795   1.441   4.154
  155OSM   H16G17362   1.772   1.587   4.059
  155OSM   C17F17363   1.973   1.483   4.057
  155OSM   H17F17364   2.004   1.513   3.956
  155OSM   H17G17365   2.000   1.377   4.080
  155OSM   C18F17366   2.058   1.571   4.149
  155OSM   H18F17367   2.019   1.674   4.171
  155OSM   H18G17368   2.164   1.547   4.161
  155OSM   H18H17369   2.057   1.527   4.245
  156OSM      N17370   5.727   6.587   2.122
  156OSM    C1517371   5.837   6.671   2.146
  156OSM   H15A17372   5.845   6.757   2.082
  156OSM   H15B17373   5.928   6.612   2.125
  156OSM   H15C17374   5.854   6.701   2.249
  156OSM    C1417375   5.610   6.670   2.154
  156OSM   H14A17376   5.520   6.611   2.132
  156OSM   H14B17377   5.609   6.757   2.090
  156OSM   H14C17378   5.612   6.702   2.257
  156OSM    C1317379   5.735   6.548   1.979
  156OSM   H13A17380   5.839   6.542   1.946
  156OSM   H13B17381   5.679   6.620   1.920
  156OSM   H13C17382   5.686   6.453   1.966
  156OSM    C1217383   5.736   6.469   2.212
  156OSM   H12A17384   5.707   6.503   2.311
  156OSM   H12B17385   5.838   6.432   2.215
  156OSM    C1117386   5.641   6.357   2.177
  156OSM   H11A17387   5.651   6.287   2.263
  156OSM   H11B17388   5.674   6.309   2.082
  156OSM      P17389   5.399   6.290   2.166
  156OSM    O1317390   5.267   6.348   2.136
  156OSM    O1417391   5.447   6.180   2.081
  156OSM    O1117392   5.412   6.244   2.317
  156OSM    O1217393   5.508   6.404   2.161
  156OSM    C1S17394   5.357   6.318   2.424
  156OSM    H1S17395   5.246   6.312   2.420
  156OSM    H1T17396   5.387   6.426   2.421
  156OSM     NF17397   5.373   6.354   2.660
  156OSM    HNF17398   5.450   6.407   2.690
  156OSM    C2S17399   5.399   6.256   2.558
  156OSM    H2S17400   5.335   6.167   2.577
  156OSM    C3S17401   5.549   6.213   2.560
  156OSM    H3S17402   5.611   6.297   2.523
  156OSM     O317403   5.583   6.097   2.484
  156OSM    HO317404   5.503   6.076   2.434
  156OSM    C4S17405   5.585   6.193   2.706
  156OSM    H4S17406   5.653   6.267   2.751
  156OSM    C5S17407   5.539   6.093   2.782
  156OSM    H5S17408   5.493   6.006   2.733
  156OSM    C6S17409   5.575   6.075   2.926
  156OSM    H6S17410   5.686   6.065   2.925
  156OSM    H6T17411   5.521   5.986   2.965
  156OSM    C7S17412   5.577   6.178   3.036
  156OSM    H7S17413   5.475   6.218   3.040
  156OSM    H7T17414   5.653   6.254   3.007
  156OSM    C8S17415   5.614   6.115   3.173
  156OSM    H8S17416   5.716   6.071   3.172
  156OSM    H8T17417   5.542   6.032   3.192
  156OSM    C9S17418   5.607   6.221   3.283
  156OSM    H9S17419   5.511   6.274   3.267
  156OSM    H9T17420   5.687   6.297   3.266
  156OSM   C10S17421   5.618   6.169   3.429
  156OSM   H10S17422   5.717   6.201   3.469
  156OSM   H10T17423   5.617   6.058   3.427
  156OSM   C11S17424   5.512   6.230   3.525
  156OSM   H11S17425   5.408   6.203   3.496
  156OSM   H11T17426   5.523   6.341   3.512
  156OSM   C12S17427   5.527   6.200   3.676
  156OSM   H12S17428   5.626   6.241   3.706
  156OSM   H12T17429   5.526   6.090   3.694
  156OSM   C13S17430   5.416   6.263   3.764
  156OSM   H13S17431   5.316   6.245   3.718
  156OSM   H13T17432   5.431   6.373   3.763
  156OSM   C14S17433   5.405   6.219   3.912
  156OSM   H14S17434   5.353   6.122   3.923
  156OSM   H14T17435   5.346   6.298   3.964
  156OSM   C15S17436   5.536   6.204   3.987
  156OSM   H15S17437   5.599   6.126   3.941
  156OSM   H15T17438   5.521   6.177   4.094
  156OSM   C16S17439   5.609   6.333   3.982
  156OSM   H16S17440   5.554   6.415   4.035
  156OSM   H16T17441   5.636   6.365   3.879
  156OSM   C17S17442   5.740   6.313   4.042
  156OSM   H17S17443   5.755   6.271   4.144
  156OSM   H17T17444   5.732   6.414   4.077
  156OSM   C18S17445   5.849   6.288   3.935
  156OSM   H18S17446   5.849   6.190   3.886
  156OSM   H18T17447   5.940   6.273   3.994
  156OSM   H18U17448   5.882   6.374   3.874
  156OSM    C1F17449   5.252   6.384   2.704
  156OSM     OF17450   5.153   6.325   2.663
  156OSM    C2F17451   5.251   6.494   2.805
  156OSM    H2F17452   5.243   6.591   2.750
  156OSM    H2G17453   5.342   6.490   2.866
  156OSM    C3F17454   5.130   6.484   2.896
  156OSM    H3F17455   5.126   6.389   2.953
  156OSM    H3G17456   5.051   6.493   2.819
  156OSM    C4F17457   5.107   6.603   2.988
  156OSM    H4F17458   5.003   6.604   3.023
  156OSM    H4G17459   5.119   6.694   2.925
  156OSM    C5F17460   5.197   6.604   3.112
  156OSM    H5F17461   5.297   6.566   3.084
  156OSM    H5G17462   5.157   6.536   3.191
  156OSM    C6F17463   5.203   6.744   3.170
  156OSM    H6F17464   5.104   6.766   3.216
  156OSM    H6G17465   5.218   6.817   3.086
  156OSM    C7F17466   5.315   6.767   3.273
  156OSM    H7F17467   5.301   6.874   3.301
  156OSM    H7G17468   5.414   6.757   3.223
  156OSM    C8F17469   5.303   6.685   3.404
  156OSM    H8F17470   5.279   6.580   3.380
  156OSM    H8G17471   5.215   6.728   3.458
  156OSM    C9F17472   5.426   6.675   3.492
  156OSM    H9F17473   5.520   6.661   3.436
  156OSM   C10F17474   5.430   6.675   3.627
  156OSM   H10F17475   5.528   6.659   3.676
  156OSM   C11F17476   5.316   6.685   3.724
  156OSM   H11F17477   5.228   6.622   3.696
  156OSM   H11G17478   5.283   6.792   3.729
  156OSM   C12F17479   5.352   6.646   3.869
  156OSM   H12F17480   5.377   6.538   3.876
  156OSM   H12G17481   5.262   6.664   3.933
  156OSM   C13F17482   5.467   6.728   3.928
  156OSM   H13F17483   5.478   6.823   3.872
  156OSM   H13G17484   5.562   6.670   3.919
  156OSM   C14F17485   5.445   6.761   4.075
  156OSM   H14F17486   5.342   6.797   4.095
  156OSM   H14G17487   5.514   6.845   4.101
  156OSM   C15F17488   5.482   6.641   4.162
  156OSM   H15F17489   5.589   6.619   4.139
  156OSM   H15G17490   5.422   6.551   4.141
  156OSM   C16F17491   5.474   6.674   4.308
  156OSM   H16F17492   5.498   6.584   4.370
  156OSM   H16G17493   5.377   6.715   4.341
  156OSM   C17F17494   5.578   6.776   4.337
  156OSM   H17F17495   5.661   6.782   4.262
  156OSM   H17G17496   5.625   6.720   4.419
  156OSM   C18F17497   5.520   6.914   4.370
  156OSM   H18F17498   5.433   6.944   4.311
  156OSM   H18G17499   5.600   6.989   4.355
  156OSM   H18H17500   5.487   6.920   4.477
  157OSM      N17501   5.085   0.481   2.051
  157OSM    C1517502   5.045   0.346   2.100
  157OSM   H15A17503   5.099   0.266   2.049
  157OSM   H15B17504   4.939   0.327   2.083
  157OSM   H15C17505   5.067   0.339   2.205
  157OSM    C1417506   5.232   0.487   2.069
  157OSM   H14A17507   5.271   0.579   2.026
  157OSM   H14B17508   5.280   0.401   2.024
  157OSM   H14C17509   5.254   0.491   2.176
  157OSM    C1317510   5.050   0.497   1.908
  157OSM   H13A17511   4.943   0.511   1.894
  157OSM   H13B17512   5.079   0.413   1.847
  157OSM   H13C17513   5.101   0.586   1.871
  157OSM    C1217514   5.017   0.592   2.132
  157OSM   H12A17515   5.047   0.581   2.236
  157OSM   H12B17516   4.910   0.574   2.127
  157OSM    C1117517   5.044   0.742   2.093
  157OSM   H11A17518   4.975   0.810   2.147
  157OSM   H11B17519   5.019   0.757   1.985
  157OSM      P17520   5.239   0.806   2.263
  157OSM    O1317521   5.277   0.673   2.312
  157OSM    O1417522   5.344   0.912   2.252
  157OSM    O1117523   5.114   0.862   2.345
  157OSM    O1217524   5.178   0.784   2.117
  157OSM    C1S17525   5.050   0.789   2.450
  157OSM    H1S17526   5.041   0.680   2.428
  157OSM    H1T17527   4.945   0.825   2.459
  157OSM     NF17528   5.053   0.733   2.689
  157OSM    HNF17529   4.980   0.769   2.745
  157OSM    C2S17530   5.116   0.813   2.590
  157OSM    H2S17531   5.223   0.784   2.582
  157OSM    C3S17532   5.115   0.959   2.638
  157OSM    H3S17533   5.007   0.993   2.643
  157OSM     O317534   5.192   1.047   2.558
  157OSM    HO317535   5.202   1.003   2.472
  157OSM    C4S17536   5.174   0.975   2.776
  157OSM    H4S17537   5.111   1.023   2.852
  157OSM    C5S17538   5.300   0.942   2.809
  157OSM    H5S17539   5.369   0.902   2.733
  157OSM    C6S17540   5.357   0.961   2.946
  157OSM    H6S17541   5.333   1.064   2.982
  157OSM    H6T17542   5.468   0.956   2.937
  157OSM    C7S17543   5.310   0.859   3.051
  157OSM    H7S17544   5.362   0.762   3.033
  157OSM    H7T17545   5.200   0.840   3.044
  157OSM    C8S17546   5.339   0.907   3.193
  157OSM    H8S17547   5.288   1.004   3.209
  157OSM    H8T17548   5.448   0.927   3.203
  157OSM    C9S17549   5.285   0.810   3.300
  157OSM    H9S17550   5.319   0.706   3.280
  157OSM    H9T17551   5.174   0.809   3.290
  157OSM   C10S17552   5.320   0.855   3.443
  157OSM   H10S17553   5.271   0.955   3.452
  157OSM   H10T17554   5.429   0.866   3.457
  157OSM   C11S17555   5.258   0.772   3.557
  157OSM   H11S17556   5.155   0.755   3.520
  157OSM   H11T17557   5.244   0.835   3.647
  157OSM   C12S17558   5.333   0.642   3.602
  157OSM   H12S17559   5.437   0.659   3.629
  157OSM   H12T17560   5.365   0.580   3.517
  157OSM   C13S17561   5.247   0.553   3.698
  157OSM   H13S17562   5.287   0.450   3.709
  157OSM   H13T17563   5.143   0.537   3.661
  157OSM   C14S17564   5.208   0.613   3.831
  157OSM   H14S17565   5.139   0.539   3.878
  157OSM   H14T17566   5.146   0.704   3.813
  157OSM   C15S17567   5.332   0.643   3.914
  157OSM   H15S17568   5.384   0.730   3.870
  157OSM   H15T17569   5.401   0.555   3.910
  157OSM   C16S17570   5.296   0.680   4.057
  157OSM   H16S17571   5.194   0.724   4.058
  157OSM   H16T17572   5.363   0.758   4.098
  157OSM   C17S17573   5.305   0.564   4.155
  157OSM   H17S17574   5.271   0.615   4.245
  157OSM   H17T17575   5.410   0.530   4.167
  157OSM   C18S17576   5.223   0.442   4.124
  157OSM   H18S17577   5.247   0.358   4.193
  157OSM   H18T17578   5.249   0.411   4.021
  157OSM   H18U17579   5.114   0.461   4.129
  157OSM    C1F17580   5.078   0.606   2.699
  157OSM     OF17581   5.155   0.545   2.626
  157OSM    C2F17582   4.991   0.542   2.795
  157OSM    H2F17583   5.022   0.435   2.806
  157OSM    H2G17584   4.886   0.564   2.761
  157OSM    C3F17585   4.988   0.583   2.935
  157OSM    H3F17586   4.965   0.691   2.941
  157OSM    H3G17587   5.086   0.552   2.977
  157OSM    C4F17588   4.881   0.502   3.003
  157OSM    H4F17589   4.900   0.391   3.000
  157OSM    H4G17590   4.778   0.523   2.969
  157OSM    C5F17591   4.887   0.545   3.141
  157OSM    H5F17592   4.996   0.548   3.171
  157OSM    H5G17593   4.826   0.475   3.199
  157OSM    C6F17594   4.831   0.678   3.174
  157OSM    H6F17595   4.725   0.692   3.146
  157OSM    H6G17596   4.893   0.754   3.121
  157OSM    C7F17597   4.863   0.694   3.324
  157OSM    H7F17598   4.969   0.681   3.324
  157OSM    H7G17599   4.803   0.669   3.416
  157OSM    C8F17600   4.893   0.827   3.360
  157OSM    H8F17601   4.787   0.810   3.322
  157OSM    H8G17602   4.935   0.875   3.274
  157OSM    C9F17603   4.935   0.894   3.496
  157OSM    H9F17604   5.032   0.941   3.477
  157OSM   C10F17605   4.884   0.922   3.622
  157OSM   H10F17606   4.949   0.968   3.697
  157OSM   C11F17607   4.751   0.898   3.690
  157OSM   H11F17608   4.692   0.903   3.607
  157OSM   H11G17609   4.699   0.983   3.741
  157OSM   C12F17610   4.727   0.761   3.756
  157OSM   H12F17611   4.771   0.682   3.691
  157OSM   H12G17612   4.620   0.735   3.769
  157OSM   C13F17613   4.797   0.757   3.891
  157OSM   H13F17614   4.766   0.848   3.948
  157OSM   H13G17615   4.905   0.763   3.866
  157OSM   C14F17616   4.768   0.631   3.972
  157OSM   H14F17617   4.769   0.541   3.908
  157OSM   H14G17618   4.666   0.635   4.014
  157OSM   C15F17619   4.871   0.608   4.082
  157OSM   H15F17620   4.954   0.682   4.074
  157OSM   H15G17621   4.915   0.506   4.071
  157OSM   C16F17622   4.809   0.625   4.219
  157OSM   H16F17623   4.715   0.567   4.223
  157OSM   H16G17624   4.783   0.732   4.236
  157OSM   C17F17625   4.904   0.582   4.327
  157OSM   H17F17626   4.996   0.642   4.333
  157OSM   H17G17627   4.932   0.474   4.310
  157OSM   C18F17628   4.848   0.601   4.463
  157OSM   H18F17629   4.830   0.499   4.475
  157OSM   H18G17630   4.760   0.663   4.485
  157OSM   H18H17631   4.914   0.598   4.546
  158OSM      N17632   1.713   6.571   2.047
  158OSM    C1517633   1.777   6.706   2.049
  158OSM   H15A17634   1.705   6.786   2.040
  158OSM   H15B17635   1.850   6.716   1.970
  158OSM   H15C17636   1.833   6.718   2.142
  158OSM    C1417637   1.610   6.569   2.154
  158OSM   H14A17638   1.530   6.631   2.118
  158OSM   H14B17639   1.650   6.614   2.245
  158OSM   H14C17640   1.570   6.470   2.176
  158OSM    C1317641   1.644   6.554   1.918
  158OSM   H13A17642   1.583   6.641   1.893
  158OSM   H13B17643   1.581   6.467   1.919
  158OSM   H13C17644   1.716   6.544   1.838
  158OSM    C1217645   1.818   6.461   2.059
  158OSM   H12A17646   1.886   6.473   1.976
  158OSM   H12B17647   1.768   6.366   2.049
  158OSM    C1117648   1.905   6.447   2.185
  158OSM   H11A17649   1.973   6.360   2.166
  158OSM   H11B17650   1.841   6.418   2.272
  158OSM      P17651   2.131   6.561   2.242
  158OSM    O1317652   2.156   6.455   2.342
  158OSM    O1417653   2.200   6.556   2.110
  158OSM    O1117654   2.163   6.704   2.308
  158OSM    O1217655   1.975   6.568   2.212
  158OSM    C1S17656   2.062   6.782   2.374
  158OSM    H1S17657   1.964   6.778   2.322
  158OSM    H1T17658   2.094   6.889   2.374
  158OSM     NF17659   1.913   6.784   2.571
  158OSM    HNF17660   1.917   6.869   2.623
  158OSM    C2S17661   2.036   6.734   2.520
  158OSM    H2S17662   2.040   6.622   2.521
  158OSM    C3S17663   2.144   6.778   2.612
  158OSM    H3S17664   2.139   6.891   2.612
  158OSM     O317665   2.264   6.715   2.569
  158OSM    HO317666   2.275   6.736   2.475
  158OSM    C4S17667   2.137   6.735   2.751
  158OSM    H4S17668   2.109   6.630   2.757
  158OSM    C5S17669   2.150   6.803   2.866
  158OSM    H5S17670   2.169   6.913   2.868
  158OSM    C6S17671   2.140   6.722   2.992
  158OSM    H6S17672   2.244   6.692   3.015
  158OSM    H6T17673   2.082   6.628   2.974
  158OSM    C7S17674   2.090   6.776   3.126
  158OSM    H7S17675   1.982   6.795   3.112
  158OSM    H7T17676   2.143   6.869   3.154
  158OSM    C8S17677   2.100   6.678   3.244
  158OSM    H8S17678   2.071   6.574   3.219
  158OSM    H8T17679   2.022   6.709   3.316
  158OSM    C9S17680   2.234   6.681   3.318
  158OSM    H9S17681   2.268   6.786   3.336
  158OSM    H9T17682   2.313   6.631   3.259
  158OSM   C10S17683   2.213   6.617   3.456
  158OSM   H10S17684   2.180   6.511   3.448
  158OSM   H10T17685   2.139   6.680   3.510
  158OSM   C11S17686   2.328   6.617   3.549
  158OSM   H11S17687   2.353   6.722   3.524
  158OSM   H11T17688   2.413   6.668   3.580
  158OSM   C12S17689   2.327   6.533   3.678
  158OSM   H12S17690   2.422   6.546   3.738
  158OSM   H12T17691   2.323   6.425   3.664
  158OSM   C13S17692   2.207   6.575   3.752
  158OSM   H13S17693   2.113   6.543   3.716
  158OSM   H13T17694   2.212   6.674   3.715
  158OSM   C14S17695   2.225   6.586   3.897
  158OSM   H14S17696   2.175   6.662   3.958
  158OSM   H14T17697   2.298   6.653   3.860
  158OSM   C15S17698   2.292   6.468   3.967
  158OSM   H15S17699   2.363   6.492   4.049
  158OSM   H15T17700   2.358   6.406   3.905
  158OSM   C16S17701   2.186   6.400   4.043
  158OSM   H16S17702   2.138   6.469   4.113
  158OSM   H16T17703   2.236   6.321   4.102
  158OSM   C17S17704   2.079   6.353   3.950
  158OSM   H17S17705   2.130   6.294   3.870
  158OSM   H17T17706   2.028   6.439   3.901
  158OSM   C18S17707   1.976   6.271   4.024
  158OSM   H18S17708   2.020   6.180   4.069
  158OSM   H18T17709   1.897   6.243   3.952
  158OSM   H18U17710   1.932   6.329   4.108
  158OSM    C1F17711   1.798   6.732   2.539
  158OSM     OF17712   1.784   6.636   2.464
  158OSM    C2F17713   1.683   6.801   2.601
  158OSM    H2F17714   1.633   6.866   2.527
  158OSM    H2G17715   1.722   6.864   2.683
  158OSM    C3F17716   1.586   6.699   2.661
  158OSM    H3F17717   1.530   6.644   2.582
  158OSM    H3G17718   1.515   6.760   2.718
  158OSM    C4F17719   1.650   6.598   2.756
  158OSM    H4F17720   1.726   6.540   2.699
  158OSM    H4G17721   1.570   6.526   2.785
  158OSM    C5F17722   1.714   6.658   2.882
  158OSM    H5F17723   1.795   6.731   2.858
  158OSM    H5G17724   1.759   6.575   2.941
  158OSM    C6F17725   1.615   6.726   2.976
  158OSM    H6F17726   1.539   6.654   3.012
  158OSM    H6G17727   1.565   6.812   2.925
  158OSM    C7F17728   1.692   6.780   3.095
  158OSM    H7F17729   1.757   6.846   3.038
  158OSM    H7G17730   1.760   6.706   3.142
  158OSM    C8F17731   1.606   6.855   3.196
  158OSM    H8F17732   1.530   6.914   3.141
  158OSM    H8G17733   1.650   6.938   3.252
  158OSM    C9F17734   1.542   6.754   3.286
  158OSM    H9F17735   1.451   6.726   3.241
  158OSM   C10F17736   1.574   6.667   3.381
  158OSM   H10F17737   1.492   6.613   3.432
  158OSM   C11F17738   1.709   6.643   3.432
  158OSM   H11F17739   1.775   6.709   3.381
  158OSM   H11G17740   1.746   6.548   3.393
  158OSM   C12F17741   1.712   6.654   3.584
  158OSM   H12F17742   1.817   6.636   3.616
  158OSM   H12G17743   1.647   6.576   3.627
  158OSM   C13F17744   1.657   6.785   3.644
  158OSM   H13F17745   1.553   6.815   3.624
  158OSM   H13G17746   1.705   6.859   3.578
  158OSM   C14F17747   1.685   6.791   3.797
  158OSM   H14F17748   1.710   6.888   3.842
  158OSM   H14G17749   1.773   6.730   3.822
  158OSM   C15F17750   1.564   6.779   3.883
  158OSM   H15F17751   1.554   6.672   3.893
  158OSM   H15G17752   1.480   6.822   3.825
  158OSM   C16F17753   1.580   6.844   4.022
  158OSM   H16F17754   1.482   6.834   4.073
  158OSM   H16G17755   1.600   6.954   4.013
  158OSM   C17F17756   1.688   6.781   4.112
  158OSM   H17F17757   1.779   6.755   4.054
  158OSM   H17G17758   1.656   6.682   4.147
  158OSM   C18F17759   1.725   6.872   4.231
  158OSM   H18F17760   1.636   6.894   4.291
  158OSM   H18G17761   1.766   6.972   4.200
  158OSM   H18H17762   1.804   6.824   4.291
  159OSM      N17763   3.696   0.296   1.969
  159OSM    C1517764   3.633   0.295   1.834
  159OSM   H15A17765   3.706   0.331   1.765
  159OSM   H15B17766   3.546   0.360   1.834
  159OSM   H15C17767   3.602   0.197   1.802
  159OSM    C1417768   3.740   0.437   1.991
  159OSM   H14A17769   3.692   0.502   1.919
  159OSM   H14B17770   3.847   0.449   1.985
  159OSM   H14C17771   3.710   0.477   2.090
  159OSM    C1317772   3.587   0.258   2.064
  159OSM   H13A17773   3.539   0.165   2.036
  159OSM   H13B17774   3.510   0.336   2.066
  159OSM   H13C17775   3.627   0.247   2.165
  159OSM    C1217776   3.811   0.194   1.969
  159OSM   H12A17777   3.873   0.210   1.881
  159OSM   H12B17778   3.768   0.095   1.961
  159OSM    C1117779   3.905   0.182   2.090
  159OSM   H11A17780   3.974   0.271   2.090
  159OSM   H11B17781   3.967   0.090   2.073
  159OSM      P17782   3.908   0.210   2.344
  159OSM    O1317783   4.007   0.107   2.376
  159OSM    O1417784   3.952   0.351   2.337
  159OSM    O1117785   3.797   0.197   2.453
  159OSM    O1217786   3.831   0.166   2.211
  159OSM    C1S17787   3.659   0.220   2.444
  159OSM    H1S17788   3.613   0.155   2.367
  159OSM    H1T17789   3.636   0.325   2.418
  159OSM     NF17790   3.656   0.272   2.684
  159OSM    HNF17791   3.733   0.256   2.741
  159OSM    C2S17792   3.608   0.182   2.585
  159OSM    H2S17793   3.494   0.178   2.582
  159OSM    C3S17794   3.662   0.047   2.619
  159OSM    H3S17795   3.771   0.038   2.612
  159OSM     O317796   3.599  -0.053   2.536
  159OSM    HO317797   3.556   0.002   2.469
  159OSM    C4S17798   3.646   0.033   2.767
  159OSM    H4S17799   3.556   0.093   2.791
  159OSM    C5S17800   3.715  -0.024   2.865
  159OSM    H5S17801   3.814  -0.050   2.836
  159OSM    C6S17802   3.696  -0.040   3.014
  159OSM    H6S17803   3.779  -0.010   3.075
  159OSM    H6T17804   3.683  -0.151   3.029
  159OSM    C7S17805   3.597   0.035   3.101
  159OSM    H7S17806   3.527   0.035   3.017
  159OSM    H7T17807   3.567   0.140   3.091
  159OSM    C8S17808   3.571  -0.040   3.242
  159OSM    H8S17809   3.518  -0.137   3.258
  159OSM    H8T17810   3.492  -0.002   3.298
  159OSM    C9S17811   3.672  -0.021   3.348
  159OSM    H9S17812   3.744   0.026   3.281
  159OSM    H9T17813   3.679  -0.126   3.386
  159OSM   C10S17814   3.641   0.073   3.464
  159OSM   H10S17815   3.707   0.076   3.551
  159OSM   H10T17816   3.580   0.004   3.522
  159OSM   C11S17817   3.603   0.218   3.417
  159OSM   H11S17818   3.502   0.237   3.377
  159OSM   H11T17819   3.665   0.239   3.328
  159OSM   C12S17820   3.627   0.331   3.516
  159OSM   H12S17821   3.612   0.434   3.477
  159OSM   H12T17822   3.715   0.315   3.581
  159OSM   C13S17823   3.525   0.334   3.619
  159OSM   H13S17824   3.532   0.231   3.661
  159OSM   H13T17825   3.427   0.337   3.568
  159OSM   C14S17826   3.556   0.449   3.720
  159OSM   H14S17827   3.479   0.488   3.790
  159OSM   H14T17828   3.546   0.550   3.683
  159OSM   C15S17829   3.637   0.402   3.839
  159OSM   H15S17830   3.705   0.319   3.812
  159OSM   H15T17831   3.578   0.346   3.917
  159OSM   C16S17832   3.705   0.526   3.896
  159OSM   H16S17833   3.798   0.535   3.842
  159OSM   H16T17834   3.764   0.506   3.982
  159OSM   C17S17835   3.621   0.655   3.922
  159OSM   H17S17836   3.539   0.666   3.989
  159OSM   H17T17837   3.557   0.683   3.840
  159OSM   C18S17838   3.684   0.756   4.012
  159OSM   H18S17839   3.613   0.835   4.047
  159OSM   H18T17840   3.761   0.789   3.944
  159OSM   H18U17841   3.732   0.721   4.107
  159OSM    C1F17842   3.612   0.383   2.682
  159OSM     OF17843   3.494   0.381   2.655
  159OSM    C2F17844   3.719   0.489   2.699
  159OSM    H2F17845   3.686   0.587   2.732
  159OSM    H2G17846   3.776   0.505   2.604
  159OSM    C3F17847   3.803   0.479   2.824
  159OSM    H3F17848   3.879   0.561   2.811
  159OSM    H3G17849   3.848   0.380   2.823
  159OSM    C4F17850   3.725   0.505   2.954
  159OSM    H4F17851   3.648   0.429   2.977
  159OSM    H4G17852   3.668   0.595   2.955
  159OSM    C5F17853   3.814   0.538   3.070
  159OSM    H5F17854   3.867   0.636   3.055
  159OSM    H5G17855   3.889   0.458   3.060
  159OSM    C6F17856   3.738   0.542   3.203
  159OSM    H6F17857   3.682   0.447   3.221
  159OSM    H6G17858   3.668   0.627   3.212
  159OSM    C7F17859   3.842   0.549   3.311
  159OSM    H7F17860   3.799   0.549   3.415
  159OSM    H7G17861   3.888   0.653   3.300
  159OSM    C8F17862   3.932   0.423   3.290
  159OSM    H8F17863   4.002   0.451   3.201
  159OSM    H8G17864   3.886   0.327   3.285
  159OSM    C9F17865   4.042   0.408   3.377
  159OSM    H9F17866   4.040   0.519   3.360
  159OSM   C10F17867   4.096   0.337   3.481
  159OSM   H10F17868   4.166   0.369   3.560
  159OSM   C11F17869   4.049   0.201   3.497
  159OSM   H11F17870   4.143   0.147   3.484
  159OSM   H11G17871   3.975   0.181   3.421
  159OSM   C12F17872   3.992   0.192   3.641
  159OSM   H12F17873   3.981   0.085   3.634
  159OSM   H12G17874   3.888   0.220   3.656
  159OSM   C13F17875   4.083   0.229   3.764
  159OSM   H13F17876   4.070   0.332   3.800
  159OSM   H13G17877   4.190   0.216   3.734
  159OSM   C14F17878   4.065   0.144   3.890
  159OSM   H14F17879   4.135   0.176   3.970
  159OSM   H14G17880   4.080   0.037   3.877
  159OSM   C15F17881   3.932   0.137   3.949
  159OSM   H15F17882   3.861   0.070   3.894
  159OSM   H15G17883   3.892   0.239   3.959
  159OSM   C16F17884   3.959   0.074   4.080
  159OSM   H16F17885   4.026   0.125   4.153
  159OSM   H16G17886   4.016  -0.019   4.062
  159OSM   C17F17887   3.822   0.048   4.127
  159OSM   H17F17888   3.824  -0.040   4.179
  159OSM   H17G17889   3.729   0.042   4.070
  159OSM   C18F17890   3.799   0.108   4.246
  159OSM   H18F17891   3.884   0.151   4.294
  159OSM   H18G17892   3.711   0.078   4.304
  159OSM   H18H17893   3.767   0.192   4.224
  160OSM      N17894   1.645   0.915   2.238
  160OSM    C1517895   1.760   0.911   2.333
  160OSM   H15A17896   1.801   0.812   2.345
  160OSM   H15B17897   1.730   0.949   2.430
  160OSM   H15C17898   1.839   0.976   2.298
  160OSM    C1417899   1.610   1.060   2.222
  160OSM   H14A17900   1.593   1.105   2.320
  160OSM   H14B17901   1.516   1.066   2.168
  160OSM   H14C17902   1.686   1.118   2.172
  160OSM    C1317903   1.680   0.853   2.106
  160OSM   H13A17904   1.765   0.898   2.056
  160OSM   H13B17905   1.596   0.862   2.036
  160OSM   H13C17906   1.695   0.746   2.115
  160OSM    C1217907   1.519   0.848   2.295
  160OSM   H12A17908   1.505   0.884   2.396
  160OSM   H12B17909   1.536   0.741   2.299
  160OSM    C1117910   1.381   0.872   2.225
  160OSM   H11A17911   1.355   0.979   2.236
  160OSM   H11B17912   1.299   0.815   2.277
  160OSM      P17913   1.369   0.694   2.035
  160OSM    O1317914   1.225   0.658   2.036
  160OSM    O1417915   1.446   0.673   1.913
  160OSM    O1117916   1.439   0.618   2.155
  160OSM    O1217917   1.383   0.843   2.086
  160OSM    C1S17918   1.409   0.486   2.198
  160OSM    H1S17919   1.426   0.414   2.114
  160OSM    H1T17920   1.305   0.476   2.223
  160OSM     NF17921   1.471   0.547   2.433
  160OSM    HNF17922   1.534   0.621   2.444
  160OSM    C2S17923   1.496   0.457   2.325
  160OSM    H2S17924   1.485   0.349   2.357
  160OSM    C3S17925   1.637   0.475   2.281
  160OSM    H3S17926   1.660   0.576   2.244
  160OSM     O317927   1.648   0.399   2.166
  160OSM    HO317928   1.588   0.325   2.185
  160OSM    C4S17929   1.732   0.441   2.398
  160OSM    H4S17930   1.744   0.336   2.429
  160OSM    C5S17931   1.806   0.534   2.462
  160OSM    H5S17932   1.807   0.637   2.425
  160OSM    C6S17933   1.898   0.511   2.579
  160OSM    H6S17934   2.004   0.536   2.563
  160OSM    H6T17935   1.897   0.404   2.611
  160OSM    C7S17936   1.841   0.613   2.683
  160OSM    H7S17937   1.738   0.582   2.713
  160OSM    H7T17938   1.847   0.718   2.651
  160OSM    C8S17939   1.921   0.626   2.810
  160OSM    H8S17940   2.031   0.628   2.785
  160OSM    H8T17941   1.881   0.530   2.847
  160OSM    C9S17942   1.891   0.721   2.928
  160OSM    H9S17943   1.854   0.818   2.895
  160OSM    H9T17944   1.991   0.747   2.972
  160OSM   C10S17945   1.799   0.653   3.036
  160OSM   H10S17946   1.831   0.550   3.065
  160OSM   H10T17947   1.701   0.638   2.988
  160OSM   C11S17948   1.785   0.730   3.168
  160OSM   H11S17949   1.773   0.837   3.141
  160OSM   H11T17950   1.876   0.722   3.232
  160OSM   C12S17951   1.667   0.689   3.257
  160OSM   H12S17952   1.684   0.588   3.300
  160OSM   H12T17953   1.571   0.687   3.201
  160OSM   C13S17954   1.656   0.793   3.369
  160OSM   H13S17955   1.622   0.890   3.325
  160OSM   H13T17956   1.758   0.810   3.410
  160OSM   C14S17957   1.558   0.761   3.481
  160OSM   H14S17958   1.570   0.658   3.522
  160OSM   H14T17959   1.460   0.768   3.429
  160OSM   C15S17960   1.562   0.865   3.594
  160OSM   H15S17961   1.465   0.915   3.609
  160OSM   H15T17962   1.632   0.944   3.558
  160OSM   C16S17963   1.617   0.818   3.730
  160OSM   H16S17964   1.645   0.911   3.784
  160OSM   H16T17965   1.707   0.757   3.709
  160OSM   C17S17966   1.523   0.738   3.823
  160OSM   H17S17967   1.496   0.643   3.772
  160OSM   H17T17968   1.429   0.796   3.839
  160OSM   C18S17969   1.582   0.703   3.961
  160OSM   H18S17970   1.520   0.624   4.008
  160OSM   H18T17971   1.581   0.791   4.029
  160OSM   H18U17972   1.686   0.665   3.954
  160OSM    C1F17973   1.374   0.515   2.515
  160OSM     OF17974   1.308   0.419   2.485
  160OSM    C2F17975   1.353   0.585   2.640
  160OSM    H2F17976   1.247   0.619   2.642
  160OSM    H2G17977   1.423   0.669   2.651
  160OSM    C3F17978   1.365   0.485   2.756
  160OSM    H3F17979   1.466   0.439   2.763
  160OSM    H3G17980   1.293   0.401   2.744
  160OSM    C4F17981   1.334   0.565   2.882
  160OSM    H4F17982   1.227   0.596   2.877
  160OSM    H4G17983   1.397   0.656   2.884
  160OSM    C5F17984   1.360   0.491   3.012
  160OSM    H5F17985   1.346   0.570   3.090
  160OSM    H5G17986   1.464   0.457   3.026
  160OSM    C6F17987   1.265   0.372   3.021
  160OSM    H6F17988   1.274   0.289   2.951
  160OSM    H6G17989   1.164   0.417   2.995
  160OSM    C7F17990   1.279   0.289   3.148
  160OSM    H7F17991   1.370   0.300   3.215
  160OSM    H7G17992   1.210   0.199   3.156
  160OSM    C8F17993   1.203   0.370   3.226
  160OSM    H8F17994   1.109   0.372   3.164
  160OSM    H8G17995   1.244   0.473   3.222
  160OSM    C9F17996   1.195   0.309   3.359
  160OSM    H9F17997   1.079   0.301   3.377
  160OSM   C10F17998   1.248   0.384   3.453
  160OSM   H10F17999   1.159   0.337   3.509
  160OSM   C11F18000   1.327   0.541   3.515
  160OSM   H11F18001   1.340   0.624   3.444
  160OSM   H11G18002   1.425   0.519   3.554
  160OSM   C12F18003   1.265   0.699   3.605
  160OSM   H12F18004   1.322   0.790   3.596
  160OSM   H12G18005   1.272   0.682   3.716
  160OSM   C13F18006   1.109   0.773   3.597
  160OSM   H13F18007   1.012   0.716   3.596
  160OSM   H13G18008   1.089   0.818   3.499
  160OSM   C14F18009   1.048   0.852   3.709
  160OSM   H14F18010   0.941   0.870   3.684
  160OSM   H14G18011   1.115   0.938   3.710
  160OSM   C15F18012   1.032   0.775   3.835
  160OSM   H15F18013   1.125   0.718   3.851
  160OSM   H15G18014   0.939   0.711   3.835
  160OSM   C16F18015   1.035   0.849   3.962
  160OSM   H16F18016   0.996   0.788   4.039
  160OSM   H16G18017   0.967   0.922   3.977
  160OSM   C17F18018   1.134   0.950   3.989
  160OSM   H17F18019   1.090   1.048   4.025
  160OSM   H17G18020   1.173   0.971   3.887
  160OSM   C18F18021   1.229   0.896   4.094
  160OSM   H18F18022   1.255   0.793   4.067
  160OSM   H18G18023   1.182   0.915   4.194
  160OSM   H18H18024   1.329   0.931   4.109
  161OSM      N18025   6.426   6.027   2.147
  161OSM    C1518026   6.303   6.040   2.231
  161OSM   H15A18027   6.216   6.046   2.167
  161OSM   H15B18028   6.304   6.138   2.279
  161OSM   H15C18029   6.292   5.961   2.303
  161OSM    C1418030   6.544   6.073   2.228
  161OSM   H14A18031   6.623   6.111   2.163
  161OSM   H14B18032   6.582   5.993   2.291
  161OSM   H14C18033   6.517   6.155   2.295
  161OSM    C1318034   6.448   5.886   2.109
  161OSM   H13A18035   6.366   5.848   2.049
  161OSM   H13B18036   6.453   5.823   2.198
  161OSM   H13C18037   6.543   5.875   2.059
  161OSM    C1218038   6.407   6.111   2.023
  161OSM   H12A18039   6.309   6.088   1.982
  161OSM   H12B18040   6.481   6.075   1.952
  161OSM    C1118041   6.405   6.265   2.035
  161OSM   H11A18042   6.353   6.304   1.944
  161OSM   H11B18043   6.507   6.308   2.036
  161OSM      P18044   6.290   6.454   2.168
  161OSM    O1318045   6.412   6.532   2.139
  161OSM    O1418046   6.170   6.467   2.081
  161OSM    O1118047   6.250   6.462   2.324
  161OSM    O1218048   6.335   6.303   2.154
  161OSM    C1S18049   6.251   6.341   2.399
  161OSM    H1S18050   6.349   6.289   2.388
  161OSM    H1T18051   6.167   6.277   2.364
  161OSM     NF18052   6.247   6.233   2.619
  161OSM    HNF18053   6.170   6.170   2.626
  161OSM    C2S18054   6.230   6.361   2.552
  161OSM    H2S18055   6.304   6.437   2.591
  161OSM    C3S18056   6.090   6.417   2.571
  161OSM    H3S18057   6.020   6.342   2.526
  161OSM     O318058   6.071   6.542   2.508
  161OSM    HO318059   6.146   6.546   2.446
  161OSM    C4S18060   6.059   6.431   2.715
  161OSM    H4S18061   6.122   6.504   2.770
  161OSM    C5S18062   5.961   6.361   2.774
  161OSM    H5S18063   5.905   6.289   2.712
  161OSM    C6S18064   5.921   6.367   2.918
  161OSM    H6S18065   5.937   6.266   2.961
  161OSM    H6T18066   5.814   6.393   2.932
  161OSM    C7S18067   6.000   6.469   3.001
  161OSM    H7S18068   5.994   6.569   2.952
  161OSM    H7T18069   6.107   6.438   3.002
  161OSM    C8S18070   5.940   6.479   3.143
  161OSM    H8S18071   5.831   6.497   3.133
  161OSM    H8T18072   5.981   6.567   3.195
  161OSM    C9S18073   5.963   6.352   3.229
  161OSM    H9S18074   5.940   6.263   3.168
  161OSM    H9T18075   5.892   6.349   3.316
  161OSM   C10S18076   6.105   6.338   3.285
  161OSM   H10S18077   6.118   6.402   3.375
  161OSM   H10T18078   6.175   6.374   3.206
  161OSM   C11S18079   6.139   6.193   3.320
  161OSM   H11S18080   6.138   6.134   3.226
  161OSM   H11T18081   6.061   6.154   3.387
  161OSM   C12S18082   6.279   6.170   3.380
  161OSM   H12S18083   6.348   6.200   3.302
  161OSM   H12T18084   6.292   6.063   3.404
  161OSM   C13S18085   6.319   6.249   3.504
  161OSM   H13S18086   6.324   6.358   3.484
  161OSM   H13T18087   6.420   6.214   3.535
  161OSM   C14S18088   6.220   6.226   3.615
  161OSM   H14S18089   6.227   6.120   3.652
  161OSM   H14T18090   6.115   6.245   3.582
  161OSM   C15S18091   6.250   6.316   3.730
  161OSM   H15S18092   6.236   6.423   3.705
  161OSM   H15T18093   6.357   6.306   3.757
  161OSM   C16S18094   6.158   6.267   3.841
  161OSM   H16S18095   6.192   6.179   3.898
  161OSM   H16T18096   6.054   6.270   3.804
  161OSM   C17S18097   6.155   6.350   3.957
  161OSM   H17S18098   6.099   6.324   4.048
  161OSM   H17T18099   6.113   6.442   3.915
  161OSM   C18S18100   6.287   6.366   4.007
  161OSM   H18S18101   6.360   6.330   4.076
  161OSM   H18T18102   6.240   6.437   4.078
  161OSM   H18U18103   6.341   6.406   3.921
  161OSM    C1F18104   6.366   6.202   2.661
  161OSM     OF18105   6.459   6.272   2.625
  161OSM    C2F18106   6.374   6.089   2.757
  161OSM    H2F18107   6.424   6.000   2.713
  161OSM    H2G18108   6.271   6.063   2.790
  161OSM    C3F18109   6.450   6.131   2.884
  161OSM    H3F18110   6.422   6.232   2.922
  161OSM    H3G18111   6.553   6.131   2.845
  161OSM    C4F18112   6.421   6.032   2.996
  161OSM    H4F18113   6.410   5.931   2.948
  161OSM    H4G18114   6.338   6.065   3.059
  161OSM    C5F18115   6.516   6.007   3.109
  161OSM    H5F18116   6.571   5.946   3.042
  161OSM    H5G18117   6.486   5.940   3.190
  161OSM    C6F18118   6.578   6.118   3.187
  161OSM    H6F18119   6.505   6.170   3.238
  161OSM    H6G18120   6.578   6.199   3.115
  161OSM    C7F18121   6.709   6.082   3.269
  161OSM    H7F18122   6.799   6.034   3.216
  161OSM    H7G18123   6.681   6.018   3.350
  161OSM    C8F18124   6.795   6.170   3.340
  161OSM    H8F18125   6.855   6.246   3.290
  161OSM    H8G18126   6.870   6.092   3.371
  161OSM    C9F18127   6.728   6.236   3.447
  161OSM    H9F18128   6.721   6.337   3.422
  161OSM   C10F18129   6.746   6.224   3.571
  161OSM   H10F18130   6.702   6.310   3.626
  161OSM   C11F18131   6.851   6.126   3.617
  161OSM   H11F18132   6.967   6.142   3.638
  161OSM   H11G18133   6.867   6.053   3.546
  161OSM   C12F18134   6.758   6.059   3.718
  161OSM   H12F18135   6.834   5.996   3.768
  161OSM   H12G18136   6.677   6.015   3.659
  161OSM   C13F18137   6.663   6.119   3.829
  161OSM   H13F18138   6.597   6.207   3.824
  161OSM   H13G18139   6.745   6.176   3.822
  161OSM   C14F18140   6.656   6.055   3.972
  161OSM   H14F18141   6.640   6.127   4.056
  161OSM   H14G18142   6.741   5.992   4.007
  161OSM   C15F18143   6.545   5.967   3.958
  161OSM   H15F18144   6.568   5.906   3.866
  161OSM   H15G18145   6.455   6.030   3.938
  161OSM   C16F18146   6.530   5.879   4.073
  161OSM   H16F18147   6.506   5.925   4.171
  161OSM   H16G18148   6.620   5.813   4.091
  161OSM   C17F18149   6.416   5.800   4.017
  161OSM   H17F18150   6.449   5.730   4.088
  161OSM   H17G18151   6.433   5.744   3.923
  161OSM   C18F18152   6.273   5.857   4.029
  161OSM   H18F18153   6.195   5.780   4.044
  161OSM   H18G18154   6.241   5.903   3.935
  161OSM   H18H18155   6.267   5.925   4.118
  162OSM      N18156  -0.018   5.106   2.119
  162OSM    C1518157   0.078   5.005   2.148
  162OSM   H15A18158   0.134   4.951   2.072
  162OSM   H15B18159   0.031   4.932   2.212
  162OSM   H15C18160   0.151   5.053   2.212
  162OSM    C1418161  -0.125   5.026   2.068
  162OSM   H14A18162  -0.184   5.103   2.017
  162OSM   H14B18163  -0.191   4.983   2.143
  162OSM   H14C18164  -0.102   4.957   1.989
  162OSM    C1318165  -0.075   5.170   2.244
  162OSM   H13A18166   0.005   5.217   2.302
  162OSM   H13B18167  -0.120   5.094   2.307
  162OSM   H13C18168  -0.148   5.247   2.220
  162OSM    C1218169   0.050   5.206   2.030
  162OSM   H12A18170  -0.016   5.291   2.014
  162OSM   H12B18171   0.075   5.158   1.936
  162OSM    C1118172   0.186   5.262   2.072
  162OSM   H11A18173   0.221   5.325   1.986
  162OSM   H11B18174   0.264   5.183   2.087
  162OSM      P18175   0.145   5.487   2.180
  162OSM    O1318176   0.269   5.563   2.159
  162OSM    O1418177   0.033   5.512   2.088
  162OSM    O1118178   0.095   5.520   2.327
  162OSM    O1218179   0.173   5.335   2.192
  162OSM    C1S18180   0.164   5.466   2.440
  162OSM    H1S18181   0.270   5.496   2.433
  162OSM    H1T18182   0.165   5.355   2.445
  162OSM     NF18183   0.172   5.495   2.692
  162OSM    HNF18184   0.132   5.437   2.761
  162OSM    C2S18185   0.097   5.517   2.572
  162OSM    H2S18186   0.088   5.629   2.559
  162OSM    C3S18187  -0.041   5.450   2.584
  162OSM    H3S18188  -0.037   5.342   2.566
  162OSM     O318189  -0.136   5.513   2.497
  162OSM    HO318190  -0.088   5.579   2.448
  162OSM    C4S18191  -0.096   5.468   2.721
  162OSM    H4S18192  -0.136   5.559   2.712
  162OSM    C5S18193  -0.117   5.405   2.837
  162OSM    H5S18194  -0.090   5.300   2.837
  162OSM    C6S18195  -0.180   5.458   2.967
  162OSM    H6S18196  -0.288   5.431   2.974
  162OSM    H6T18197  -0.181   5.567   2.986
  162OSM    C7S18198  -0.105   5.397   3.084
  162OSM    H7S18199  -0.149   5.434   3.180
  162OSM    H7T18200   0.004   5.418   3.087
  162OSM    C8S18201  -0.122   5.250   3.085
  162OSM    H8S18202  -0.059   5.188   3.017
  162OSM    H8T18203  -0.229   5.222   3.072
  162OSM    C9S18204  -0.099   5.212   3.223
  162OSM    H9S18205  -0.149   5.113   3.207
  162OSM    H9T18206  -0.167   5.253   3.297
  162OSM   C10S18207   0.046   5.240   3.273
  162OSM   H10S18208   0.038   5.318   3.350
  162OSM   H10T18209   0.115   5.256   3.186
  162OSM   C11S18210   0.127   5.150   3.363
  162OSM   H11S18211   0.147   5.078   3.282
  162OSM   H11T18212   0.084   5.085   3.445
  162OSM   C12S18213   0.251   5.193   3.419
  162OSM   H12S18214   0.329   5.242   3.362
  162OSM   H12T18215   0.270   5.088   3.414
  162OSM   C13S18216   0.239   5.219   3.558
  162OSM   H13S18217   0.168   5.145   3.600
  162OSM   H13T18218   0.169   5.304   3.554
  162OSM   C14S18219   0.385   5.238   3.622
  162OSM   H14S18220   0.341   5.291   3.708
  162OSM   H14T18221   0.427   5.320   3.567
  162OSM   C15S18222   0.510   5.129   3.658
  162OSM   H15S18223   0.534   5.024   3.640
  162OSM   H15T18224   0.494   5.028   3.701
  162OSM   C16S18225   0.598   5.114   3.761
  162OSM   H16S18226   0.677   5.120   3.690
  162OSM   H16T18227   0.639   5.011   3.792
  162OSM   C17S18228   0.533   5.206   3.845
  162OSM   H17S18229   0.433   5.215   3.892
  162OSM   H17T18230   0.535   5.296   3.785
  162OSM   C18S18231   0.637   5.173   3.931
  162OSM   H18S18232   0.652   5.067   3.950
  162OSM   H18T18233   0.603   5.218   4.024
  162OSM   H18U18234   0.742   5.203   3.916
  162OSM    C1F18235   0.293   5.532   2.698
  162OSM     OF18236   0.333   5.598   2.608
  162OSM    C2F18237   0.378   5.471   2.801
  162OSM    H2F18238   0.464   5.443   2.738
  162OSM    H2G18239   0.329   5.382   2.844
  162OSM    C3F18240   0.425   5.568   2.909
  162OSM    H3F18241   0.349   5.619   2.968
  162OSM    H3G18242   0.476   5.636   2.845
  162OSM    C4F18243   0.537   5.516   2.993
  162OSM    H4F18244   0.620   5.494   2.923
  162OSM    H4G18245   0.475   5.434   3.034
  162OSM    C5F18246   0.603   5.572   3.113
  162OSM    H5F18247   0.692   5.636   3.095
  162OSM    H5G18248   0.668   5.503   3.157
  162OSM    C6F18249   0.493   5.606   3.215
  162OSM    H6F18250   0.424   5.528   3.251
  162OSM    H6G18251   0.420   5.668   3.160
  162OSM    C7F18252   0.566   5.654   3.338
  162OSM    H7F18253   0.643   5.710   3.281
  162OSM    H7G18254   0.641   5.606   3.399
  162OSM    C8F18255   0.473   5.719   3.437
  162OSM    H8F18256   0.383   5.768   3.393
  162OSM    H8G18257   0.542   5.792   3.483
  162OSM    C9F18258   0.418   5.663   3.554
  162OSM    H9F18259   0.467   5.704   3.643
  162OSM   C10F18260   0.304   5.599   3.554
  162OSM   H10F18261   0.281   5.558   3.651
  162OSM   C11F18262   0.211   5.572   3.437
  162OSM   H11F18263   0.209   5.463   3.414
  162OSM   H11G18264   0.233   5.625   3.341
  162OSM   C12F18265   0.072   5.617   3.477
  162OSM   H12F18266   0.005   5.619   3.388
  162OSM   H12G18267   0.078   5.722   3.513
  162OSM   C13F18268   0.011   5.522   3.581
  162OSM   H13F18269   0.076   5.510   3.671
  162OSM   H13G18270  -0.012   5.424   3.536
  162OSM   C14F18271  -0.117   5.580   3.629
  162OSM   H14F18272  -0.176   5.504   3.685
  162OSM   H14G18273  -0.176   5.605   3.538
  162OSM   C15F18274  -0.076   5.704   3.710
  162OSM   H15F18275  -0.145   5.783   3.713
  162OSM   H15G18276  -0.028   5.784   3.652
  162OSM   C16F18277  -0.030   5.678   3.855
  162OSM   H16F18278  -0.036   5.774   3.911
  162OSM   H16G18279   0.076   5.650   3.846
  162OSM   C17F18280  -0.091   5.562   3.940
  162OSM   H17F18281  -0.033   5.572   4.036
  162OSM   H17G18282  -0.092   5.465   3.889
  162OSM   C18F18283  -0.224   5.566   4.002
  162OSM   H18F18284  -0.221   5.665   4.042
  162OSM   H18G18285  -0.258   5.498   4.073
  162OSM   H18H18286  -0.320   5.550   3.953
  163OSM      N18287   6.144   7.198   2.104
  163OSM    C1518288   6.165   7.223   1.959
  163OSM   H15A18289   6.248   7.292   1.948
  163OSM   H15B18290   6.077   7.269   1.918
  163OSM   H15C18291   6.189   7.133   1.902
  163OSM    C1418292   6.277   7.150   2.154
  163OSM   H14A18293   6.279   7.132   2.261
  163OSM   H14B18294   6.359   7.215   2.122
  163OSM   H14C18295   6.298   7.052   2.109
  163OSM    C1318296   6.103   7.323   2.171
  163OSM   H13A18297   6.186   7.391   2.185
  163OSM   H13B18298   6.063   7.300   2.270
  163OSM   H13C18299   6.026   7.378   2.119
  163OSM    C1218300   6.034   7.097   2.125
  163OSM   H12A18301   5.940   7.140   2.092
  163OSM   H12B18302   6.024   7.078   2.232
  163OSM    C1118303   6.056   6.963   2.056
  163OSM   H11A18304   6.064   6.974   1.946
  163OSM   H11B18305   5.967   6.900   2.077
  163OSM      P18306   6.171   6.796   2.218
  163OSM    O1318307   6.079   6.692   2.180
  163OSM    O1418308   6.303   6.756   2.263
  163OSM    O1118309   6.100   6.877   2.335
  163OSM    O1218310   6.176   6.902   2.102
  163OSM    C1S18311   6.191   6.903   2.443
  163OSM    H1S18312   6.291   6.937   2.404
  163OSM    H1T18313   6.211   6.810   2.501
  163OSM     NF18314   6.221   7.057   2.635
  163OSM    HNF18315   6.177   7.064   2.723
  163OSM    C2S18316   6.132   7.016   2.530
  163OSM    H2S18317   6.116   7.104   2.463
  163OSM    C3S18318   5.998   6.973   2.593
  163OSM    H3S18319   6.016   6.887   2.660
  163OSM     O318320   5.896   6.940   2.500
  163OSM    HO318321   5.947   6.910   2.424
  163OSM    C4S18322   5.937   7.080   2.676
  163OSM    H4S18323   5.915   7.177   2.626
  163OSM    C5S18324   5.917   7.063   2.809
  163OSM    H5S18325   5.969   6.988   2.870
  163OSM    C6S18326   5.856   7.167   2.892
  163OSM    H6S18327   5.830   7.151   3.001
  163OSM    H6T18328   5.791   7.238   2.832
  163OSM    C7S18329   5.947   7.265   2.905
  163OSM    H7S18330   5.968   7.296   2.795
  163OSM    H7T18331   6.037   7.229   2.956
  163OSM    C8S18332   5.875   7.366   2.995
  163OSM    H8S18333   5.767   7.369   2.980
  163OSM    H8T18334   5.870   7.440   2.901
  163OSM    C9S18335   5.942   7.409   3.159
  163OSM    H9S18336   5.955   7.518   3.202
  163OSM    H9T18337   6.049   7.400   3.179
  163OSM   C10S18338   5.925   7.332   3.270
  163OSM   H10S18339   5.934   7.232   3.231
  163OSM   H10T18340   5.831   7.374   3.264
  163OSM   C11S18341   5.990   7.384   3.397
  163OSM   H11S18342   5.960   7.492   3.415
  163OSM   H11T18343   6.100   7.383   3.388
  163OSM   C12S18344   5.935   7.278   3.490
  163OSM   H12S18345   5.939   7.180   3.442
  163OSM   H12T18346   5.828   7.261   3.488
  163OSM   C13S18347   5.955   7.306   3.635
  163OSM   H13S18348   5.878   7.252   3.696
  163OSM   H13T18349   5.950   7.410   3.673
  163OSM   C14S18350   6.097   7.293   3.660
  163OSM   H14S18351   6.149   7.380   3.614
  163OSM   H14T18352   6.122   7.196   3.612
  163OSM   C15S18353   6.111   7.293   3.806
  163OSM   H15S18354   6.018   7.237   3.840
  163OSM   H15T18355   6.102   7.396   3.850
  163OSM   C16S18356   6.243   7.221   3.832
  163OSM   H16S18357   6.327   7.272   3.782
  163OSM   H16T18358   6.223   7.114   3.808
  163OSM   C17S18359   6.293   7.208   3.968
  163OSM   H17S18360   6.354   7.295   4.003
  163OSM   H17T18361   6.343   7.116   4.004
  163OSM   C18S18362   6.162   7.186   4.020
  163OSM   H18S18363   6.197   7.268   4.087
  163OSM   H18T18364   6.143   7.086   4.063
  163OSM   H18U18365   6.064   7.232   4.017
  163OSM    C1F18366   6.344   7.099   2.617
  163OSM     OF18367   6.392   7.119   2.505
  163OSM    C2F18368   6.415   7.136   2.743
  163OSM    H2F18369   6.339   7.171   2.816
  163OSM    H2G18370   6.483   7.220   2.720
  163OSM    C3F18371   6.495   7.020   2.803
  163OSM    H3F18372   6.563   7.059   2.882
  163OSM    H3G18373   6.561   6.992   2.718
  163OSM    C4F18374   6.415   6.898   2.857
  163OSM    H4F18375   6.481   6.811   2.874
  163OSM    H4G18376   6.347   6.862   2.777
  163OSM    C5F18377   6.337   6.923   2.988
  163OSM    H5F18378   6.289   6.829   3.020
  163OSM    H5G18379   6.256   6.996   2.968
  163OSM    C6F18380   6.418   6.983   3.104
  163OSM    H6F18381   6.436   7.090   3.079
  163OSM    H6G18382   6.519   6.938   3.116
  163OSM    C7F18383   6.343   6.984   3.240
  163OSM    H7F18384   6.236   7.005   3.224
  163OSM    H7G18385   6.390   7.066   3.298
  163OSM    C8F18386   6.354   6.861   3.331
  163OSM    H8F18387   6.317   6.877   3.434
  163OSM    H8G18388   6.461   6.860   3.355
  163OSM    C9F18389   6.301   6.731   3.275
  163OSM    H9F18390   6.339   6.700   3.176
  163OSM   C10F18391   6.201   6.657   3.315
  163OSM   H10F18392   6.184   6.564   3.261
  163OSM   C11F18393   6.113   6.689   3.429
  163OSM   H11F18394   6.016   6.642   3.405
  163OSM   H11G18395   6.099   6.799   3.430
  163OSM   C12F18396   6.155   6.652   3.569
  163OSM   H12F18397   6.255   6.692   3.595
  163OSM   H12G18398   6.159   6.541   3.574
  163OSM   C13F18399   6.053   6.708   3.668
  163OSM   H13F18400   5.957   6.650   3.661
  163OSM   H13G18401   6.033   6.817   3.663
  163OSM   C14F18402   6.097   6.688   3.808
  163OSM   H14F18403   6.116   6.580   3.800
  163OSM   H14G18404   6.003   6.717   3.860
  163OSM   C15F18405   6.213   6.772   3.868
  163OSM   H15F18406   6.183   6.876   3.865
  163OSM   H15G18407   6.301   6.745   3.805
  163OSM   C16F18408   6.266   6.750   4.012
  163OSM   H16F18409   6.187   6.740   4.084
  163OSM   H16G18410   6.322   6.823   4.069
  163OSM   C17F18411   6.339   6.622   4.007
  163OSM   H17F18412   6.283   6.580   3.924
  163OSM   H17G18413   6.339   6.571   4.106
  163OSM   C18F18414   6.477   6.586   3.964
  163OSM   H18F18415   6.529   6.633   3.889
  163OSM   H18G18416   6.524   6.496   4.012
  163OSM   H18H18417   6.483   6.668   4.023
  164OSM      N18418   1.028   0.400   2.228
  164OSM    C1518419   1.000   0.518   2.142
  164OSM   H15A18420   0.950   0.489   2.051
  164OSM   H15B18421   1.094   0.567   2.117
  164OSM   H15C18422   0.939   0.591   2.193
  164OSM    C1418423   1.119   0.304   2.159
  164OSM   H14A18424   1.221   0.340   2.157
  164OSM   H14B18425   1.084   0.290   2.057
  164OSM   H14C18426   1.119   0.206   2.205
  164OSM    C1318427   1.097   0.445   2.346
  164OSM   H13A18428   1.183   0.507   2.321
  164OSM   H13B18429   1.145   0.361   2.397
  164OSM   H13C18430   1.039   0.496   2.418
  164OSM    C1218431   0.904   0.333   2.281
  164OSM   H12A18432   0.864   0.393   2.361
  164OSM   H12B18433   0.934   0.237   2.321
  164OSM    C1118434   0.791   0.310   2.184
  164OSM   H11A18435   0.752   0.408   2.148
  164OSM   H11B18436   0.708   0.253   2.232
  164OSM      P18437   0.853   0.094   2.061
  164OSM    O1318438   0.728   0.049   1.998
  164OSM    O1418439   0.982   0.076   1.994
  164OSM    O1118440   0.862   0.035   2.212
  164OSM    O1218441   0.842   0.245   2.073
  164OSM    C1S18442   0.836  -0.090   2.284
  164OSM    H1S18443   0.838  -0.182   2.225
  164OSM    H1T18444   0.736  -0.105   2.329
  164OSM     NF18445   0.894   0.014   2.494
  164OSM    HNF18446   0.975   0.050   2.537
  164OSM    C2S18447   0.911  -0.107   2.416
  164OSM    H2S18448   0.855  -0.192   2.465
  164OSM    C3S18449   1.063  -0.143   2.412
  164OSM    H3S18450   1.120  -0.058   2.369
  164OSM     O318451   1.103  -0.262   2.345
  164OSM    HO318452   1.021  -0.296   2.309
  164OSM    C4S18453   1.093  -0.151   2.551
  164OSM    H4S18454   1.148  -0.075   2.605
  164OSM    C5S18455   1.053  -0.257   2.614
  164OSM    H5S18456   1.041  -0.353   2.568
  164OSM    C6S18457   1.072  -0.271   2.748
  164OSM    H6S18458   1.153  -0.317   2.762
  164OSM    H6T18459   1.013  -0.351   2.776
  164OSM    C7S18460   1.085  -0.168   2.844
  164OSM    H7S18461   1.163  -0.095   2.816
  164OSM    H7T18462   1.109  -0.215   2.940
  164OSM    C8S18463   0.953  -0.126   2.866
  164OSM    H8S18464   0.894  -0.219   2.885
  164OSM    H8T18465   0.933  -0.084   2.765
  164OSM    C9S18466   0.975  -0.026   2.974
  164OSM    H9S18467   0.899   0.042   2.940
  164OSM    H9T18468   1.068   0.032   2.958
  164OSM   C10S18469   0.970  -0.075   3.119
  164OSM   H10S18470   1.073  -0.097   3.154
  164OSM   H10T18471   0.908  -0.166   3.134
  164OSM   C11S18472   0.928   0.032   3.219
  164OSM   H11S18473   0.820   0.053   3.206
  164OSM   H11T18474   0.984   0.123   3.189
  164OSM   C12S18475   0.959  -0.010   3.364
  164OSM   H12S18476   1.069  -0.029   3.372
  164OSM   H12T18477   0.906  -0.103   3.391
  164OSM   C13S18478   0.917   0.095   3.466
  164OSM   H13S18479   0.812   0.130   3.458
  164OSM   H13T18480   0.974   0.178   3.431
  164OSM   C14S18481   0.971   0.085   3.609
  164OSM   H14S18482   0.986   0.188   3.648
  164OSM   H14T18483   1.070   0.035   3.610
  164OSM   C15S18484   0.877   0.017   3.705
  164OSM   H15S18485   0.941  -0.012   3.790
  164OSM   H15T18486   0.831  -0.073   3.657
  164OSM   C16S18487   0.769   0.111   3.759
  164OSM   H16S18488   0.705   0.133   3.670
  164OSM   H16T18489   0.807   0.206   3.799
  164OSM   C17S18490   0.683   0.050   3.869
  164OSM   H17S18491   0.637  -0.021   3.812
  164OSM   H17T18492   0.584   0.086   3.883
  164OSM   C18S18493   0.736  -0.021   3.992
  164OSM   H18S18494   0.651  -0.062   4.052
  164OSM   H18T18495   0.790   0.054   4.052
  164OSM   H18U18496   0.806  -0.102   3.963
  164OSM    C1F18497   0.783   0.079   2.520
  164OSM     OF18498   0.679   0.065   2.460
  164OSM    C2F18499   0.795   0.168   2.637
  164OSM    H2F18500   0.897   0.175   2.678
  164OSM    H2G18501   0.742   0.114   2.715
  164OSM    C3F18502   0.732   0.302   2.601
  164OSM    H3F18503   0.626   0.292   2.569
  164OSM    H3G18504   0.787   0.346   2.514
  164OSM    C4F18505   0.747   0.409   2.709
  164OSM    H4F18506   0.697   0.497   2.663
  164OSM    H4G18507   0.856   0.419   2.724
  164OSM    C5F18508   0.693   0.388   2.852
  164OSM    H5F18509   0.748   0.296   2.879
  164OSM    H5G18510   0.584   0.393   2.849
  164OSM    C6F18511   0.708   0.469   2.982
  164OSM    H6F18512   0.649   0.450   3.073
  164OSM    H6G18513   0.652   0.555   2.948
  164OSM    C7F18514   0.857   0.476   3.010
  164OSM    H7F18515   0.916   0.499   2.920
  164OSM    H7G18516   0.895   0.374   3.030
  164OSM    C8F18517   0.901   0.582   3.104
  164OSM    H8F18518   0.862   0.681   3.115
  164OSM    H8G18519   1.006   0.610   3.069
  164OSM    C9F18520   0.846   0.568   3.241
  164OSM    H9F18521   0.750   0.542   3.253
  164OSM   C10F18522   0.899   0.541   3.355
  164OSM   H10F18523   0.869   0.473   3.437
  164OSM   C11F18524   1.022   0.524   3.314
  164OSM   H11F18525   1.078   0.572   3.227
  164OSM   H11G18526   0.993   0.416   3.286
  164OSM   C12F18527   1.088   0.581   3.430
  164OSM   H12F18528   1.135   0.678   3.392
  164OSM   H12G18529   1.182   0.576   3.367
  164OSM   C13F18530   1.086   0.507   3.603
  164OSM   H13F18531   0.987   0.522   3.634
  164OSM   H13G18532   1.133   0.557   3.686
  164OSM   C14F18533   1.199   0.398   3.697
  164OSM   H14F18534   1.311   0.381   3.670
  164OSM   H14G18535   1.182   0.289   3.674
  164OSM   C15F18536   1.203   0.389   3.834
  164OSM   H15F18537   1.250   0.489   3.847
  164OSM   H15G18538   1.272   0.300   3.846
  164OSM   C16F18539   1.056   0.367   3.847
  164OSM   H16F18540   1.037   0.266   3.885
  164OSM   H16G18541   0.985   0.380   3.761
  164OSM   C17F18542   1.021   0.463   3.947
  164OSM   H17F18543   1.058   0.561   3.918
  164OSM   H17G18544   1.081   0.439   4.037
  164OSM   C18F18545   0.876   0.465   3.973
  164OSM   H18F18546   0.800   0.487   3.895
  164OSM   H18G18547   0.879   0.563   4.013
  164OSM   H18H18548   0.844   0.395   4.053
  165SAPS     N18549   4.894   4.350   6.331
  165SAPS   HN118550   4.818   4.407   6.375
  165SAPS   HN218551   4.863   4.312   6.240
  165SAPS   HN318552   4.928   4.273   6.393
  165SAPS   C1218553   5.010   4.440   6.303
  165SAPS  H12A18554   5.049   4.470   6.397
  165SAPS   C1318555   5.128   4.372   6.230
  165SAPS  O13A18556   5.130   4.246   6.223
  165SAPS  O13B18557   5.216   4.447   6.181
  165SAPS   C1118558   4.968   4.570   6.231
  165SAPS  H11A18559   4.942   4.550   6.125
  165SAPS  H11B18560   5.058   4.637   6.234
  165SAPS     P18561   4.829   4.783   6.256
  165SAPS   O1318562   4.693   4.821   6.300
  165SAPS   O1418563   4.943   4.862   6.305
  165SAPS   O1218564   4.856   4.630   6.298
  165SAPS   O1118565   4.834   4.782   6.097
  165SAPS    C118566   4.831   4.911   6.035
  165SAPS    HA18567   4.745   4.972   6.073
  165SAPS    HB18568   4.925   4.969   6.056
  165SAPS    C218569   4.817   4.898   5.881
  165SAPS    HS18570   4.729   4.836   5.856
  165SAPS   O2118571   4.941   4.844   5.828
  165SAPS   C2118572   4.949   4.711   5.828
  165SAPS   O2218573   4.857   4.634   5.854
  165SAPS   C2218574   5.089   4.661   5.786
  165SAPS   H2R18575   5.146   4.747   5.746
  165SAPS   H2S18576   5.138   4.625   5.879
  165SAPS    C318577   4.788   5.040   5.824
  165SAPS    HX18578   4.886   5.091   5.834
  165SAPS    HY18579   4.726   5.092   5.900
  165SAPS   O3118580   4.723   5.050   5.693
  165SAPS   C3118581   4.787   5.002   5.585
  165SAPS   O3218582   4.896   4.949   5.587
  165SAPS   C3218583   4.714   5.031   5.452
  165SAPS   H2X18584   4.684   5.137   5.441
  165SAPS   H2Y18585   4.627   4.963   5.458
  165SAPS   C2318586   5.076   4.544   5.684
  165SAPS   H3R18587   5.037   4.584   5.587
  165SAPS   H3S18588   5.001   4.477   5.723
  165SAPS   C2418589   5.184   4.439   5.658
  165SAPS   H4R18590   5.154   4.365   5.583
  165SAPS   H4S18591   5.224   4.383   5.745
  165SAPS   C2518592   5.281   4.505   5.580
  165SAPS   H5R18593   5.368   4.526   5.645
  165SAPS   C2618594   5.268   4.543   5.449
  165SAPS   H6R18595   5.332   4.620   5.410
  165SAPS   C2718596   5.169   4.539   5.340
  165SAPS   H7R18597   5.152   4.647   5.317
  165SAPS   H7S18598   5.086   4.489   5.388
  165SAPS   C2818599   5.210   4.466   5.213
  165SAPS   H8R18600   5.287   4.389   5.235
  165SAPS   C2918601   5.213   4.515   5.086
  165SAPS   H9R18602   5.261   4.453   5.010
  165SAPS  C21018603   5.179   4.650   5.029
  165SAPS  H10R18604   5.110   4.702   5.097
  165SAPS  H10S18605   5.121   4.631   4.936
  165SAPS  C21118606   5.294   4.740   4.986
  165SAPS  H11R18607   5.390   4.694   4.957
  165SAPS  C21218608   5.284   4.873   4.981
  165SAPS  H12R18609   5.370   4.930   4.941
  165SAPS  C21318610   5.160   4.951   5.017
  165SAPS  H13R18611   5.180   5.011   5.108
  165SAPS  H13S18612   5.072   4.888   5.041
  165SAPS  C21418613   5.120   5.045   4.910
  165SAPS  H14R18614   5.197   5.059   4.835
  165SAPS  C21518615   5.001   5.093   4.878
  165SAPS  H15R18616   4.997   5.175   4.804
  165SAPS  C21618617   4.873   5.060   4.947
  165SAPS  H16R18618   4.831   5.149   4.996
  165SAPS  H16S18619   4.888   4.982   5.025
  165SAPS  C21718620   4.778   5.008   4.837
  165SAPS  H17R18621   4.755   5.092   4.767
  165SAPS  H17S18622   4.681   4.985   4.887
  165SAPS  C21818623   4.834   4.890   4.753
  165SAPS  H18R18624   4.756   4.816   4.731
  165SAPS  H18S18625   4.914   4.839   4.812
  165SAPS  C21918626   4.887   4.930   4.615
  165SAPS  H19R18627   4.965   5.007   4.633
  165SAPS  H19S18628   4.804   4.978   4.559
  165SAPS  C22018629   4.947   4.819   4.528
  165SAPS  H20R18630   5.007   4.870   4.449
  165SAPS  H20S18631   4.871   4.755   4.479
  165SAPS  H20T18632   5.016   4.753   4.585
  165SAPS   C3318633   4.794   4.999   5.322
  165SAPS   H3X18634   4.882   5.062   5.301
  165SAPS   H3Y18635   4.731   5.017   5.233
  165SAPS   C3418636   4.850   4.859   5.322
  165SAPS   H4X18637   4.885   4.824   5.420
  165SAPS   H4Y18638   4.939   4.849   5.255
  165SAPS   C3518639   4.749   4.760   5.284
  165SAPS   H5X18640   4.668   4.798   5.218
  165SAPS   H5Y18641   4.699   4.721   5.375
  165SAPS   C3618642   4.830   4.656   5.215
  165SAPS   H6X18643   4.884   4.588   5.287
  165SAPS   H6Y18644   4.894   4.687   5.130
  165SAPS   C3718645   4.731   4.582   5.144
  165SAPS   H7X18646   4.669   4.551   5.227
  165SAPS   H7Y18647   4.782   4.491   5.135
  165SAPS   C3818648   4.636   4.639   5.036
  165SAPS   H8X18649   4.566   4.713   5.075
  165SAPS   H8Y18650   4.543   4.585   5.041
  165SAPS   C3918651   4.682   4.658   4.885
  165SAPS   H9X18652   4.752   4.741   4.909
  165SAPS   H9Y18653   4.597   4.669   4.818
  165SAPS  C31018654   4.761   4.558   4.792
  165SAPS  H10X18655   4.773   4.458   4.771
  165SAPS  H10Y18656   4.800   4.564   4.886
  165SAPS  C31118657   4.844   4.538   4.665
  165SAPS  H11X18658   4.930   4.600   4.686
  165SAPS  H11Y18659   4.756   4.564   4.601
  165SAPS  C31218660   4.890   4.390   4.615
  165SAPS  H12X18661   4.917   4.406   4.510
  165SAPS  H12Y18662   4.801   4.320   4.623
  165SAPS  C31318663   5.016   4.308   4.663
  165SAPS  H13X18664   5.053   4.210   4.640
  165SAPS  H13Y18665   4.945   4.244   4.725
  165SAPS  C31418666   5.153   4.376   4.714
  165SAPS  H14X18667   5.221   4.326   4.789
  165SAPS  H14Y18668   5.141   4.469   4.773
  165SAPS  C31518669   5.244   4.410   4.613
  165SAPS  H15X18670   5.166   4.437   4.537
  165SAPS  H15Y18671   5.296   4.313   4.600
  165SAPS  C31618672   5.322   4.530   4.665
  165SAPS  H16X18673   5.403   4.502   4.735
  165SAPS  H16Y18674   5.259   4.605   4.720
  165SAPS  C31718675   5.367   4.603   4.542
  165SAPS  H17X18676   5.308   4.560   4.457
  165SAPS  H17Y18677   5.474   4.582   4.526
  165SAPS  C31818678   5.342   4.752   4.553
  165SAPS  H18X18679   5.362   4.800   4.455
  165SAPS  H18Y18680   5.410   4.791   4.632
  165SAPS  H18Z18681   5.238   4.777   4.584
  166SAPS     N18682   2.025   4.699   6.225
  166SAPS   HN118683   2.119   4.693   6.269
  166SAPS   HN218684   1.992   4.611   6.180
  166SAPS   HN318685   2.024   4.774   6.153
  166SAPS   C1218686   1.932   4.742   6.335
  166SAPS  H12A18687   1.908   4.657   6.395
  166SAPS   C1318688   1.997   4.843   6.429
  166SAPS  O13A18689   2.119   4.869   6.411
  166SAPS  O13B18690   1.930   4.883   6.527
  166SAPS   C1118691   1.804   4.803   6.274
  166SAPS  H11A18692   1.828   4.899   6.222
  166SAPS  H11B18693   1.734   4.827   6.358
  166SAPS     P18694   1.614   4.744   6.107
  166SAPS   O1318695   1.503   4.691   6.187
  166SAPS   O1418696   1.615   4.887   6.072
  166SAPS   O1218697   1.750   4.706   6.184
  166SAPS   O1118698   1.624   4.661   5.978
  166SAPS    C118699   1.650   4.522   5.985
  166SAPS    HA18700   1.621   4.475   6.080
  166SAPS    HB18701   1.571   4.480   5.922
  166SAPS    C218702   1.797   4.497   5.946
  166SAPS    HS18703   1.854   4.489   6.040
  166SAPS   O2118704   1.836   4.612   5.873
  166SAPS   C2118705   1.959   4.625   5.860
  166SAPS   O2218706   2.048   4.573   5.928
  166SAPS   C2218707   1.974   4.732   5.765
  166SAPS   H2R18708   1.974   4.699   5.659
  166SAPS   H2S18709   1.890   4.805   5.780
  166SAPS    C318710   1.836   4.376   5.860
  166SAPS    HX18711   1.772   4.292   5.897
  166SAPS    HY18712   1.939   4.340   5.872
  166SAPS   O3118713   1.827   4.426   5.722
  166SAPS   C3118714   1.827   4.336   5.629
  166SAPS   O3218715   1.882   4.227   5.651
  166SAPS   C3218716   1.751   4.381   5.480
  166SAPS   H2X18717   1.645   4.371   5.473
  166SAPS   H2Y18718   1.765   4.292   5.418
  166SAPS   C2318719   2.105   4.793   5.794
  166SAPS   H3R18720   2.191   4.723   5.784
  166SAPS   H3S18721   2.117   4.854   5.887
  166SAPS   C2418722   2.107   4.889   5.685
  166SAPS   H4R18723   2.142   4.840   5.590
  166SAPS   H4S18724   2.201   4.928   5.722
  166SAPS   C2518725   1.984   4.988   5.677
  166SAPS   H5R18726   1.993   5.086   5.723
  166SAPS   C2618727   1.902   5.015   5.575
  166SAPS   H6R18728   1.863   5.120   5.576
  166SAPS   C2718729   1.913   4.950   5.438
  166SAPS   H7R18730   1.958   4.850   5.447
  166SAPS   H7S18731   1.979   4.998   5.359
  166SAPS   C2818732   1.772   4.957   5.396
  166SAPS   H8R18733   1.702   4.950   5.480
  166SAPS   C2918734   1.723   4.967   5.273
  166SAPS   H9R18735   1.614   4.963   5.267
  166SAPS  C21018736   1.803   4.972   5.146
  166SAPS  H10R18737   1.848   4.872   5.133
  166SAPS  H10S18738   1.889   5.043   5.152
  166SAPS  C21118739   1.722   5.004   5.024
  166SAPS  H11R18740   1.666   5.099   5.027
  166SAPS  C21218741   1.694   4.922   4.921
  166SAPS  H12R18742   1.632   4.969   4.844
  166SAPS  C21318743   1.733   4.778   4.891
  166SAPS  H13R18744   1.820   4.743   4.950
  166SAPS  H13S18745   1.766   4.769   4.785
  166SAPS  C21418746   1.622   4.677   4.916
  166SAPS  H14R18747   1.651   4.591   4.979
  166SAPS  C21518748   1.493   4.686   4.880
  166SAPS  H15R18749   1.423   4.606   4.910
  166SAPS  C21618750   1.430   4.800   4.804
  166SAPS  H16R18751   1.505   4.861   4.749
  166SAPS  H16S18752   1.375   4.866   4.874
  166SAPS  C21718753   1.329   4.753   4.702
  166SAPS  H17R18754   1.317   4.841   4.634
  166SAPS  H17S18755   1.228   4.740   4.744
  166SAPS  C21818756   1.378   4.625   4.634
  166SAPS  H18R18757   1.366   4.531   4.691
  166SAPS  H18S18758   1.486   4.637   4.606
  166SAPS  C21918759   1.309   4.599   4.509
  166SAPS  H19R18760   1.198   4.609   4.504
  166SAPS  H19S18761   1.336   4.496   4.478
  166SAPS  C22018762   1.369   4.705   4.425
  166SAPS  H20R18763   1.374   4.798   4.471
  166SAPS  H20S18764   1.288   4.732   4.355
  166SAPS  H20T18765   1.463   4.681   4.369
  166SAPS   C3318766   1.798   4.502   5.395
  166SAPS   H3X18767   1.809   4.585   5.467
  166SAPS   H3Y18768   1.720   4.507   5.315
  166SAPS   C3418769   1.923   4.507   5.308
  166SAPS   H4X18770   1.958   4.420   5.261
  166SAPS   H4Y18771   2.018   4.500   5.353
  166SAPS   C3518772   1.919   4.593   5.195
  166SAPS   H5X18773   1.927   4.689   5.250
  166SAPS   H5Y18774   1.831   4.568   5.135
  166SAPS   C3618775   2.036   4.557   5.112
  166SAPS   H6X18776   2.106   4.566   5.182
  166SAPS   H6Y18777   2.068   4.644   5.056
  166SAPS   C3718778   2.073   4.416   5.065
  166SAPS   H7X18779   2.085   4.335   5.133
  166SAPS   H7Y18780   2.174   4.386   5.058
  166SAPS   C3818781   2.020   4.418   4.931
  166SAPS   H8X18782   1.914   4.439   4.962
  166SAPS   H8Y18783   2.039   4.318   4.884
  166SAPS   C3918784   2.047   4.540   4.838
  166SAPS   H9X18785   2.147   4.512   4.798
  166SAPS   H9Y18786   2.040   4.641   4.878
  166SAPS  C31018787   1.929   4.554   4.740
  166SAPS  H10X18788   1.830   4.538   4.786
  166SAPS  H10Y18789   1.974   4.459   4.720
  166SAPS  C31118790   1.913   4.632   4.603
  166SAPS  H11X18791   1.998   4.655   4.541
  166SAPS  H11Y18792   1.917   4.736   4.626
  166SAPS  C31218793   1.835   4.569   4.484
  166SAPS  H12X18794   1.732   4.550   4.518
  166SAPS  H12Y18795   1.876   4.473   4.439
  166SAPS  C31318796   1.829   4.657   4.364
  166SAPS  H13X18797   1.766   4.604   4.289
  166SAPS  H13Y18798   1.933   4.665   4.328
  166SAPS  C31418799   1.772   4.792   4.402
  166SAPS  H14X18800   1.841   4.846   4.471
  166SAPS  H14Y18801   1.673   4.779   4.452
  166SAPS  C31518802   1.760   4.876   4.277
  166SAPS  H15X18803   1.710   4.973   4.297
  166SAPS  H15Y18804   1.684   4.819   4.220
  166SAPS  C31618805   1.900   4.905   4.214
  166SAPS  H16X18806   1.974   4.826   4.233
  166SAPS  H16Y18807   1.932   5.005   4.248
  166SAPS  C31718808   1.908   4.940   4.068
  166SAPS  H17X18809   1.849   5.027   4.040
  166SAPS  H17Y18810   1.874   4.856   4.021
  166SAPS  C31818811   2.012   4.930   3.972
  166SAPS  H18X18812   2.060   5.025   3.993
  166SAPS  H18Y18813   1.992   4.923   3.864
  166SAPS  H18Z18814   2.067   4.835   3.978
  167SAPS     N18815   4.674   6.696   6.374
  167SAPS   HN118816   4.718   6.790   6.394
  167SAPS   HN218817   4.710   6.626   6.440
  167SAPS   HN318818   4.695   6.668   6.276
  167SAPS   C1218819   4.526   6.721   6.388
  167SAPS  H12A18820   4.491   6.659   6.469
  167SAPS   C1318821   4.494   6.866   6.425
  167SAPS  O13A18822   4.590   6.935   6.468
  167SAPS  O13B18823   4.373   6.902   6.428
  167SAPS   C1118824   4.446   6.685   6.261
  167SAPS  H11A18825   4.469   6.758   6.179
  167SAPS  H11B18826   4.338   6.696   6.284
  167SAPS     P18827   4.435   6.516   6.072
  167SAPS   O1318828   4.442   6.375   6.051
  167SAPS   O1418829   4.337   6.606   6.011
  167SAPS   O1218830   4.470   6.550   6.223
  167SAPS   O1118831   4.564   6.532   6.007
  167SAPS    C118832   4.680   6.550   6.074
  167SAPS    HA18833   4.675   6.640   6.137
  167SAPS    HB18834   4.728   6.462   6.122
  167SAPS    C218835   4.754   6.595   5.962
  167SAPS    HS18836   4.846   6.622   6.016
  167SAPS   O2118837   4.687   6.680   5.865
  167SAPS   C2118838   4.627   6.787   5.901
  167SAPS   O2218839   4.649   6.845   6.006
  167SAPS   C2218840   4.534   6.840   5.792
  167SAPS   H2R18841   4.578   6.874   5.696
  167SAPS   H2S18842   4.468   6.757   5.763
  167SAPS    C318843   4.814   6.504   5.876
  167SAPS    HX18844   4.887   6.445   5.936
  167SAPS    HY18845   4.870   6.554   5.798
  167SAPS   O3118846   4.708   6.440   5.815
  167SAPS   C3118847   4.675   6.471   5.691
  167SAPS   O3218848   4.729   6.542   5.609
  167SAPS   C3218849   4.585   6.368   5.656
  167SAPS   H2X18850   4.508   6.404   5.719
  167SAPS   H2Y18851   4.627   6.269   5.692
  167SAPS   C2318852   4.463   6.964   5.847
  167SAPS   H3R18853   4.536   7.048   5.847
  167SAPS   H3S18854   4.435   6.944   5.953
  167SAPS   C2418855   4.342   7.000   5.762
  167SAPS   H4R18856   4.365   6.991   5.654
  167SAPS   H4S18857   4.309   7.104   5.783
  167SAPS   C2518858   4.240   6.899   5.803
  167SAPS   H5R18859   4.196   6.916   5.902
  167SAPS   C2618860   4.181   6.811   5.722
  167SAPS   H6R18861   4.104   6.743   5.760
  167SAPS   C2718862   4.198   6.792   5.579
  167SAPS   H7R18863   4.189   6.888   5.525
  167SAPS   H7S18864   4.112   6.733   5.550
  167SAPS   C2818865   4.316   6.709   5.554
  167SAPS   H8R18866   4.329   6.627   5.626
  167SAPS   C2918867   4.403   6.731   5.458
  167SAPS   H9R18868   4.494   6.669   5.451
  167SAPS  C21018869   4.391   6.845   5.365
  167SAPS  H10R18870   4.301   6.907   5.370
  167SAPS  H10S18871   4.382   6.800   5.262
  167SAPS  C21118872   4.495   6.946   5.406
  167SAPS  H11R18873   4.543   6.948   5.502
  167SAPS  C21218874   4.568   7.019   5.330
  167SAPS  H12R18875   4.674   7.021   5.360
  167SAPS  C21318876   4.555   7.005   5.190
  167SAPS  H13R18877   4.458   6.963   5.135
  167SAPS  H13S18878   4.530   6.886   5.191
  167SAPS  C21418879   4.711   7.080   5.136
  167SAPS  H14R18880   4.631   7.153   5.111
  167SAPS  C21518881   4.820   7.031   5.017
  167SAPS  H15R18882   4.864   7.106   4.956
  167SAPS  C21618883   4.819   6.881   4.891
  167SAPS  H16R18884   4.840   6.776   4.931
  167SAPS  H16S18885   4.890   6.837   4.845
  167SAPS  C21718886   4.710   6.762   4.817
  167SAPS  H17R18887   4.600   6.763   4.818
  167SAPS  H17S18888   4.742   6.650   4.828
  167SAPS  C21818889   4.696   6.773   4.671
  167SAPS  H18R18890   4.679   6.670   4.630
  167SAPS  H18S18891   4.801   6.730   4.678
  167SAPS  C21918892   4.663   6.917   4.559
  167SAPS  H19R18893   4.723   6.956   4.630
  167SAPS  H19S18894   4.562   6.947   4.553
  167SAPS  C22018895   4.739   7.011   4.417
  167SAPS  H20R18896   4.854   7.016   4.414
  167SAPS  H20S18897   4.732   7.112   4.396
  167SAPS  H20T18898   4.734   6.957   4.322
  167SAPS   C3318899   4.493   6.400   5.538
  167SAPS   H3X18900   4.558   6.393   5.453
  167SAPS   H3Y18901   4.472   6.505   5.556
  167SAPS   C3418902   4.357   6.330   5.523
  167SAPS   H4X18903   4.310   6.310   5.622
  167SAPS   H4Y18904   4.363   6.236   5.466
  167SAPS   C3518905   4.249   6.383   5.438
  167SAPS   H5X18906   4.210   6.470   5.493
  167SAPS   H5Y18907   4.170   6.303   5.434
  167SAPS   C3618908   4.305   6.416   5.301
  167SAPS   H6X18909   4.302   6.326   5.236
  167SAPS   H6Y18910   4.401   6.470   5.299
  167SAPS   C3718911   4.210   6.501   5.235
  167SAPS   H7X18912   4.190   6.594   5.290
  167SAPS   H7Y18913   4.138   6.416   5.251
  167SAPS   C3818914   4.222   6.521   5.087
  167SAPS   H8X18915   4.175   6.427   5.049
  167SAPS   H8Y18916   4.329   6.531   5.063
  167SAPS   C3918917   4.150   6.645   5.035
  167SAPS   H9X18918   4.173   6.730   5.101
  167SAPS   H9Y18919   4.045   6.642   5.040
  167SAPS  C31018920   4.163   6.672   4.887
  167SAPS  H10X18921   4.082   6.740   4.854
  167SAPS  H10Y18922   4.140   6.578   4.836
  167SAPS  C31118923   4.303   6.722   4.856
  167SAPS  H11X18924   4.366   6.632   4.850
  167SAPS  H11Y18925   4.338   6.780   4.945
  167SAPS  C31218926   4.323   6.798   4.724
  167SAPS  H12X18927   4.425   6.783   4.687
  167SAPS  H12Y18928   4.301   6.907   4.741
  167SAPS  C31318929   4.240   6.759   4.602
  167SAPS  H13X18930   4.241   6.840   4.528
  167SAPS  H13Y18931   4.143   6.759   4.647
  167SAPS  C31418932   4.263   6.626   4.529
  167SAPS  H14X18933   4.185   6.562   4.567
  167SAPS  H14Y18934   4.366   6.590   4.539
  167SAPS  C31518935   4.211   6.604   4.388
  167SAPS  H15X18936   4.113   6.645   4.371
  167SAPS  H15Y18937   4.198   6.495   4.365
  167SAPS  C31618938   4.299   6.685   4.302
  167SAPS  H16X18939   4.388   6.622   4.280
  167SAPS  H16Y18940   4.323   6.780   4.352
  167SAPS  C31718941   4.234   6.747   4.184
  167SAPS  H17X18942   4.129   6.780   4.184
  167SAPS  H17Y18943   4.233   6.657   4.138
  167SAPS  C31818944   4.321   6.810   4.083
  167SAPS  H18X18945   4.345   6.911   4.109
  167SAPS  H18Y18946   4.265   6.814   3.988
  167SAPS  H18Z18947   4.412   6.747   4.070
  168SAPS     N18948   2.953   7.336   6.328
  168SAPS   HN118949   2.901   7.337   6.419
  168SAPS   HN218950   3.033   7.402   6.331
  168SAPS   HN318951   2.890   7.357   6.249
  168SAPS   C1218952   3.001   7.193   6.317
  168SAPS  H12A18953   3.094   7.190   6.261
  168SAPS   C1318954   3.029   7.123   6.452
  168SAPS  O13A18955   3.008   7.186   6.560
  168SAPS  O13B18956   3.086   7.011   6.450
  168SAPS   C1118957   2.894   7.111   6.242
  168SAPS  H11A18958   2.855   7.161   6.151
  168SAPS  H11B18959   2.807   7.097   6.310
  168SAPS     P18960   3.026   6.938   6.085
  168SAPS   O1318961   3.131   7.037   6.051
  168SAPS   O1418962   3.062   6.795   6.098
  168SAPS   O1218963   2.945   6.983   6.210
  168SAPS   O1118964   2.917   6.952   5.974
  168SAPS    C118965   2.783   6.907   5.995
  168SAPS    HA18966   2.777   6.805   6.039
  168SAPS    HB18967   2.729   6.978   6.061
  168SAPS    C218968   2.707   6.919   5.864
  168SAPS    HS18969   2.612   6.858   5.873
  168SAPS   O2118970   2.786   6.883   5.754
  168SAPS   C2118971   2.786   6.761   5.743
  168SAPS   O2218972   2.724   6.683   5.812
  168SAPS   C2218973   2.857   6.736   5.616
  168SAPS   H2R18974   2.943   6.668   5.633
  168SAPS   H2S18975   2.778   6.691   5.557
  168SAPS    C318976   2.670   7.060   5.838
  168SAPS    HX18977   2.612   7.095   5.927
  168SAPS    HY18978   2.617   7.081   5.749
  168SAPS   O3118979   2.786   7.129   5.796
  168SAPS   C3118980   2.798   7.237   5.855
  168SAPS   O3218981   2.721   7.291   5.934
  168SAPS   C3218982   2.926   7.295   5.802
  168SAPS   H2X18983   2.974   7.235   5.722
  168SAPS   H2Y18984   2.993   7.317   5.887
  168SAPS   C2318985   2.866   6.857   5.524
  168SAPS   H3R18986   2.769   6.908   5.517
  168SAPS   H3S18987   2.875   6.816   5.420
  168SAPS   C2418988   2.973   6.955   5.571
  168SAPS   H4R18989   3.064   6.909   5.601
  168SAPS   H4S18990   2.978   6.976   5.681
  168SAPS   C2518991   3.023   7.041   5.459
  168SAPS   H5R18992   3.044   7.140   5.500
  168SAPS   C2618993   3.051   7.024   5.325
  168SAPS   H6R18994   3.108   7.110   5.288
  168SAPS   C2718995   3.054   6.929   5.205
  168SAPS   H7R18996   3.066   6.818   5.187
  168SAPS   H7S18997   3.148   6.971   5.168
  168SAPS   C2818998   2.966   6.906   5.101
  168SAPS   H8R18999   2.878   6.852   5.139
  168SAPS   C2919000   3.018   6.912   4.978
  168SAPS   H9R19001   2.944   6.900   4.902
  168SAPS  C21019002   3.164   6.944   4.942
  168SAPS  H10R19003   3.173   6.871   4.865
  168SAPS  H10S19004   3.249   6.913   5.010
  168SAPS  C21119005   3.179   7.094   4.916
  168SAPS  H11R19006   3.138   7.150   5.002
  168SAPS  C21219007   3.238   7.173   4.823
  168SAPS  H12R19008   3.221   7.281   4.831
  168SAPS  C21319009   3.319   7.148   4.701
  168SAPS  H13R19010   3.371   7.057   4.723
  168SAPS  H13S19011   3.415   7.197   4.684
  168SAPS  C21419012   3.251   7.164   4.569
  168SAPS  H14R19013   3.145   7.190   4.570
  168SAPS  C21519014   3.315   7.135   4.455
  168SAPS  H15R19015   3.260   7.135   4.363
  168SAPS  C21619016   3.453   7.085   4.430
  168SAPS  H16R19017   3.501   7.050   4.524
  168SAPS  H16S19018   3.522   7.161   4.393
  168SAPS  C21719019   3.452   6.980   4.319
  168SAPS  H17R19020   3.413   7.008   4.220
  168SAPS  H17S19021   3.387   6.903   4.344
  168SAPS  C21819022   3.586   6.913   4.324
  168SAPS  H18R19023   3.617   6.867   4.418
  168SAPS  H18S19024   3.631   7.002   4.320
  168SAPS  C21919025   3.631   6.824   4.217
  168SAPS  H19R19026   3.538   6.771   4.254
  168SAPS  H19S19027   3.718   6.759   4.228
  168SAPS  C22019028   3.625   6.851   4.067
  168SAPS  H20R19029   3.644   6.774   3.989
  168SAPS  H20S19030   3.627   6.955   4.032
  168SAPS  H20T19031   3.522   6.828   4.066
  168SAPS   C3319032   2.879   7.420   5.742
  168SAPS   H3X19033   2.950   7.506   5.737
  168SAPS   H3Y19034   2.832   7.466   5.831
  168SAPS   C3419035   2.793   7.393   5.612
  168SAPS   H4X19036   2.795   7.476   5.537
  168SAPS   H4Y19037   2.689   7.375   5.643
  168SAPS   C3519038   2.830   7.310   5.494
  168SAPS   H5X19039   2.843   7.208   5.528
  168SAPS   H5Y19040   2.922   7.351   5.452
  168SAPS   C3619041   2.734   7.332   5.374
  168SAPS   H6X19042   2.746   7.435   5.334
  168SAPS   H6Y19043   2.628   7.318   5.400
  168SAPS   C3719044   2.781   7.241   5.265
  168SAPS   H7X19045   2.761   7.136   5.296
  168SAPS   H7Y19046   2.892   7.255   5.260
  168SAPS   C3819047   2.726   7.268   5.126
  168SAPS   H8X19048   2.718   7.376   5.099
  168SAPS   H8Y19049   2.626   7.222   5.119
  168SAPS   C3919050   2.821   7.209   5.023
  168SAPS   H9X19051   2.837   7.102   5.048
  168SAPS   H9Y19052   2.919   7.261   5.029
  168SAPS  C31019053   2.761   7.217   4.885
  168SAPS  H10X19054   2.741   7.323   4.859
  168SAPS  H10Y19055   2.665   7.161   4.887
  168SAPS  C31119056   2.856   7.161   4.782
  168SAPS  H11X19057   2.885   7.056   4.801
  168SAPS  H11Y19058   2.950   7.221   4.781
  168SAPS  C31219059   2.804   7.164   4.642
  168SAPS  H12X19060   2.817   7.266   4.601
  168SAPS  H12Y19061   2.697   7.137   4.625
  168SAPS  C31319062   2.893   7.063   4.573
  168SAPS  H13X19063   2.995   7.053   4.612
  168SAPS  H13Y19064   2.936   7.103   4.486
  168SAPS  C31419065   2.816   6.939   4.536
  168SAPS  H14X19066   2.706   6.959   4.524
  168SAPS  H14Y19067   2.836   6.865   4.615
  168SAPS  C31519068   2.850   6.888   4.401
  168SAPS  H15X19069   2.855   6.968   4.324
  168SAPS  H15Y19070   2.788   6.799   4.383
  168SAPS  C31619071   2.969   6.806   4.382
  168SAPS  H16X19072   2.985   6.806   4.490
  168SAPS  H16Y19073   3.039   6.890   4.389
  168SAPS  C31719074   2.985   6.659   4.271
  168SAPS  H17X19075   3.073   6.705   4.224
  168SAPS  H17Y19076   2.916   6.665   4.190
  168SAPS  C31819077   3.037   6.483   4.286
  168SAPS  H18X19078   2.985   6.412   4.351
  168SAPS  H18Y19079   3.107   6.457   4.371
  168SAPS  H18Z19080   3.134   6.440   4.258
  169SAPS     N19081   6.628   1.942   6.269
  169SAPS   HN119082   6.528   1.926   6.247
  169SAPS   HN219083   6.691   1.902   6.196
  169SAPS   HN319084   6.652   1.891   6.355
  169SAPS   C1219085   6.664   2.087   6.279
  169SAPS  H12A19086   6.625   2.135   6.191
  169SAPS   C1319087   6.613   2.161   6.404
  169SAPS  O13A19088   6.543   2.098   6.487
  169SAPS  O13B19089   6.646   2.280   6.418
  169SAPS   C1119090   6.817   2.107   6.272
  169SAPS  H11A19091   6.863   2.055   6.360
  169SAPS  H11B19092   6.842   2.215   6.280
  169SAPS     P19093   6.950   1.935   6.127
  169SAPS   O1319094   7.090   1.974   6.155
  169SAPS   O1419095   6.881   1.834   6.210
  169SAPS   O1219096   6.864   2.065   6.145
  169SAPS   O1119097   6.922   1.905   5.975
  169SAPS    C119098   6.975   1.994   5.877
  169SAPS    HA19099   7.053   2.063   5.917
  169SAPS    HB19100   7.022   1.933   5.796
  169SAPS    C219101   6.870   2.082   5.805
  169SAPS    HS19102   6.838   2.164   5.874
  169SAPS   O2119103   6.760   2.002   5.757
  169SAPS   C2119104   6.637   2.049   5.767
  169SAPS   O2219105   6.601   2.148   5.829
  169SAPS   C2219106   6.543   1.960   5.686
  169SAPS   H2R19107   6.565   1.855   5.714
  169SAPS   H2S19108   6.440   1.986   5.716
  169SAPS    C319109   6.947   2.144   5.685
  169SAPS    HX19110   6.996   2.064   5.625
  169SAPS    HY19111   7.030   2.207   5.724
  169SAPS   O3119112   6.860   2.219   5.603
  169SAPS   C3119113   6.819   2.331   5.666
  169SAPS   O3219114   6.864   2.373   5.769
  169SAPS   C3219115   6.717   2.403   5.589
  169SAPS   H2X19116   6.748   2.509   5.580
  169SAPS   H2Y19117   6.617   2.402   5.637
  169SAPS   C2319118   6.561   1.989   5.535
  169SAPS   H3R19119   6.670   1.986   5.508
  169SAPS   H3S19120   6.523   2.091   5.515
  169SAPS   C2419121   6.481   1.900   5.440
  169SAPS   H4R19122   6.502   1.934   5.336
  169SAPS   H4S19123   6.372   1.906   5.456
  169SAPS   C2519124   6.537   1.765   5.470
  169SAPS   H5R19125   6.490   1.712   5.554
  169SAPS   C2619126   6.630   1.704   5.397
  169SAPS   H6R19127   6.659   1.602   5.424
  169SAPS   C2719128   6.693   1.755   5.271
  169SAPS   H7R19129   6.633   1.831   5.214
  169SAPS   H7S19130   6.702   1.665   5.209
  169SAPS   C2819131   6.834   1.790   5.291
  169SAPS   H8R19132   6.885   1.712   5.349
  169SAPS   C2919133   6.900   1.897   5.244
  169SAPS   H9R19134   7.008   1.901   5.264
  169SAPS  C21019135   6.849   2.011   5.158
  169SAPS  H10R19136   6.927   2.090   5.153
  169SAPS  H10S19137   6.761   2.060   5.206
  169SAPS  C21119138   6.811   1.970   5.019
  169SAPS  H11R19139   6.712   1.921   5.014
  169SAPS  C21219140   6.884   1.980   4.906
  169SAPS  H12R19141   6.839   1.939   4.815
  169SAPS  C21319142   7.025   2.035   4.885
  169SAPS  H13R19143   7.051   2.114   4.959
  169SAPS  H13S19144   7.031   2.089   4.787
  169SAPS  C21419145   7.130   1.927   4.891
  169SAPS  H14R19146   7.197   1.932   4.979
  169SAPS  C21519147   7.148   1.826   4.804
  169SAPS  H15R19148   7.220   1.746   4.828
  169SAPS  C21619149   7.066   1.803   4.680
  169SAPS  H16R19150   7.002   1.890   4.656
  169SAPS  H16S19151   6.996   1.718   4.697
  169SAPS  C21719152   7.150   1.770   4.558
  169SAPS  H17R19153   7.203   1.672   4.566
  169SAPS  H17S19154   7.229   1.847   4.537
  169SAPS  C21819155   7.061   1.766   4.437
  169SAPS  H18R19156   7.033   1.871   4.412
  169SAPS  H18S19157   6.966   1.709   4.450
  169SAPS  C21919158   7.143   1.714   4.324
  169SAPS  H19R19159   7.172   1.606   4.328
  169SAPS  H19S19160   7.227   1.780   4.294
  169SAPS  C22019161   7.060   1.723   4.211
  169SAPS  H20R19162   7.021   1.825   4.185
  169SAPS  H20S19163   6.970   1.674   4.225
  169SAPS  H20T19164   7.111   1.664   4.131
  169SAPS   C3319165   6.711   2.330   5.461
  169SAPS   H3X19166   6.648   2.241   5.471
  169SAPS   H3Y19167   6.805   2.314   5.401
  169SAPS   C3419168   6.641   2.414   5.380
  169SAPS   H4X19169   6.720   2.490   5.342
  169SAPS   H4Y19170   6.538   2.445   5.417
  169SAPS   C3519171   6.609   2.347   5.264
  169SAPS   H5X19172   6.691   2.359   5.190
  169SAPS   H5Y19173   6.574   2.451   5.233
  169SAPS   C3619174   6.516   2.198   5.265
  169SAPS   H6X19175   6.453   2.200   5.353
  169SAPS   H6Y19176   6.601   2.142   5.291
  169SAPS   C3719177   6.422   2.106   5.140
  169SAPS   H7X19178   6.346   2.153   5.076
  169SAPS   H7Y19179   6.336   2.049   5.175
  169SAPS   C3819180   6.438   2.113   4.984
  169SAPS   H8X19181   6.538   2.077   4.984
  169SAPS   H8Y19182   6.414   2.210   4.920
  169SAPS   C3919183   6.355   2.088   4.874
  169SAPS   H9X19184   6.255   2.143   4.885
  169SAPS   H9Y19185   6.361   1.991   4.920
  169SAPS  C31019186   6.459   2.093   4.756
  169SAPS  H10X19187   6.387   2.028   4.703
  169SAPS  H10Y19188   6.541   2.029   4.784
  169SAPS  C31119189   6.525   2.225   4.682
  169SAPS  H11X19190   6.588   2.297   4.724
  169SAPS  H11Y19191   6.454   2.305   4.674
  169SAPS  C31219192   6.621   2.223   4.560
  169SAPS  H12X19193   6.615   2.302   4.486
  169SAPS  H12Y19194   6.624   2.137   4.492
  169SAPS  C31319195   6.754   2.195   4.604
  169SAPS  H13X19196   6.739   2.101   4.664
  169SAPS  H13Y19197   6.773   2.287   4.664
  169SAPS  C31419198   6.827   2.176   4.474
  169SAPS  H14X19199   6.796   2.256   4.402
  169SAPS  H14Y19200   6.803   2.078   4.424
  169SAPS  C31519201   6.970   2.183   4.513
  169SAPS  H15X19202   6.992   2.089   4.567
  169SAPS  H15Y19203   6.978   2.269   4.583
  169SAPS  C31619204   7.054   2.205   4.390
  169SAPS  H16X19205   7.014   2.142   4.308
  169SAPS  H16Y19206   7.157   2.170   4.413
  169SAPS  C31719207   7.054   2.355   4.357
  169SAPS  H17X19208   7.123   2.409   4.425
  169SAPS  H17Y19209   6.951   2.396   4.372
  169SAPS  C31819210   7.096   2.389   4.217
  169SAPS  H18X19211   7.094   2.500   4.201
  169SAPS  H18Y19212   7.022   2.341   4.148
  169SAPS  H18Z19213   7.198   2.355   4.192
  170SAPS     N19214   6.399   6.012   6.447
  170SAPS   HN119215   6.360   6.063   6.529
  170SAPS   HN219216   6.333   6.010   6.366
  170SAPS   HN319217   6.420   5.916   6.478
  170SAPS   C1219218   6.526   6.073   6.399
  170SAPS  H12A19219   6.513   6.180   6.397
  170SAPS   C1319220   6.648   6.049   6.491
  170SAPS  O13A19221   6.630   5.998   6.605
  170SAPS  O13B19222   6.754   6.104   6.454
  170SAPS   C1119223   6.558   6.023   6.255
  170SAPS  H11A19224   6.568   5.912   6.259
  170SAPS  H11B19225   6.657   6.064   6.222
  170SAPS     P19226   6.451   5.989   6.020
  170SAPS   O1319227   6.587   5.953   5.978
  170SAPS   O1419228   6.353   5.878   6.034
  170SAPS   O1219229   6.457   6.064   6.162
  170SAPS   O1119230   6.397   6.103   5.921
  170SAPS    C119231   6.486   6.208   5.878
  170SAPS    HA19232   6.549   6.244   5.962
  170SAPS    HB19233   6.552   6.167   5.797
  170SAPS    C219234   6.411   6.337   5.829
  170SAPS    HS19235   6.350   6.370   5.916
  170SAPS   O2119236   6.327   6.301   5.717
  170SAPS   C2119237   6.234   6.390   5.693
  170SAPS   O2219238   6.218   6.494   5.755
  170SAPS   C2219239   6.161   6.344   5.567
  170SAPS   H2R19240   6.179   6.237   5.552
  170SAPS   H2S19241   6.055   6.360   5.585
  170SAPS    C319242   6.505   6.457   5.789
  170SAPS    HX19243   6.561   6.485   5.881
  170SAPS    HY19244   6.444   6.547   5.764
  170SAPS   O3119245   6.598   6.422   5.685
  170SAPS   C3119246   6.584   6.479   5.568
  170SAPS   O3219247   6.519   6.578   5.542
  170SAPS   C3219248   6.650   6.397   5.462
  170SAPS   H2X19249   6.753   6.428   5.455
  170SAPS   H2Y19250   6.599   6.421   5.366
  170SAPS   C2319251   6.215   6.425   5.446
  170SAPS   H3R19252   6.324   6.431   5.433
  170SAPS   H3S19253   6.217   6.514   5.497
  170SAPS   C2419254   6.128   6.457   5.327
  170SAPS   H4R19255   6.093   6.551   5.277
  170SAPS   H4S19256   6.037   6.415   5.350
  170SAPS   C2519257   6.204   6.372   5.248
  170SAPS   H5R19258   6.228   6.275   5.289
  170SAPS   C2619259   6.197   6.389   5.124
  170SAPS   H6R19260   6.245   6.300   5.079
  170SAPS   C2719261   6.119   6.493   5.033
  170SAPS   H7R19262   6.048   6.563   5.078
  170SAPS   H7S19263   6.098   6.485   4.924
  170SAPS   C2819264   6.248   6.549   5.032
  170SAPS   H8R19265   6.238   6.658   5.052
  170SAPS   C2919266   6.351   6.517   4.956
  170SAPS   H9R19267   6.416   6.579   5.011
  170SAPS  C21019268   6.413   6.417   4.862
  170SAPS  H10R19269   6.412   6.438   4.748
  170SAPS  H10S19270   6.333   6.373   4.889
  170SAPS  C21119271   6.509   6.322   4.904
  170SAPS  H11R19272   6.524   6.337   5.011
  170SAPS  C21219273   6.572   6.231   4.835
  170SAPS  H12R19274   6.668   6.209   4.881
  170SAPS  C21319275   6.551   6.205   4.689
  170SAPS  H13R19276   6.460   6.253   4.648
  170SAPS  H13S19277   6.530   6.098   4.694
  170SAPS  C21419278   6.660   6.227   4.591
  170SAPS  H14R19279   6.738   6.155   4.605
  170SAPS  C21519280   6.669   6.293   4.475
  170SAPS  H15R19281   6.765   6.299   4.421
  170SAPS  C21619282   6.565   6.369   4.407
  170SAPS  H16R19283   6.470   6.336   4.448
  170SAPS  H16S19284   6.571   6.335   4.301
  170SAPS  C21719285   6.589   6.519   4.425
  170SAPS  H17R19286   6.680   6.547   4.367
  170SAPS  H17S19287   6.598   6.554   4.529
  170SAPS  C21819288   6.475   6.605   4.380
  170SAPS  H18R19289   6.465   6.709   4.415
  170SAPS  H18S19290   6.377   6.552   4.371
  170SAPS  C21919291   6.507   6.633   4.243
  170SAPS  H19R19292   6.407   6.682   4.226
  170SAPS  H19S19293   6.522   6.530   4.201
  170SAPS  C22019294   6.602   6.740   4.194
  170SAPS  H20R19295   6.563   6.795   4.104
  170SAPS  H20S19296   6.694   6.691   4.156
  170SAPS  H20T19297   6.605   6.825   4.261
  170SAPS   C3319298   6.652   6.248   5.494
  170SAPS   H3X19299   6.549   6.223   5.527
  170SAPS   H3Y19300   6.721   6.230   5.580
  170SAPS   C3419301   6.696   6.166   5.373
  170SAPS   H4X19302   6.807   6.167   5.369
  170SAPS   H4Y19303   6.658   6.216   5.281
  170SAPS   C3519304   6.653   6.019   5.372
  170SAPS   H5X19305   6.710   5.964   5.452
  170SAPS   H5Y19306   6.686   5.979   5.273
  170SAPS   C3619307   6.504   5.982   5.379
  170SAPS   H6X19308   6.465   5.993   5.483
  170SAPS   H6Y19309   6.499   5.873   5.353
  170SAPS   C3719310   6.409   6.055   5.283
  170SAPS   H7X19311   6.408   6.164   5.305
  170SAPS   H7Y19312   6.307   6.014   5.302
  170SAPS   C3819313   6.441   6.040   5.134
  170SAPS   H8X19314   6.546   6.065   5.109
  170SAPS   H8Y19315   6.375   6.113   5.080
  170SAPS   C3919316   6.413   5.902   5.079
  170SAPS   H9X19317   6.311   5.882   5.112
  170SAPS   H9Y19318   6.478   5.821   5.119
  170SAPS  C31019319   6.419   5.903   4.929
  170SAPS  H10X19320   6.443   5.808   4.884
  170SAPS  H10Y19321   6.494   5.977   4.894
  170SAPS  C31119322   6.287   5.944   4.877
  170SAPS  H11X19323   6.288   6.052   4.904
  170SAPS  H11Y19324   6.196   5.893   4.912
  170SAPS  C31219325   6.282   5.931   4.727
  170SAPS  H12X19326   6.212   5.859   4.691
  170SAPS  H12Y19327   6.379   5.949   4.672
  170SAPS  C31319328   6.164   5.990   4.654
  170SAPS  H13X19329   6.231   6.048   4.718
  170SAPS  H13Y19330   6.073   6.015   4.713
  170SAPS  C31419331   6.176   6.030   4.492
  170SAPS  H14X19332   6.118   5.943   4.464
  170SAPS  H14Y19333   6.282   6.027   4.475
  170SAPS  C31519334   6.151   6.164   4.382
  170SAPS  H15X19335   6.046   6.123   4.412
  170SAPS  H15Y19336   6.163   6.163   4.282
  170SAPS  C31619337   6.206   6.359   4.376
  170SAPS  H16X19338   6.299   6.388   4.411
  170SAPS  H16Y19339   6.155   6.402   4.456
  170SAPS  C31719340   6.131   6.502   4.415
  170SAPS  H17X19341   6.016   6.523   4.444
  170SAPS  H17Y19342   6.157   6.538   4.314
  170SAPS  C31819343   6.180   6.556   4.545
  170SAPS  H18X19344   6.150   6.630   4.469
  170SAPS  H18Y19345   6.280   6.562   4.580
  170SAPS  H18Z19346   6.098   6.536   4.620
  171SAPS     N19347   0.150   6.068   6.292
  171SAPS   HN119348   0.165   5.999   6.214
  171SAPS   HN219349   0.167   6.162   6.254
  171SAPS   HN319350   0.230   6.049   6.357
  171SAPS   C1219351   0.017   6.058   6.358
  171SAPS  H12A19352   0.022   5.967   6.416
  171SAPS   C1319353  -0.040   6.178   6.444
  171SAPS  O13A19354   0.026   6.285   6.442
  171SAPS  O13B19355  -0.093   6.140   6.551
  171SAPS   C1119356  -0.090   6.055   6.252
  171SAPS  H11A19357  -0.072   6.138   6.179
  171SAPS  H11B19358  -0.190   6.071   6.299
  171SAPS     P19359  -0.012   5.890   6.069
  171SAPS   O1319360   0.087   5.785   6.105
  171SAPS   O1419361  -0.106   5.874   5.962
  171SAPS   O1219362  -0.091   5.927   6.197
  171SAPS   O1119363   0.064   6.021   6.035
  171SAPS    C119364   0.196   6.017   5.985
  171SAPS    HA19365   0.262   5.998   6.072
  171SAPS    HB19366   0.215   5.936   5.911
  171SAPS    C219367   0.227   6.156   5.924
  171SAPS    HS19368   0.205   6.234   6.001
  171SAPS   O2119369   0.162   6.175   5.799
  171SAPS   C2119370   0.053   6.239   5.806
  171SAPS   O2219371   0.005   6.292   5.906
  171SAPS   C2219372  -0.001   6.255   5.668
  171SAPS   H2R19373   0.080   6.282   5.597
  171SAPS   H2S19374  -0.054   6.165   5.634
  171SAPS    C319375   0.372   6.165   5.897
  171SAPS    HX19376   0.411   6.119   5.991
  171SAPS    HY19377   0.420   6.264   5.888
  171SAPS   O3119378   0.396   6.082   5.782
  171SAPS   C3119379   0.400   6.146   5.669
  171SAPS   O3219380   0.386   6.266   5.650
  171SAPS   C3219381   0.459   6.059   5.566
  171SAPS   H2X19382   0.559   6.019   5.574
  171SAPS   H2Y19383   0.486   6.133   5.489
  171SAPS   C2319384  -0.102   6.364   5.676
  171SAPS   H3R19385  -0.069   6.459   5.727
  171SAPS   H3S19386  -0.194   6.332   5.730
  171SAPS   C2419387  -0.142   6.391   5.537
  171SAPS   H4R19388  -0.232   6.443   5.574
  171SAPS   H4S19389  -0.176   6.317   5.465
  171SAPS   C2519390  -0.044   6.476   5.472
  171SAPS   H5R19391  -0.060   6.577   5.486
  171SAPS   C2619392   0.015   6.469   5.359
  171SAPS   H6R19393   0.086   6.544   5.335
  171SAPS   C2719394   0.009   6.377   5.252
  171SAPS   H7R19395   0.021   6.440   5.161
  171SAPS   H7S19396  -0.088   6.329   5.261
  171SAPS   C2819397   0.126   6.307   5.310
  171SAPS   H8R19398   0.111   6.252   5.402
  171SAPS   C2919399   0.245   6.319   5.260
  171SAPS   H9R19400   0.324   6.267   5.317
  171SAPS  C21019401   0.278   6.394   5.140
  171SAPS  H10R19402   0.380   6.438   5.168
  171SAPS  H10S19403   0.214   6.474   5.100
  171SAPS  C21119404   0.312   6.321   5.019
  171SAPS  H11R19405   0.399   6.288   5.073
  171SAPS  C21219406   0.265   6.236   4.928
  171SAPS  H12R19407   0.321   6.155   4.886
  171SAPS  C21319408   0.117   6.250   4.902
  171SAPS  H13R19409   0.072   6.224   5.001
  171SAPS  H13S19410   0.094   6.169   4.829
  171SAPS  C21419411   0.096   6.385   4.853
  171SAPS  H14R19412   0.077   6.457   4.933
  171SAPS  C21519413   0.121   6.430   4.728
  171SAPS  H15R19414   0.115   6.537   4.709
  171SAPS  C21619415   0.172   6.353   4.612
  171SAPS  H16R19416   0.100   6.367   4.528
  171SAPS  H16S19417   0.174   6.245   4.635
  171SAPS  C21719418   0.315   6.396   4.575
  171SAPS  H17R19419   0.384   6.414   4.658
  171SAPS  H17S19420   0.312   6.494   4.527
  171SAPS  C21819421   0.380   6.304   4.475
  171SAPS  H18R19422   0.382   6.195   4.491
  171SAPS  H18S19423   0.483   6.342   4.450
  171SAPS  C21919424   0.304   6.320   4.353
  171SAPS  H19R19425   0.280   6.427   4.354
  171SAPS  H19S19426   0.205   6.269   4.342
  171SAPS  C22019427   0.403   6.282   4.249
  171SAPS  H20R19428   0.412   6.173   4.234
  171SAPS  H20S19429   0.486   6.343   4.212
  171SAPS  H20T19430   0.343   6.316   4.169
  171SAPS   C3319431   0.392   5.926   5.545
  171SAPS   H3X19432   0.382   5.864   5.634
  171SAPS   H3Y19433   0.446   5.859   5.479
  171SAPS   C3419434   0.263   5.948   5.485
  171SAPS   H4X19435   0.261   5.949   5.374
  171SAPS   H4Y19436   0.220   6.039   5.531
  171SAPS   C3519437   0.181   5.835   5.515
  171SAPS   H5X19438   0.196   5.793   5.618
  171SAPS   H5Y19439   0.209   5.753   5.444
  171SAPS   C3619440   0.046   5.906   5.506
  171SAPS   H6X19441   0.002   5.956   5.591
  171SAPS   H6Y19442   0.002   5.816   5.538
  171SAPS   C3719443   0.004   5.974   5.369
  171SAPS   H7X19444   0.054   5.920   5.284
  171SAPS   H7Y19445   0.054   6.070   5.361
  171SAPS   C3819446  -0.151   6.001   5.346
  171SAPS   H8X19447  -0.201   6.036   5.437
  171SAPS   H8Y19448  -0.222   5.918   5.342
  171SAPS   C3919449  -0.191   6.064   5.209
  171SAPS   H9X19450  -0.105   6.120   5.168
  171SAPS   H9Y19451  -0.272   6.134   5.240
  171SAPS  C31019452  -0.254   5.974   5.098
  171SAPS  H10X19453  -0.351   5.931   5.131
  171SAPS  H10Y19454  -0.191   5.892   5.061
  171SAPS  C31119455  -0.262   6.038   4.961
  171SAPS  H11X19456  -0.273   5.963   4.879
  171SAPS  H11Y19457  -0.162   6.085   4.942
  171SAPS  C31219458  -0.376   6.137   4.965
  171SAPS  H12X19459  -0.370   6.194   5.060
  171SAPS  H12Y19460  -0.474   6.084   4.966
  171SAPS  C31319461  -0.361   6.237   4.852
  171SAPS  H13X19462  -0.256   6.274   4.850
  171SAPS  H13Y19463  -0.430   6.322   4.872
  171SAPS  C31419464  -0.397   6.173   4.720
  171SAPS  H14X19465  -0.498   6.137   4.747
  171SAPS  H14Y19466  -0.344   6.080   4.692
  171SAPS  C31519467  -0.389   6.270   4.600
  171SAPS  H15X19468  -0.447   6.364   4.620
  171SAPS  H15Y19469  -0.436   6.216   4.515
  171SAPS  C31619470  -0.251   6.297   4.541
  171SAPS  H16X19471  -0.196   6.201   4.539
  171SAPS  H16Y19472  -0.198   6.365   4.611
  171SAPS  C31719473  -0.256   6.361   4.400
  171SAPS  H17X19474  -0.166   6.426   4.392
  171SAPS  H17Y19475  -0.344   6.430   4.394
  171SAPS  C31819476  -0.262   6.267   4.278
  171SAPS  H18X19477  -0.345   6.194   4.285
  171SAPS  H18Y19478  -0.166   6.213   4.261
  171SAPS  H18Z19479  -0.280   6.328   4.186
  172SAPS     N19480   6.997   6.669   6.489
  172SAPS   HN119481   6.911   6.616   6.505
  172SAPS   HN219482   7.074   6.605   6.463
  172SAPS   HN319483   7.032   6.724   6.571
  172SAPS   C1219484   6.976   6.764   6.377
  172SAPS  H12A19485   6.900   6.835   6.406
  172SAPS   C1319486   7.100   6.844   6.349
  172SAPS  O13A19487   7.208   6.810   6.405
  172SAPS  O13B19488   7.087   6.938   6.270
  172SAPS   C1119489   6.938   6.692   6.245
  172SAPS  H11A19490   7.023   6.626   6.217
  172SAPS  H11B19491   6.927   6.767   6.162
  172SAPS     P19492   6.745   6.558   6.136
  172SAPS   O1319493   6.844   6.491   6.049
  172SAPS   O1419494   6.624   6.485   6.178
  172SAPS   O1219495   6.818   6.617   6.265
  172SAPS   O1119496   6.706   6.687   6.056
  172SAPS    C119497   6.633   6.796   6.110
  172SAPS    HA19498   6.532   6.760   6.139
  172SAPS    HB19499   6.686   6.835   6.199
  172SAPS    C219500   6.621   6.910   6.006
  172SAPS    HS19501   6.541   6.979   6.038
  172SAPS   O2119502   6.586   6.850   5.880
  172SAPS   C2119503   6.559   6.936   5.788
  172SAPS   O2219504   6.559   7.058   5.804
  172SAPS   C2219505   6.529   6.862   5.659
  172SAPS   H2R19506   6.504   6.757   5.673
  172SAPS   H2S19507   6.429   6.890   5.640
  172SAPS    C319508   6.753   6.994   5.995
  172SAPS    HX19509   6.785   7.024   6.096
  172SAPS    HY19510   6.738   7.089   5.939
  172SAPS   O3119511   6.856   6.915   5.940
  172SAPS   C3119512   6.923   6.961   5.840
  172SAPS   O3219513   6.908   7.067   5.781
  172SAPS   C3219514   7.019   6.854   5.803
  172SAPS   H2X19515   6.971   6.754   5.810
  172SAPS   H2Y19516   7.104   6.857   5.875
  172SAPS   C2319517   6.639   6.894   5.554
  172SAPS   H3R19518   6.725   6.835   5.594
  172SAPS   H3S19519   6.669   7.002   5.555
  172SAPS   C2419520   6.631   6.834   5.413
  172SAPS   H4R19521   6.582   6.737   5.412
  172SAPS   H4S19522   6.721   6.842   5.352
  172SAPS   C2519523   6.533   6.888   5.330
  172SAPS   H5R19524   6.454   6.903   5.401
  172SAPS   C2619525   6.538   6.964   5.224
  172SAPS   H6R19526   6.444   7.004   5.208
  172SAPS   C2719527   6.630   7.036   5.139
  172SAPS   H7R19528   6.582   7.043   5.039
  172SAPS   H7S19529   6.708   6.972   5.153
  172SAPS   C2819530   6.674   7.172   5.176
  172SAPS   H8R19531   6.595   7.228   5.149
  172SAPS   C2919532   6.759   7.235   5.256
  172SAPS   H9R19533   6.754   7.344   5.272
  172SAPS  C21019534   6.848   7.156   5.341
  172SAPS  H10R19535   6.821   7.049   5.324
  172SAPS  H10S19536   6.834   7.177   5.449
  172SAPS  C21119537   6.981   7.199   5.289
  172SAPS  H11R19538   6.999   7.307   5.282
  172SAPS  C21219539   7.080   7.114   5.266
  172SAPS  H12R19540   7.169   7.146   5.209
  172SAPS  C21319541   7.059   6.970   5.294
  172SAPS  H13R19542   6.962   6.931   5.326
  172SAPS  H13S19543   7.134   6.939   5.368
  172SAPS  C21419544   7.083   6.895   5.174
  172SAPS  H14R19545   7.181   6.869   5.198
  172SAPS  C21519546   7.026   6.851   5.060
  172SAPS  H15R19547   7.077   6.797   4.980
  172SAPS  C21619548   6.898   6.862   5.007
  172SAPS  H16R19549   6.841   6.895   5.088
  172SAPS  H16S19550   6.869   6.766   4.963
  172SAPS  C21719551   6.895   6.956   4.899
  172SAPS  H17R19552   6.937   7.056   4.929
  172SAPS  H17S19553   6.788   6.937   4.869
  172SAPS  C21819554   6.951   6.935   4.765
  172SAPS  H18R19555   6.938   6.841   4.711
  172SAPS  H18S19556   7.059   6.966   4.761
  172SAPS  C21919557   6.856   7.028   4.695
  172SAPS  H19R19558   6.849   7.111   4.774
  172SAPS  H19S19559   6.757   7.060   4.674
  172SAPS  C22019560   6.870   7.001   4.545
  172SAPS  H20R19561   6.817   6.919   4.500
  172SAPS  H20S19562   6.970   6.954   4.536
  172SAPS  H20T19563   6.866   7.088   4.478
  172SAPS   C3319564   7.051   6.891   5.661
  172SAPS   H3X19565   7.098   6.991   5.648
  172SAPS   H3Y19566   6.964   6.877   5.593
  172SAPS   C3419567   7.154   6.804   5.614
  172SAPS   H4X19568   7.234   6.798   5.692
  172SAPS   H4Y19569   7.197   6.844   5.521
  172SAPS   C3519570   7.098   6.672   5.586
  172SAPS   H5X19571   7.030   6.628   5.660
  172SAPS   H5Y19572   7.183   6.617   5.625
  172SAPS   C3619573   7.050   6.657   5.439
  172SAPS   H6X19574   7.126   6.659   5.359
  172SAPS   H6Y19575   6.987   6.746   5.420
  172SAPS   C3719576   6.964   6.533   5.422
  172SAPS   H7X19577   6.899   6.530   5.510
  172SAPS   H7Y19578   7.013   6.436   5.423
  172SAPS   C3819579   6.914   6.502   5.284
  172SAPS   H8X19580   6.885   6.393   5.286
  172SAPS   H8Y19581   6.996   6.512   5.209
  172SAPS   C3919582   6.796   6.589   5.254
  172SAPS   H9X19583   6.827   6.695   5.250
  172SAPS   H9Y19584   6.724   6.588   5.337
  172SAPS  C31019585   6.734   6.538   5.126
  172SAPS  H10X19586   6.695   6.434   5.146
  172SAPS  H10Y19587   6.813   6.527   5.049
  172SAPS  C31119588   6.626   6.632   5.069
  172SAPS  H11X19589   6.646   6.738   5.085
  172SAPS  H11Y19590   6.540   6.606   5.136
  172SAPS  C31219591   6.611   6.619   4.912
  172SAPS  H12X19592   6.614   6.514   4.935
  172SAPS  H12Y19593   6.699   6.613   4.848
  172SAPS  C31319594   6.486   6.679   4.824
  172SAPS  H13X19595   6.391   6.701   4.879
  172SAPS  H13Y19596   6.447   6.625   4.735
  172SAPS  C31419597   6.456   6.814   4.821
  172SAPS  H14X19598   6.480   6.845   4.929
  172SAPS  H14Y19599   6.348   6.839   4.782
  172SAPS  C31519600   6.566   6.849   4.738
  172SAPS  H15X19601   6.559   6.775   4.649
  172SAPS  H15Y19602   6.652   6.820   4.799
  172SAPS  C31619603   6.558   6.998   4.705
  172SAPS  H16X19604   6.512   6.936   4.643
  172SAPS  H16Y19605   6.515   7.055   4.789
  172SAPS  C31719606   6.480   7.037   4.572
  172SAPS  H17X19607   6.380   6.979   4.552
  172SAPS  H17Y19608   6.536   7.014   4.479
  172SAPS  C31819609   6.468   7.184   4.560
  172SAPS  H18X19610   6.488   7.248   4.647
  172SAPS  H18Y19611   6.373   7.212   4.591
  172SAPS  H18Z19612   6.427   7.210   4.462
  173SAPS     N19613   4.989   3.779   2.440
  173SAPS   HN119614   5.017   3.693   2.491
  173SAPS   HN219615   5.039   3.859   2.483
  173SAPS   HN319616   4.886   3.791   2.444
  173SAPS   C1219617   5.026   3.764   2.295
  173SAPS  H12A19618   4.949   3.811   2.236
  173SAPS   C1319619   5.157   3.829   2.253
  173SAPS  O13A19620   5.231   3.876   2.345
  173SAPS  O13B19621   5.185   3.832   2.130
  173SAPS   C1119622   5.037   3.614   2.255
  173SAPS  H11A19623   5.122   3.568   2.310
  173SAPS  H11B19624   5.063   3.610   2.146
  173SAPS     P19625   4.790   3.561   2.196
  173SAPS   O1319626   4.812   3.666   2.095
  173SAPS   O1419627   4.727   3.433   2.156
  173SAPS   O1219628   4.920   3.538   2.283
  173SAPS   O1119629   4.705   3.626   2.312
  173SAPS    C119630   4.686   3.546   2.431
  173SAPS    HA19631   4.653   3.443   2.407
  173SAPS    HB19632   4.776   3.547   2.496
  173SAPS    C219633   4.572   3.605   2.509
  173SAPS    HS19634   4.497   3.612   2.432
  173SAPS   O2119635   4.629   3.728   2.548
  173SAPS   C2119636   4.543   3.802   2.591
  173SAPS   O2219637   4.425   3.780   2.610
  173SAPS   C2219638   4.620   3.931   2.586
  173SAPS   H2R19639   4.579   4.022   2.540
  173SAPS   H2S19640   4.543   3.958   2.641
  173SAPS    C319641   4.511   3.530   2.630
  173SAPS    HX19642   4.479   3.431   2.595
  173SAPS    HY19643   4.418   3.574   2.674
  173SAPS   O3119644   4.610   3.537   2.731
  173SAPS   C3119645   4.632   3.426   2.791
  173SAPS   O3219646   4.574   3.320   2.780
  173SAPS   C3219647   4.742   3.452   2.888
  173SAPS   H2X19648   4.705   3.447   2.991
  173SAPS   H2Y19649   4.795   3.546   2.867
  173SAPS   C2319650   4.738   3.933   2.689
  173SAPS   H3R19651   4.806   3.868   2.633
  173SAPS   H3S19652   4.708   3.884   2.785
  173SAPS   C2419653   4.804   4.070   2.724
  173SAPS   H4R19654   4.739   4.152   2.756
  173SAPS   H4S19655   4.800   4.137   2.645
  173SAPS   C2519656   4.940   4.083   2.789
  173SAPS   H5R19657   5.020   4.074   2.716
  173SAPS   C2619658   4.977   4.097   2.919
  173SAPS   H6R19659   5.081   4.104   2.948
  173SAPS   C2719660   4.899   4.106   3.045
  173SAPS   H7R19661   4.930   4.046   3.134
  173SAPS   H7S19662   4.836   4.024   3.006
  173SAPS   C2819663   4.839   4.248   3.077
  173SAPS   H8R19664   4.805   4.303   2.991
  173SAPS   C2919665   4.776   4.289   3.188
  173SAPS   H9R19666   4.688   4.357   3.198
  173SAPS  C21019667   4.761   4.195   3.287
  173SAPS  H10R19668   4.777   4.099   3.240
  173SAPS  H10S19669   4.653   4.188   3.248
  173SAPS  C21119670   4.786   4.200   3.448
  173SAPS  H11R19671   4.818   4.305   3.433
  173SAPS  C21219672   4.720   4.137   3.582
  173SAPS  H12R19673   4.701   4.203   3.667
  173SAPS  C21319674   4.593   4.031   3.627
  173SAPS  H13R19675   4.616   3.923   3.616
  173SAPS  H13S19676   4.500   4.031   3.564
  173SAPS  C21419677   4.478   4.037   3.721
  173SAPS  H14R19678   4.387   4.092   3.704
  173SAPS  C21519679   4.496   4.033   3.843
  173SAPS  H15R19680   4.434   4.075   3.918
  173SAPS  C21619681   4.616   4.023   3.890
  173SAPS  H16R19682   4.627   4.128   3.901
  173SAPS  H16S19683   4.685   3.993   3.812
  173SAPS  C21719684   4.643   3.941   4.010
  173SAPS  H17R19685   4.748   3.915   4.017
  173SAPS  H17S19686   4.620   3.864   3.938
  173SAPS  C21819687   4.612   3.958   4.171
  173SAPS  H18R19688   4.519   4.013   4.189
  173SAPS  H18S19689   4.702   3.994   4.229
  173SAPS  C21919690   4.585   3.873   4.278
  173SAPS  H19R19691   4.659   3.802   4.293
  173SAPS  H19S19692   4.482   3.842   4.254
  173SAPS  C22019693   4.575   3.922   4.394
  173SAPS  H20R19694   4.652   3.993   4.417
  173SAPS  H20S19695   4.565   3.834   4.462
  173SAPS  H20T19696   4.482   3.977   4.379
  173SAPS   C3319697   4.832   3.338   2.872
  173SAPS   H3X19698   4.769   3.246   2.865
  173SAPS   H3Y19699   4.892   3.317   2.963
  173SAPS   C3419700   4.923   3.372   2.754
  173SAPS   H4X19701   4.881   3.355   2.653
  173SAPS   H4Y19702   4.989   3.288   2.778
  173SAPS   C3519703   5.000   3.506   2.758
  173SAPS   H5X19704   4.943   3.589   2.717
  173SAPS   H5Y19705   5.092   3.510   2.695
  173SAPS   C3619706   5.039   3.544   2.899
  173SAPS   H6X19707   5.096   3.457   2.909
  173SAPS   H6Y19708   4.976   3.515   2.984
  173SAPS   C3719709   5.110   3.681   2.902
  173SAPS   H7X19710   5.023   3.739   2.869
  173SAPS   H7Y19711   5.192   3.683   2.827
  173SAPS   C3819712   5.160   3.745   3.035
  173SAPS   H8X19713   5.188   3.850   3.020
  173SAPS   H8Y19714   5.262   3.720   3.070
  173SAPS   C3919715   5.061   3.718   3.148
  173SAPS   H9X19716   5.056   3.611   3.179
  173SAPS   H9Y19717   4.961   3.742   3.108
  173SAPS  C31019718   5.096   3.804   3.268
  173SAPS  H10X19719   5.091   3.910   3.236
  173SAPS  H10Y19720   5.200   3.785   3.303
  173SAPS  C31119721   5.001   3.779   3.384
  173SAPS  H11X19722   4.978   3.670   3.391
  173SAPS  H11Y19723   4.907   3.834   3.363
  173SAPS  C31219724   5.061   3.813   3.519
  173SAPS  H12X19725   5.113   3.913   3.517
  173SAPS  H12Y19726   5.135   3.737   3.549
  173SAPS  C31319727   4.952   3.824   3.624
  173SAPS  H13X19728   4.881   3.897   3.577
  173SAPS  H13Y19729   4.999   3.862   3.718
  173SAPS  C31419730   4.852   3.715   3.654
  173SAPS  H14X19731   4.799   3.692   3.560
  173SAPS  H14Y19732   4.778   3.758   3.726
  173SAPS  C31519733   4.916   3.590   3.710
  173SAPS  H15X19734   4.974   3.539   3.630
  173SAPS  H15Y19735   4.836   3.522   3.745
  173SAPS  C31619736   5.019   3.619   3.816
  173SAPS  H16X19737   5.109   3.674   3.782
  173SAPS  H16Y19738   5.042   3.523   3.866
  173SAPS  C31719739   4.971   3.697   3.930
  173SAPS  H17X19740   4.888   3.623   3.945
  173SAPS  H17Y19741   4.929   3.797   3.906
  173SAPS  C31819742   5.075   3.700   4.040
  173SAPS  H18X19743   5.065   3.772   4.115
  173SAPS  H18Y19744   5.165   3.758   4.029
  173SAPS  H18Z19745   5.052   3.634   4.123
  174SAPS     N19746   1.713   3.077   2.096
  174SAPS   HN119747   1.792   3.145   2.097
  174SAPS   HN219748   1.734   2.989   2.046
  174SAPS   HN319749   1.634   3.128   2.052
  174SAPS   C1219750   1.680   3.044   2.238
  174SAPS  H12A19751   1.745   2.964   2.272
  174SAPS   C1319752   1.703   3.164   2.333
  174SAPS  O13A19753   1.752   3.268   2.282
  174SAPS  O13B19754   1.715   3.135   2.455
  174SAPS   C1119755   1.533   2.996   2.251
  174SAPS  H11A19756   1.464   3.078   2.226
  174SAPS  H11B19757   1.515   2.977   2.360
  174SAPS     P19758   1.532   2.739   2.198
  174SAPS   O1319759   1.402   2.671   2.226
  174SAPS   O1419760   1.627   2.672   2.107
  174SAPS   O1219761   1.505   2.887   2.161
  174SAPS   O1119762   1.609   2.775   2.330
  174SAPS    C119763   1.627   2.674   2.419
  174SAPS    HA19764   1.535   2.611   2.414
  174SAPS    HB19765   1.706   2.611   2.375
  174SAPS    C219766   1.651   2.721   2.568
  174SAPS    HS19767   1.632   2.657   2.652
  174SAPS   O2119768   1.574   2.838   2.594
  174SAPS   C2119769   1.440   2.830   2.589
  174SAPS   O2219770   1.375   2.745   2.531
  174SAPS   C2219771   1.390   2.964   2.656
  174SAPS   H2R19772   1.480   3.022   2.677
  174SAPS   H2S19773   1.354   3.009   2.561
  174SAPS    C319774   1.803   2.741   2.598
  174SAPS    HX19775   1.845   2.770   2.500
  174SAPS    HY19776   1.853   2.643   2.626
  174SAPS   O3119777   1.826   2.844   2.697
  174SAPS   C3119778   1.813   2.812   2.825
  174SAPS   O3219779   1.809   2.701   2.872
  174SAPS   C3219780   1.809   2.936   2.915
  174SAPS   H2X19781   1.735   3.007   2.873
  174SAPS   H2Y19782   1.910   2.981   2.906
  174SAPS   C2319783   1.283   3.003   2.775
  174SAPS   H3R19784   1.176   3.040   2.739
  174SAPS   H3S19785   1.301   3.087   2.723
  174SAPS   C2419786   1.317   2.932   2.910
  174SAPS   H4R19787   1.427   2.940   2.907
  174SAPS   H4S19788   1.309   2.822   2.928
  174SAPS   C2519789   1.241   2.994   3.024
  174SAPS   H5R19790   1.138   2.964   3.042
  174SAPS   C2619791   1.251   3.107   3.084
  174SAPS   H6R19792   1.173   3.176   3.095
  174SAPS   C2719793   1.323   3.215   3.080
  174SAPS   H7R19794   1.431   3.158   3.066
  174SAPS   H7S19795   1.409   3.169   3.152
  174SAPS   C2819796   1.273   3.407   3.089
  174SAPS   H8R19797   1.232   3.443   2.998
  174SAPS   C2919798   1.373   3.521   3.180
  174SAPS   H9R19799   1.389   3.623   3.176
  174SAPS  C21019800   1.532   3.462   3.276
  174SAPS  H10R19801   1.638   3.457   3.228
  174SAPS  H10S19802   1.569   3.347   3.262
  174SAPS  C21119803   1.525   3.449   3.420
  174SAPS  H11R19804   1.471   3.542   3.423
  174SAPS  C21219805   1.525   3.368   3.527
  174SAPS  H12R19806   1.494   3.417   3.621
  174SAPS  C21319807   1.543   3.221   3.540
  174SAPS  H13R19808   1.563   3.201   3.646
  174SAPS  H13S19809   1.623   3.187   3.472
  174SAPS  C21419810   1.420   3.144   3.515
  174SAPS  H14R19811   1.366   3.151   3.425
  174SAPS  C21519812   1.367   3.040   3.559
  174SAPS  H15R19813   1.274   3.028   3.507
  174SAPS  C21619814   1.406   2.944   3.660
  174SAPS  H16R19815   1.488   2.996   3.708
  174SAPS  H16S19816   1.441   2.853   3.606
  174SAPS  C21719817   1.300   2.897   3.759
  174SAPS  H17R19818   1.221   2.835   3.710
  174SAPS  H17S19819   1.252   2.986   3.808
  174SAPS  C21819820   1.349   2.798   3.859
  174SAPS  H18R19821   1.353   2.697   3.816
  174SAPS  H18S19822   1.274   2.795   3.940
  174SAPS  C21919823   1.491   2.823   3.898
  174SAPS  H19R19824   1.563   2.860   3.822
  174SAPS  H19S19825   1.522   2.751   3.973
  174SAPS  C22019826   1.503   2.926   3.988
  174SAPS  H20R19827   1.589   2.992   3.983
  174SAPS  H20S19828   1.499   2.889   4.094
  174SAPS  H20T19829   1.410   2.981   3.954
  174SAPS   C3319830   1.776   2.904   3.064
  174SAPS   H3X19831   1.835   2.816   3.101
  174SAPS   H3Y19832   1.669   2.879   3.073
  174SAPS   C3419833   1.797   3.024   3.156
  174SAPS   H4X19834   1.731   3.107   3.124
  174SAPS   H4Y19835   1.898   3.055   3.131
  174SAPS   C3519836   1.781   3.005   3.308
  174SAPS   H5X19837   1.679   2.967   3.331
  174SAPS   H5Y19838   1.794   3.102   3.360
  174SAPS   C3619839   1.878   2.904   3.369
  174SAPS   H6X19840   1.984   2.922   3.337
  174SAPS   H6Y19841   1.848   2.804   3.332
  174SAPS   C3719842   1.861   2.899   3.521
  174SAPS   H7X19843   1.885   2.797   3.558
  174SAPS   H7Y19844   1.757   2.922   3.552
  174SAPS   C3819845   1.951   2.998   3.588
  174SAPS   H8X19846   1.905   3.100   3.589
  174SAPS   H8Y19847   2.047   3.007   3.532
  174SAPS   C3919848   1.987   2.952   3.729
  174SAPS   H9X19849   1.990   3.051   3.768
  174SAPS   H9Y19850   2.089   2.907   3.738
  174SAPS  C31019851   1.883   2.923   3.836
  174SAPS  H10X19852   1.897   2.815   3.852
  174SAPS  H10Y19853   1.784   2.947   3.790
  174SAPS  C31119854   1.898   2.997   3.973
  174SAPS  H11X19855   1.868   3.105   3.973
  174SAPS  H11Y19856   2.005   2.997   4.003
  174SAPS  C31219857   1.818   2.925   4.083
  174SAPS  H12X19858   1.766   2.838   4.037
  174SAPS  H12Y19859   1.742   2.993   4.125
  174SAPS  C31319860   1.907   2.874   4.197
  174SAPS  H13X19861   2.002   2.840   4.153
  174SAPS  H13Y19862   1.861   2.786   4.249
  174SAPS  C31419863   1.943   2.986   4.293
  174SAPS  H14X19864   1.910   3.085   4.252
  174SAPS  H14Y19865   2.052   2.989   4.307
  174SAPS  C31519866   1.890   2.967   4.431
  174SAPS  H15X19867   1.905   3.057   4.496
  174SAPS  H15Y19868   1.924   2.878   4.485
  174SAPS  C31619869   1.746   2.959   4.423
  174SAPS  H16X19870   1.744   2.938   4.534
  174SAPS  H16Y19871   1.684   2.885   4.371
  174SAPS  C31719872   1.701   3.091   4.374
  174SAPS  H17X19873   1.731   3.136   4.281
  174SAPS  H17Y19874   1.742   3.167   4.444
  174SAPS  C31819875   1.560   3.086   4.333
  174SAPS  H18X19876   1.475   3.098   4.397
  174SAPS  H18Y19877   1.500   2.995   4.346
  174SAPS  H18Z19878   1.529   3.184   4.300
  175SAPS     N19879   5.318   1.911   2.048
  175SAPS   HN119880   5.221   1.929   2.081
  175SAPS   HN219881   5.353   1.979   1.976
  175SAPS   HN319882   5.327   1.816   2.007
  175SAPS   C1219883   5.416   1.928   2.162
  175SAPS  H12A19884   5.390   1.858   2.240
  175SAPS   C1319885   5.561   1.901   2.112
  175SAPS  O13A19886   5.573   1.873   1.989
  175SAPS  O13B19887   5.659   1.905   2.188
  175SAPS   C1119888   5.399   2.075   2.210
  175SAPS  H11A19889   5.292   2.094   2.234
  175SAPS  H11B19890   5.427   2.141   2.126
  175SAPS     P19891   5.484   2.235   2.405
  175SAPS   O1319892   5.579   2.223   2.516
  175SAPS   O1419893   5.496   2.354   2.318
  175SAPS   O1219894   5.483   2.100   2.322
  175SAPS   O1119895   5.340   2.234   2.468
  175SAPS    C119896   5.308   2.158   2.585
  175SAPS    HA19897   5.211   2.110   2.564
  175SAPS    HB19898   5.381   2.075   2.605
  175SAPS    C219899   5.289   2.248   2.711
  175SAPS    HS19900   5.212   2.323   2.681
  175SAPS   O2119901   5.414   2.311   2.743
  175SAPS   C2119902   5.409   2.405   2.835
  175SAPS   O2219903   5.309   2.443   2.894
  175SAPS   C2219904   5.546   2.459   2.858
  175SAPS   H2R19905   5.623   2.405   2.800
  175SAPS   H2S19906   5.549   2.566   2.831
  175SAPS    C319907   5.235   2.170   2.835
  175SAPS    HX19908   5.134   2.132   2.806
  175SAPS    HY19909   5.213   2.234   2.923
  175SAPS   O3119910   5.323   2.059   2.868
  175SAPS   C3119911   5.425   2.066   2.951
  175SAPS   O3219912   5.458   2.164   3.014
  175SAPS   C3219913   5.490   1.926   2.966
  175SAPS   H2X19914   5.478   1.869   2.871
  175SAPS   H2Y19915   5.437   1.871   3.047
  175SAPS   C2319916   5.562   2.441   3.008
  175SAPS   H3R19917   5.584   2.340   3.045
  175SAPS   H3S19918   5.487   2.496   3.069
  175SAPS   C2419919   5.672   2.513   3.064
  175SAPS   H4R19920   5.672   2.507   3.165
  175SAPS   H4S19921   5.687   2.608   3.005
  175SAPS   C2519922   5.802   2.459   3.033
  175SAPS   H5R19923   5.789   2.481   2.931
  175SAPS   C2619924   5.900   2.387   3.105
  175SAPS   H6R19925   6.000   2.354   3.063
  175SAPS   C2719926   5.900   2.299   3.215
  175SAPS   H7R19927   5.914   2.392   3.236
  175SAPS   H7S19928   6.003   2.269   3.256
  175SAPS   C2819929   5.776   2.232   3.246
  175SAPS   H8R19930   5.775   2.157   3.165
  175SAPS   C2919931   5.661   2.278   3.297
  175SAPS   H9R19932   5.588   2.200   3.310
  175SAPS  C21019933   5.617   2.399   3.377
  175SAPS  H10R19934   5.519   2.433   3.330
  175SAPS  H10S19935   5.665   2.493   3.350
  175SAPS  C21119936   5.604   2.375   3.523
  175SAPS  H11R19937   5.692   2.389   3.586
  175SAPS  C21219938   5.493   2.338   3.584
  175SAPS  H12R19939   5.494   2.326   3.694
  175SAPS  C21319940   5.365   2.319   3.511
  175SAPS  H13R19941   5.337   2.214   3.529
  175SAPS  H13S19942   5.373   2.331   3.401
  175SAPS  C21419943   5.270   2.420   3.565
  175SAPS  H14R19944   5.289   2.522   3.530
  175SAPS  C21519945   5.170   2.398   3.650
  175SAPS  H15R19946   5.119   2.486   3.687
  175SAPS  C21619947   5.126   2.269   3.715
  175SAPS  H16R19948   5.178   2.181   3.670
  175SAPS  H16S19949   5.016   2.255   3.704
  175SAPS  C21719950   5.165   2.274   3.862
  175SAPS  H17R19951   5.275   2.283   3.864
  175SAPS  H17S19952   5.139   2.179   3.916
  175SAPS  C21819953   5.101   2.390   3.939
  175SAPS  H18R19954   4.993   2.380   3.928
  175SAPS  H18S19955   5.127   2.491   3.902
  175SAPS  C21919956   5.147   2.387   4.081
  175SAPS  H19R19957   5.170   2.280   4.103
  175SAPS  H19S19958   5.067   2.418   4.154
  175SAPS  C22019959   5.267   2.480   4.097
  175SAPS  H20R19960   5.324   2.491   4.004
  175SAPS  H20S19961   5.351   2.444   4.157
  175SAPS  H20T19962   5.234   2.574   4.144
  175SAPS   C3319963   5.638   1.935   3.007
  175SAPS   H3X19964   5.650   2.014   3.084
  175SAPS   H3Y19965   5.692   1.967   2.916
  175SAPS   C3419966   5.708   1.807   3.055
  175SAPS   H4X19967   5.818   1.821   3.048
  175SAPS   H4Y19968   5.674   1.717   2.999
  175SAPS   C3519969   5.689   1.774   3.199
  175SAPS   H5X19970   5.735   1.677   3.230
  175SAPS   H5Y19971   5.579   1.764   3.201
  175SAPS   C3619972   5.732   1.885   3.297
  175SAPS   H6X19973   5.643   1.953   3.309
  175SAPS   H6Y19974   5.820   1.939   3.260
  175SAPS   C3719975   5.790   1.841   3.432
  175SAPS   H7X19976   5.863   1.761   3.443
  175SAPS   H7Y19977   5.739   1.756   3.464
  175SAPS   C3819978   5.780   1.950   3.541
  175SAPS   H8X19979   5.683   2.008   3.530
  175SAPS   H8Y19980   5.866   2.014   3.523
  175SAPS   C3919981   5.794   1.895   3.684
  175SAPS   H9X19982   5.834   1.794   3.695
  175SAPS   H9Y19983   5.701   1.887   3.738
  175SAPS  C31019984   5.823   1.997   3.780
  175SAPS  H10X19985   5.923   2.035   3.750
  175SAPS  H10Y19986   5.831   1.940   3.876
  175SAPS  C31119987   5.703   2.101   3.786
  175SAPS  H11X19988   5.606   2.058   3.820
  175SAPS  H11Y19989   5.699   2.171   3.700
  175SAPS  C31219990   5.724   2.180   3.906
  175SAPS  H12X19991   5.827   2.176   3.875
  175SAPS  H12Y19992   5.714   2.105   3.982
  175SAPS  C31319993   5.666   2.313   3.957
  175SAPS  H13X19994   5.664   2.385   3.874
  175SAPS  H13Y19995   5.727   2.363   4.041
  175SAPS  C31419996   5.534   2.305   4.006
  175SAPS  H14X19997   5.486   2.264   3.914
  175SAPS  H14Y19998   5.506   2.410   4.025
  175SAPS  C31519999   5.538   2.219   4.128
  175SAPS  H15X20000   5.577   2.118   4.105
  175SAPS  H15Y20001   5.432   2.208   4.149
  175SAPS  C31620002   5.607   2.282   4.250
  175SAPS  H16X20003   5.563   2.382   4.264
  175SAPS  H16Y20004   5.717   2.296   4.235
  175SAPS  C31720005   5.575   2.206   4.378
  175SAPS  H17X20006   5.619   2.106   4.358
  175SAPS  H17Y20007   5.472   2.172   4.393
  175SAPS  C31820008   5.626   2.271   4.509
  175SAPS  H18X20009   5.601   2.360   4.562
  175SAPS  H18Y20010   5.724   2.323   4.494
  175SAPS  H18Z20011   5.626   2.186   4.579
  176SAPS     N20012   3.735   1.110   2.122
  176SAPS   HN120013   3.793   1.026   2.107
  176SAPS   HN220014   3.646   1.101   2.069
  176SAPS   HN320015   3.785   1.197   2.090
  176SAPS   C1220016   3.706   1.128   2.266
  176SAPS  H12A20017   3.793   1.097   2.323
  176SAPS   C1320018   3.678   1.273   2.302
  176SAPS  O13A20019   3.643   1.354   2.213
  176SAPS  O13B20020   3.688   1.299   2.425
  176SAPS   C1120021   3.582   1.048   2.309
  176SAPS  H11A20022   3.498   1.078   2.242
  176SAPS  H11B20023   3.550   1.074   2.413
  176SAPS     P20024   3.533   0.811   2.213
  176SAPS   O1320025   3.536   0.865   2.075
  176SAPS   O1420026   3.581   0.673   2.235
  176SAPS   O1220027   3.614   0.909   2.305
  176SAPS   O1120028   3.387   0.834   2.266
  176SAPS    C120029   3.271   0.769   2.217
  176SAPS    HA20030   3.215   0.841   2.155
  176SAPS    HB20031   3.294   0.688   2.146
  176SAPS    C220032   3.183   0.719   2.336
  176SAPS    HS20033   3.082   0.694   2.294
  176SAPS   O2120034   3.176   0.813   2.443
  176SAPS   C2120035   3.137   0.929   2.420
  176SAPS   O2220036   3.081   0.971   2.326
  176SAPS   C2220037   3.146   1.033   2.514
  176SAPS   H2R20038   3.252   1.044   2.538
  176SAPS   H2S20039   3.107   1.127   2.462
  176SAPS    C320040   3.237   0.593   2.404
  176SAPS    HX20041   3.252   0.512   2.337
  176SAPS    HY20042   3.171   0.552   2.480
  176SAPS   O3120043   3.361   0.621   2.457
  176SAPS   C3120044   3.371   0.612   2.583
  176SAPS   O3220045   3.301   0.568   2.668
  176SAPS   C3220046   3.503   0.634   2.618
  176SAPS   H2X20047   3.553   0.564   2.544
  176SAPS   H2Y20048   3.501   0.601   2.726
  176SAPS   C2320049   3.047   0.993   2.618
  176SAPS   H3R20050   2.954   0.937   2.588
  176SAPS   H3S20051   2.989   1.083   2.621
  176SAPS   C2420052   3.134   0.969   2.746
  176SAPS   H4R20053   3.237   0.998   2.746
  176SAPS   H4S20054   3.173   0.864   2.710
  176SAPS   C2520055   3.034   0.935   2.870
  176SAPS   H5R20056   2.939   0.907   2.875
  176SAPS   C2620057   3.049   0.969   3.009
  176SAPS   H6R20058   2.976   0.893   3.067
  176SAPS   C2720059   3.173   0.970   3.091
  176SAPS   H7R20060   3.246   0.960   2.992
  176SAPS   H7S20061   3.192   0.937   3.165
  176SAPS   C2820062   3.066   1.113   3.089
  176SAPS   H8R20063   3.104   1.181   3.083
  176SAPS   C2920064   3.023   1.185   3.215
  176SAPS   H9R20065   3.023   1.309   3.155
  176SAPS  C21020066   3.121   1.198   3.317
  176SAPS  H10R20067   3.101   1.289   3.374
  176SAPS  H10S20068   3.215   1.163   3.312
  176SAPS  C21120069   3.031   1.088   3.384
  176SAPS  H11R20070   2.925   1.075   3.347
  176SAPS  C21220071   3.093   0.999   3.453
  176SAPS  H12R20072   3.026   0.917   3.473
  176SAPS  C21320073   3.243   0.992   3.483
  176SAPS  H13R20074   3.254   1.029   3.586
  176SAPS  H13S20075   3.310   1.058   3.426
  176SAPS  C21420076   3.311   0.862   3.468
  176SAPS  H14R20077   3.338   0.844   3.364
  176SAPS  C21520078   3.338   0.766   3.557
  176SAPS  H15R20079   3.386   0.674   3.519
  176SAPS  C21620080   3.303   0.770   3.701
  176SAPS  H16R20081   3.284   0.874   3.732
  176SAPS  H16S20082   3.389   0.737   3.761
  176SAPS  C21720083   3.182   0.684   3.738
  176SAPS  H17R20084   3.213   0.579   3.751
  176SAPS  H17S20085   3.101   0.686   3.663
  176SAPS  C21820086   3.124   0.735   3.868
  176SAPS  H18R20087   3.201   0.757   3.945
  176SAPS  H18S20088   3.061   0.657   3.914
  176SAPS  C21920089   3.035   0.853   3.841
  176SAPS  H19R20090   2.960   0.836   3.761
  176SAPS  H19S20091   3.089   0.947   3.811
  176SAPS  C22020092   2.956   0.873   3.966
  176SAPS  H20R20093   2.894   0.791   4.004
  176SAPS  H20S20094   2.877   0.933   3.927
  176SAPS  H20T20095   3.015   0.921   4.047
  176SAPS   C3320096   3.578   0.756   2.591
  176SAPS   H3X20097   3.590   0.750   2.481
  176SAPS   H3Y20098   3.680   0.749   2.635
  176SAPS   C3420099   3.504   0.869   2.654
  176SAPS   H4X20100   3.408   0.874   2.598
  176SAPS   H4Y20101   3.569   0.955   2.632
  176SAPS   C3520102   3.475   0.857   2.805
  176SAPS   H5X20103   3.408   0.770   2.827
  176SAPS   H5Y20104   3.421   0.949   2.834
  176SAPS   C3620105   3.596   0.850   2.898
  176SAPS   H6X20106   3.688   0.894   2.856
  176SAPS   H6Y20107   3.615   0.746   2.899
  176SAPS   C3720108   3.572   0.892   3.043
  176SAPS   H7X20109   3.651   0.852   3.110
  176SAPS   H7Y20110   3.474   0.855   3.081
  176SAPS   C3820111   3.582   1.043   3.048
  176SAPS   H8X20112   3.505   1.085   2.979
  176SAPS   H8Y20113   3.681   1.076   3.009
  176SAPS   C3920114   3.575   1.097   3.188
  176SAPS   H9X20115   3.656   1.062   3.254
  176SAPS   H9Y20116   3.488   1.051   3.240
  176SAPS  C31020117   3.587   1.249   3.183
  176SAPS  H10X20118   3.503   1.307   3.149
  176SAPS  H10Y20119   3.634   1.295   3.095
  176SAPS  C31120120   3.604   1.300   3.323
  176SAPS  H11X20121   3.583   1.408   3.305
  176SAPS  H11Y20122   3.706   1.317   3.355
  176SAPS  C31220123   3.520   1.219   3.435
  176SAPS  H12X20124   3.532   1.114   3.451
  176SAPS  H12Y20125   3.411   1.213   3.440
  176SAPS  C31320126   3.497   1.298   3.557
  176SAPS  H13X20127   3.489   1.374   3.473
  176SAPS  H13Y20128   3.575   1.334   3.622
  176SAPS  C31420129   3.371   1.280   3.652
  176SAPS  H14X20130   3.272   1.266   3.601
  176SAPS  H14Y20131   3.353   1.368   3.720
  176SAPS  C31520132   3.391   1.186   3.760
  176SAPS  H15X20133   3.462   1.116   3.711
  176SAPS  H15Y20134   3.289   1.143   3.778
  176SAPS  C31620135   3.443   1.259   3.884
  176SAPS  H16X20136   3.369   1.334   3.920
  176SAPS  H16Y20137   3.538   1.314   3.861
  176SAPS  C31720138   3.467   1.155   3.990
  176SAPS  H17X20139   3.402   1.067   3.966
  176SAPS  H17Y20140   3.434   1.198   4.087
  176SAPS  C31820141   3.613   1.116   3.996
  176SAPS  H18X20142   3.649   1.068   3.903
  176SAPS  H18Y20143   3.627   1.048   4.082
  176SAPS  H18Z20144   3.675   1.207   4.012
  177SAPS     N20145   0.257   2.823   2.148
  177SAPS   HN120146   0.160   2.857   2.152
  177SAPS   HN220147   0.305   2.830   2.240
  177SAPS   HN320148   0.314   2.874   2.078
  177SAPS   C1220149   0.255   2.674   2.125
  177SAPS  H12A20150   0.206   2.655   2.032
  177SAPS   C1320151   0.395   2.611   2.120
  177SAPS  O13A20152   0.489   2.684   2.157
  177SAPS  O13B20153   0.406   2.486   2.103
  177SAPS   C1120154   0.178   2.606   2.242
  177SAPS  H11A20155   0.235   2.621   2.337
  177SAPS  H11B20156   0.176   2.496   2.221
  177SAPS     P20157  -0.050   2.638   2.375
  177SAPS   O1320158  -0.004   2.726   2.483
  177SAPS   O1420159  -0.188   2.652   2.325
  177SAPS   O1220160   0.045   2.658   2.251
  177SAPS   O1120161  -0.021   2.492   2.415
  177SAPS    C120162  -0.101   2.390   2.359
  177SAPS    HA20163  -0.204   2.384   2.405
  177SAPS    HB20164  -0.108   2.388   2.247
  177SAPS    C220165  -0.032   2.263   2.389
  177SAPS    HS20166  -0.084   2.185   2.339
  177SAPS   O2120167   0.004   2.250   2.533
  177SAPS   C2120168  -0.080   2.234   2.642
  177SAPS   O2220169  -0.194   2.261   2.649
  177SAPS   C2220170  -0.027   2.163   2.764
  177SAPS   H2R20171   0.020   2.071   2.729
  177SAPS   H2S20172   0.039   2.239   2.805
  177SAPS    C320173   0.094   2.228   2.301
  177SAPS    HX20174   0.070   2.250   2.195
  177SAPS    HY20175   0.118   2.120   2.292
  177SAPS   O3120176   0.208   2.288   2.349
  177SAPS   C3120177   0.271   2.225   2.444
  177SAPS   O3220178   0.249   2.116   2.495
  177SAPS   C3220179   0.367   2.317   2.487
  177SAPS   H2X20180   0.398   2.390   2.408
  177SAPS   H2Y20181   0.457   2.264   2.526
  177SAPS   C2320182  -0.137   2.114   2.869
  177SAPS   H3R20183  -0.093   2.074   2.961
  177SAPS   H3S20184  -0.171   2.021   2.822
  177SAPS   C2420185  -0.248   2.208   2.926
  177SAPS   H4R20186  -0.310   2.165   3.007
  177SAPS   H4S20187  -0.336   2.242   2.876
  177SAPS   C2520188  -0.186   2.336   2.937
  177SAPS   H5R20189  -0.167   2.391   2.843
  177SAPS   C2620190  -0.206   2.403   3.044
  177SAPS   H6R20191  -0.167   2.499   3.031
  177SAPS   C2720192  -0.286   2.374   3.167
  177SAPS   H7R20193  -0.396   2.376   3.150
  177SAPS   H7S20194  -0.270   2.446   3.244
  177SAPS   C2820195  -0.243   2.258   3.236
  177SAPS   H8R20196  -0.304   2.181   3.192
  177SAPS   C2920197  -0.144   2.240   3.325
  177SAPS   H9R20198  -0.126   2.139   3.363
  177SAPS  C21020199  -0.050   2.345   3.374
  177SAPS  H10R20200  -0.033   2.335   3.483
  177SAPS  H10S20201  -0.094   2.444   3.365
  177SAPS  C21120202   0.074   2.343   3.288
  177SAPS  H11R20203   0.061   2.370   3.183
  177SAPS  C21220204   0.192   2.297   3.325
  177SAPS  H12R20205   0.278   2.299   3.257
  177SAPS  C21320206   0.212   2.239   3.459
  177SAPS  H13R20207   0.185   2.303   3.545
  177SAPS  H13S20208   0.314   2.236   3.470
  177SAPS  C21420209   0.151   2.105   3.458
  177SAPS  H14R20210   0.177   2.036   3.375
  177SAPS  C21520211   0.091   2.057   3.563
  177SAPS  H15R20212   0.076   1.947   3.553
  177SAPS  C21620213   0.078   2.129   3.700
  177SAPS  H16R20214   0.156   2.205   3.722
  177SAPS  H16S20215   0.121   2.089   3.794
  177SAPS  C21720216  -0.052   2.092   3.765
  177SAPS  H17R20217  -0.069   1.981   3.759
  177SAPS  H17S20218  -0.117   2.144   3.694
  177SAPS  C21820219  -0.062   2.141   3.911
  177SAPS  H18R20220  -0.016   2.239   3.923
  177SAPS  H18S20221  -0.016   2.084   3.991
  177SAPS  C21920222  -0.195   2.122   3.972
  177SAPS  H19R20223  -0.273   2.167   3.907
  177SAPS  H19S20224  -0.197   2.150   4.079
  177SAPS  C22020225  -0.233   1.983   3.981
  177SAPS  H20R20226  -0.261   1.968   3.876
  177SAPS  H20S20227  -0.331   1.977   4.030
  177SAPS  H20T20228  -0.163   1.904   4.022
  177SAPS   C3320229   0.279   2.387   2.588
  177SAPS   H3X20230   0.238   2.336   2.678
  177SAPS   H3Y20231   0.207   2.463   2.545
  177SAPS   C3420232   0.377   2.466   2.645
  177SAPS   H4X20233   0.369   2.564   2.591
  177SAPS   H4Y20234   0.481   2.432   2.615
  177SAPS   C3520235   0.371   2.465   2.796
  177SAPS   H5X20236   0.481   2.466   2.806
  177SAPS   H5Y20237   0.381   2.379   2.863
  177SAPS   C3620238   0.271   2.574   2.852
  177SAPS   H6X20239   0.170   2.552   2.817
  177SAPS   H6Y20240   0.287   2.678   2.812
  177SAPS   C3720241   0.278   2.590   3.007
  177SAPS   H7X20242   0.373   2.625   3.056
  177SAPS   H7Y20243   0.257   2.497   3.059
  177SAPS   C3820244   0.191   2.701   3.049
  177SAPS   H8X20245   0.097   2.701   2.990
  177SAPS   H8Y20246   0.246   2.791   3.015
  177SAPS   C3920247   0.175   2.687   3.201
  177SAPS   H9X20248   0.270   2.711   3.250
  177SAPS   H9Y20249   0.152   2.584   3.228
  177SAPS  C31020250   0.055   2.763   3.246
  177SAPS  H10X20251   0.007   2.719   3.164
  177SAPS  H10Y20252   0.030   2.860   3.204
  177SAPS  C31120253   0.015   2.811   3.391
  177SAPS  H11X20254  -0.030   2.913   3.373
  177SAPS  H11Y20255   0.093   2.831   3.463
  177SAPS  C31220256  -0.024   2.727   3.503
  177SAPS  H12X20257   0.016   2.628   3.488
  177SAPS  H12Y20258  -0.099   2.744   3.430
  177SAPS  C31320259  -0.043   2.787   3.649
  177SAPS  H13X20260  -0.081   2.891   3.635
  177SAPS  H13Y20261   0.053   2.815   3.692
  177SAPS  C31420262  -0.127   2.703   3.759
  177SAPS  H14X20263  -0.233   2.672   3.751
  177SAPS  H14Y20264  -0.166   2.760   3.844
  177SAPS  C31520265  -0.109   2.552   3.743
  177SAPS  H15X20266  -0.010   2.543   3.788
  177SAPS  H15Y20267  -0.101   2.519   3.637
  177SAPS  C31620268  -0.225   2.465   3.798
  177SAPS  H16X20269  -0.192   2.359   3.789
  177SAPS  H16Y20270  -0.324   2.468   3.747
  177SAPS  C31720271  -0.273   2.503   3.936
  177SAPS  H17X20272  -0.203   2.574   3.987
  177SAPS  H17Y20273  -0.273   2.404   3.981
  177SAPS  C31820274  -0.414   2.556   3.952
  177SAPS  H18X20275  -0.396   2.662   3.970
  177SAPS  H18Y20276  -0.459   2.547   4.051
  177SAPS  H18Z20277  -0.484   2.539   3.866
  178SAPS     N20278   4.546   0.007   2.028
  178SAPS   HN120279   4.447  -0.026   2.041
  178SAPS   HN220280   4.548   0.035   1.927
  178SAPS   HN320281   4.604  -0.079   2.043
  178SAPS   C1220282   4.572   0.119   2.123
  178SAPS  H12A20283   4.676   0.144   2.112
  178SAPS   C1320284   4.484   0.238   2.087
  178SAPS  O13A20285   4.394   0.227   2.000
  178SAPS  O13B20286   4.512   0.344   2.149
  178SAPS   C1120287   4.543   0.095   2.278
  178SAPS  H11A20288   4.432   0.104   2.295
  178SAPS  H11B20289   4.581   0.180   2.337
  178SAPS     P20290   4.688  -0.051   2.448
  178SAPS   O1320291   4.610  -0.021   2.569
  178SAPS   O1420292   4.758  -0.180   2.434
  178SAPS   O1220293   4.587  -0.035   2.326
  178SAPS   O1120294   4.778   0.064   2.390
  178SAPS    C120295   4.918   0.051   2.371
  178SAPS    HA20296   4.953  -0.054   2.371
  178SAPS    HB20297   4.946   0.097   2.273
  178SAPS    C220298   4.991   0.130   2.481
  178SAPS    HS20299   5.100   0.123   2.458
  178SAPS   O2120300   4.961   0.073   2.610
  178SAPS   C2120301   5.046   0.099   2.708
  178SAPS   O2220302   5.146   0.168   2.698
  178SAPS   C2220303   5.005   0.018   2.832
  178SAPS   H2R20304   4.918   0.063   2.882
  178SAPS   H2S20305   4.982  -0.085   2.800
  178SAPS    C320306   4.946   0.280   2.468
  178SAPS    HX20307   4.972   0.312   2.367
  178SAPS    HY20308   5.024   0.337   2.528
  178SAPS   O3120309   4.799   0.307   2.483
  178SAPS   C3120310   4.781   0.350   2.610
  178SAPS   O3220311   4.876   0.358   2.680
  178SAPS   C3220312   4.646   0.379   2.673
  178SAPS   H2X20313   4.576   0.409   2.594
  178SAPS   H2Y20314   4.649   0.461   2.750
  178SAPS   C2320315   5.116   0.010   2.937
  178SAPS   H3R20316   5.141   0.109   2.978
  178SAPS   H3S20317   5.204  -0.025   2.880
  178SAPS   C2420318   5.068  -0.077   3.055
  178SAPS   H4R20319   5.148  -0.127   3.112
  178SAPS   H4S20320   5.020  -0.165   3.010
  178SAPS   C2520321   4.972   0.004   3.143
  178SAPS   H5R20322   4.877   0.027   3.099
  178SAPS   C2620323   4.992   0.076   3.253
  178SAPS   H6R20324   4.922   0.130   3.315
  178SAPS   C2720325   5.113   0.095   3.315
  178SAPS   H7R20326   5.159   0.152   3.240
  178SAPS   H7S20327   5.163   0.003   3.292
  178SAPS   C2820328   5.133   0.155   3.453
  178SAPS   H8R20329   5.197   0.081   3.479
  178SAPS   C2920330   5.188   0.274   3.489
  178SAPS   H9R20331   5.238   0.282   3.588
  178SAPS  C21020332   5.236   0.369   3.380
  178SAPS  H10R20333   5.193   0.346   3.282
  178SAPS  H10S20334   5.346   0.389   3.369
  178SAPS  C21120335   5.172   0.492   3.424
  178SAPS  H11R20336   5.224   0.584   3.405
  178SAPS  C21220337   5.048   0.518   3.444
  178SAPS  H12R20338   5.028   0.617   3.487
  178SAPS  C21320339   4.943   0.420   3.417
  178SAPS  H13R20340   4.963   0.318   3.437
  178SAPS  H13S20341   4.959   0.415   3.311
  178SAPS  C21420342   4.807   0.455   3.461
  178SAPS  H14R20343   4.747   0.501   3.382
  178SAPS  C21520344   4.736   0.418   3.562
  178SAPS  H15R20345   4.646   0.477   3.583
  178SAPS  C21620346   4.790   0.321   3.656
  178SAPS  H16R20347   4.818   0.235   3.592
  178SAPS  H16S20348   4.706   0.293   3.721
  178SAPS  C21720349   4.910   0.355   3.744
  178SAPS  H17R20350   4.891   0.449   3.797
  178SAPS  H17S20351   5.002   0.370   3.684
  178SAPS  C21820352   4.925   0.240   3.843
  178SAPS  H18R20353   4.922   0.143   3.787
  178SAPS  H18S20354   4.843   0.241   3.918
  178SAPS  C21920355   5.050   0.242   3.925
  178SAPS  H19R20356   5.065   0.343   3.964
  178SAPS  H19S20357   5.132   0.230   3.851
  178SAPS  C22020358   5.045   0.135   4.036
  178SAPS  H20R20359   5.052   0.038   3.983
  178SAPS  H20S20360   4.961   0.136   4.103
  178SAPS  H20T20361   5.124   0.137   4.113
  178SAPS   C3320362   4.614   0.252   2.753
  178SAPS   H3X20363   4.659   0.165   2.700
  178SAPS   H3Y20364   4.505   0.235   2.756
  178SAPS   C3420365   4.667   0.243   2.899
  178SAPS   H4X20366   4.777   0.257   2.898
  178SAPS   H4Y20367   4.647   0.137   2.928
  178SAPS   C3520368   4.598   0.335   3.002
  178SAPS   H5X20369   4.488   0.323   2.999
  178SAPS   H5Y20370   4.611   0.441   2.977
  178SAPS   C3620371   4.640   0.311   3.149
  178SAPS   H6X20372   4.613   0.402   3.207
  178SAPS   H6Y20373   4.750   0.297   3.159
  178SAPS   C3720374   4.572   0.189   3.210
  178SAPS   H7X20375   4.625   0.097   3.175
  178SAPS   H7Y20376   4.468   0.184   3.173
  178SAPS   C3820377   4.572   0.195   3.363
  178SAPS   H8X20378   4.542   0.296   3.399
  178SAPS   H8Y20379   4.677   0.176   3.395
  178SAPS   C3920380   4.481   0.094   3.430
  178SAPS   H9X20381   4.374   0.096   3.396
  178SAPS   H9Y20382   4.483   0.091   3.540
  178SAPS  C31020383   4.529  -0.040   3.391
  178SAPS  H10X20384   4.495  -0.040   3.285
  178SAPS  H10Y20385   4.458  -0.098   3.451
  178SAPS  C31120386   4.678  -0.086   3.417
  178SAPS  H11X20387   4.712  -0.022   3.500
  178SAPS  H11Y20388   4.742  -0.070   3.327
  178SAPS  C31220389   4.712  -0.234   3.459
  178SAPS  H12X20390   4.686  -0.310   3.383
  178SAPS  H12Y20391   4.659  -0.259   3.554
  178SAPS  C31320392   4.854  -0.278   3.463
  178SAPS  H13X20393   4.895  -0.291   3.360
  178SAPS  H13Y20394   4.851  -0.380   3.510
  178SAPS  C31420395   4.934  -0.183   3.543
  178SAPS  H14X20396   4.945  -0.083   3.493
  178SAPS  H14Y20397   5.030  -0.237   3.543
  178SAPS  C31520398   4.885  -0.161   3.687
  178SAPS  H15X20399   4.785  -0.113   3.690
  178SAPS  H15Y20400   4.952  -0.085   3.730
  178SAPS  C31620401   4.882  -0.288   3.771
  178SAPS  H16X20402   4.984  -0.332   3.776
  178SAPS  H16Y20403   4.818  -0.363   3.719
  178SAPS  C31720404   4.822  -0.270   3.912
  178SAPS  H17X20405   4.826  -0.369   3.963
  178SAPS  H17Y20406   4.715  -0.241   3.902
  178SAPS  C31820407   4.885  -0.164   4.004
  178SAPS  H18X20408   4.850  -0.062   3.979
  178SAPS  H18Y20409   4.996  -0.167   3.998
  178SAPS  H18Z20410   4.854  -0.183   4.109
  179SAPS     N20411   0.834   0.968   2.012
  179SAPS   HN120412   0.769   0.954   1.931
  179SAPS   HN220413   0.912   1.028   1.976
  179SAPS   HN320414   0.868   0.878   2.050
  179SAPS   C1220415   0.765   1.037   2.125
  179SAPS  H12A20416   0.839   1.049   2.202
  179SAPS   C1320417   0.705   1.175   2.088
  179SAPS  O13A20418   0.717   1.210   1.967
  179SAPS  O13B20419   0.642   1.243   2.172
  179SAPS   C1120420   0.659   0.944   2.188
  179SAPS  H11A20421   0.695   0.839   2.187
  179SAPS  H11B20422   0.565   0.947   2.129
  179SAPS     P20423   0.695   0.924   2.448
  179SAPS   O1320424   0.710   1.023   2.556
  179SAPS   O1420425   0.619   0.800   2.474
  179SAPS   O1220426   0.632   0.989   2.320
  179SAPS   O1120427   0.838   0.885   2.389
  179SAPS    C120428   0.886   0.750   2.389
  179SAPS    HA20429   0.804   0.676   2.371
  179SAPS    HB20430   0.960   0.738   2.308
  179SAPS    C220431   0.958   0.711   2.518
  179SAPS    HS20432   1.007   0.614   2.507
  179SAPS   O2120433   0.850   0.691   2.601
  179SAPS   C2120434   0.885   0.669   2.716
  179SAPS   O2220435   0.989   0.613   2.754
  179SAPS   C2220436   0.759   0.694   2.792
  179SAPS   H2R20437   0.660   0.669   2.753
  179SAPS   H2S20438   0.786   0.600   2.828
  179SAPS    C320439   1.063   0.810   2.579
  179SAPS    HX20440   1.141   0.827   2.504
  179SAPS    HY20441   1.115   0.769   2.669
  179SAPS   O3120442   0.995   0.925   2.625
  179SAPS   C3120443   1.058   1.037   2.625
  179SAPS   O3220444   1.172   1.056   2.585
  179SAPS   C3220445   0.966   1.137   2.694
  179SAPS   H2X20446   0.884   1.084   2.746
  179SAPS   H2Y20447   0.923   1.203   2.617
  179SAPS   C2320448   0.767   0.784   2.912
  179SAPS   H3R20449   0.804   0.878   2.871
  179SAPS   H3S20450   0.859   0.754   2.959
  179SAPS   C2420451   0.640   0.792   3.000
  179SAPS   H4R20452   0.589   0.700   3.032
  179SAPS   H4S20453   0.565   0.841   2.933
  179SAPS   C2520454   0.661   0.871   3.126
  179SAPS   H5R20455   0.701   0.970   3.106
  179SAPS   C2620456   0.645   0.829   3.254
  179SAPS   H6R20457   0.657   0.901   3.335
  179SAPS   C2720458   0.603   0.695   3.305
  179SAPS   H7R20459   0.675   0.669   3.387
  179SAPS   H7S20460   0.615   0.631   3.215
  179SAPS   C2820461   0.474   0.630   3.324
  179SAPS   H8R20462   0.407   0.649   3.240
  179SAPS   C2920463   0.438   0.549   3.424
  179SAPS   H9R20464   0.336   0.510   3.421
  179SAPS  C21020465   0.522   0.507   3.542
  179SAPS  H10R20466   0.477   0.563   3.627
  179SAPS  H10S20467   0.627   0.543   3.541
  179SAPS  C21120468   0.531   0.357   3.559
  179SAPS  H11R20469   0.585   0.294   3.490
  179SAPS  C21220470   0.521   0.301   3.676
  179SAPS  H12R20471   0.492   0.196   3.693
  179SAPS  C21320472   0.500   0.380   3.792
  179SAPS  H13R20473   0.404   0.351   3.763
  179SAPS  H13S20474   0.477   0.487   3.800
  179SAPS  C21420475   0.543   0.327   3.919
  179SAPS  H14R20476   0.503   0.224   3.933
  179SAPS  C21520477   0.497   0.382   4.024
  179SAPS  H15R20478   0.522   0.300   4.090
  179SAPS  C21620479   0.398   0.496   4.076
  179SAPS  H16R20480   0.325   0.478   4.162
  179SAPS  H16S20481   0.311   0.529   4.015
  179SAPS  C21720482   0.469   0.595   4.152
  179SAPS  H17R20483   0.553   0.602   4.081
  179SAPS  H17S20484   0.494   0.564   4.256
  179SAPS  C21820485   0.399   0.721   4.169
  179SAPS  H18R20486   0.474   0.788   4.218
  179SAPS  H18S20487   0.312   0.713   4.237
  179SAPS  C21920488   0.361   0.764   4.033
  179SAPS  H19R20489   0.275   0.709   3.987
  179SAPS  H19S20490   0.444   0.763   3.958
  179SAPS  C22020491   0.320   0.899   4.046
  179SAPS  H20R20492   0.410   0.964   4.048
  179SAPS  H20S20493   0.250   0.930   4.127
  179SAPS  H20T20494   0.269   0.905   3.947
  179SAPS   C3320495   1.047   1.213   2.798
  179SAPS   H3X20496   1.114   1.271   2.736
  179SAPS   H3Y20497   1.100   1.147   2.870
  179SAPS   C3420498   0.971   1.316   2.876
  179SAPS   H4X20499   0.889   1.348   2.813
  179SAPS   H4Y20500   1.039   1.398   2.906
  179SAPS   C3520501   0.890   1.265   2.990
  179SAPS   H5X20502   0.961   1.237   3.069
  179SAPS   H5Y20503   0.833   1.179   2.950
  179SAPS   C3620504   0.792   1.373   3.031
  179SAPS   H6X20505   0.744   1.408   2.937
  179SAPS   H6Y20506   0.847   1.456   3.081
  179SAPS   C3720507   0.679   1.319   3.116
  179SAPS   H7X20508   0.625   1.252   3.045
  179SAPS   H7Y20509   0.609   1.400   3.146
  179SAPS   C3820510   0.725   1.235   3.235
  179SAPS   H8X20511   0.778   1.145   3.194
  179SAPS   H8Y20512   0.637   1.199   3.291
  179SAPS   C3920513   0.823   1.305   3.330
  179SAPS   H9X20514   0.777   1.393   3.380
  179SAPS   H9Y20515   0.907   1.342   3.266
  179SAPS  C31020516   0.882   1.211   3.435
  179SAPS  H10X20517   0.969   1.260   3.484
  179SAPS  H10Y20518   0.920   1.119   3.384
  179SAPS  C31120519   0.784   1.178   3.548
  179SAPS  H11X20520   0.693   1.124   3.513
  179SAPS  H11Y20521   0.753   1.271   3.600
  179SAPS  C31220522   0.842   1.087   3.653
  179SAPS  H12X20523   0.946   1.117   3.681
  179SAPS  H12Y20524   0.849   0.994   3.593
  179SAPS  C31320525   0.741   1.072   3.770
  179SAPS  H13X20526   0.665   0.996   3.741
  179SAPS  H13Y20527   0.696   1.167   3.803
  179SAPS  C31420528   0.804   1.021   3.895
  179SAPS  H14X20529   0.896   1.084   3.911
  179SAPS  H14Y20530   0.825   0.917   3.859
  179SAPS  C31520531   0.737   1.003   4.035
  179SAPS  H15X20532   0.636   0.966   4.014
  179SAPS  H15Y20533   0.741   1.100   4.088
  179SAPS  C31620534   0.796   0.902   4.140
  179SAPS  H16X20535   0.763   0.920   4.244
  179SAPS  H16Y20536   0.904   0.921   4.156
  179SAPS  C31720537   0.751   0.763   4.093
  179SAPS  H17X20538   0.811   0.739   4.002
  179SAPS  H17Y20539   0.651   0.758   4.056
  179SAPS  C31820540   0.747   0.650   4.193
  179SAPS  H18X20541   0.747   0.674   4.300
  179SAPS  H18Y20542   0.847   0.652   4.160
  179SAPS  H18Z20543   0.750   0.541   4.175
  180SAPS     N20544   6.561   0.153   2.292
  180SAPS   HN120545   6.589   0.127   2.389
  180SAPS   HN220546   6.557   0.255   2.278
  180SAPS   HN320547   6.474   0.104   2.264
  180SAPS   C1220548   6.670   0.101   2.209
  180SAPS  H12A20549   6.706   0.014   2.259
  180SAPS   C1320550   6.636   0.064   2.064
  180SAPS  O13A20551   6.515   0.063   2.029
  180SAPS  O13B20552   6.718  -0.027   2.033
  180SAPS   C1120553   6.795   0.185   2.197
  180SAPS  H11A20554   6.763   0.279   2.154
  180SAPS  H11B20555   6.867   0.137   2.125
  180SAPS     P20556   6.938   0.106   2.399
  180SAPS   O1320557   6.840   0.033   2.483
  180SAPS   O1420558   7.028   0.034   2.306
  180SAPS   O1220559   6.854   0.214   2.321
  180SAPS   O1120560   7.027   0.196   2.492
  180SAPS    C120561   7.096   0.314   2.454
  180SAPS    HA20562   7.205   0.298   2.468
  180SAPS    HB20563   7.075   0.347   2.350
  180SAPS    C220564   7.059   0.434   2.543
  180SAPS    HS20565   7.128   0.518   2.520
  180SAPS   O2120566   7.073   0.391   2.679
  180SAPS   C2120567   7.039   0.480   2.767
  180SAPS   O2220568   7.013   0.597   2.744
  180SAPS   C2220569   7.049   0.413   2.905
  180SAPS   H2R20570   6.944   0.401   2.932
  180SAPS   H2S20571   7.111   0.322   2.904
  180SAPS    C320572   6.915   0.483   2.510
  180SAPS    HX20573   6.923   0.498   2.401
  180SAPS    HY20574   6.897   0.584   2.553
  180SAPS   O3120575   6.810   0.386   2.533
  180SAPS   C3120576   6.754   0.400   2.651
  180SAPS   O3220577   6.778   0.490   2.728
  180SAPS   C3220578   6.656   0.286   2.679
  180SAPS   H2X20579   6.643   0.232   2.583
  180SAPS   H2Y20580   6.558   0.328   2.711
  180SAPS   C2320581   7.099   0.489   3.024
  180SAPS   H3R20582   7.061   0.594   3.007
  180SAPS   H3S20583   7.209   0.488   3.028
  180SAPS   C2420584   7.096   0.432   3.160
  180SAPS   H4R20585   7.161   0.469   3.242
  180SAPS   H4S20586   7.151   0.339   3.165
  180SAPS   C2520587   6.959   0.472   3.196
  180SAPS   H5R20588   6.919   0.572   3.169
  180SAPS   C2620589   6.907   0.398   3.287
  180SAPS   H6R20590   6.803   0.415   3.313
  180SAPS   C2720591   6.987   0.285   3.344
  180SAPS   H7R20592   6.941   0.269   3.441
  180SAPS   H7S20593   7.093   0.312   3.367
  180SAPS   C2820594   6.985   0.159   3.260
  180SAPS   H8R20595   6.991   0.167   3.151
  180SAPS   C2920596   6.988   0.040   3.319
  180SAPS   H9R20597   6.978  -0.051   3.259
  180SAPS  C21020598   6.993   0.027   3.468
  180SAPS  H10R20599   6.892   0.039   3.512
  180SAPS  H10S20600   7.053   0.108   3.516
  180SAPS  C21120601   7.054  -0.107   3.492
  180SAPS  H11R20602   7.155  -0.122   3.454
  180SAPS  C21220603   7.008  -0.194   3.579
  180SAPS  H12R20604   7.075  -0.275   3.616
  180SAPS  C21320605   6.889  -0.157   3.661
  180SAPS  H13R20606   6.796  -0.148   3.600
  180SAPS  H13S20607   6.898  -0.063   3.721
  180SAPS  C21420608   6.879  -0.267   3.754
  180SAPS  H14R20609   6.802  -0.334   3.717
  180SAPS  C21520610   6.948  -0.294   3.867
  180SAPS  H15R20611   6.908  -0.363   3.942
  180SAPS  C21620612   7.055  -0.209   3.920
  180SAPS  H16R20613   7.061  -0.126   3.853
  180SAPS  H16S20614   7.149  -0.269   3.926
  180SAPS  C21720615   7.031  -0.138   4.047
  180SAPS  H17R20616   6.937  -0.079   4.055
  180SAPS  H17S20617   7.118  -0.070   4.065
  180SAPS  C21820618   7.035  -0.242   4.148
  180SAPS  H18R20619   7.083  -0.338   4.118
  180SAPS  H18S20620   6.931  -0.266   4.183
  180SAPS  C21920621   7.113  -0.186   4.257
  180SAPS  H19R20622   7.059  -0.088   4.274
  180SAPS  H19S20623   7.220  -0.156   4.257
  180SAPS  C22020624   7.105  -0.313   4.338
  180SAPS  H20R20625   6.998  -0.339   4.343
  180SAPS  H20S20626   7.178  -0.375   4.283
  180SAPS  H20T20627   7.141  -0.327   4.440
  180SAPS   C3320628   6.712   0.182   2.780
  180SAPS   H3X20629   6.824   0.177   2.771
  180SAPS   H3Y20630   6.673   0.083   2.747
  180SAPS   C3420631   6.679   0.204   2.929
  180SAPS   H4X20632   6.699   0.311   2.951
  180SAPS   H4Y20633   6.749   0.143   2.991
  180SAPS   C3520634   6.535   0.169   2.971
  180SAPS   H5X20635   6.506   0.068   2.932
  180SAPS   H5Y20636   6.469   0.243   2.920
  180SAPS   C3620637   6.502   0.176   3.123
  180SAPS   H6X20638   6.392   0.160   3.132
  180SAPS   H6Y20639   6.525   0.278   3.162
  180SAPS   C3720640   6.569   0.075   3.218
  180SAPS   H7X20641   6.676   0.101   3.230
  180SAPS   H7Y20642   6.563  -0.026   3.170
  180SAPS   C3820643   6.494   0.061   3.355
  180SAPS   H8X20644   6.519  -0.037   3.402
  180SAPS   H8Y20645   6.386   0.055   3.328
  180SAPS   C3920646   6.505   0.172   3.463
  180SAPS   H9X20647   6.438   0.142   3.547
  180SAPS   H9Y20648   6.468   0.269   3.423
  180SAPS  C31020649   6.643   0.192   3.528
  180SAPS  H10X20650   6.715   0.233   3.454
  180SAPS  H10Y20651   6.681   0.093   3.562
  180SAPS  C31120652   6.648   0.284   3.652
  180SAPS  H11X20653   6.606   0.227   3.738
  180SAPS  H11Y20654   6.587   0.377   3.641
  180SAPS  C31220655   6.797   0.318   3.676
  180SAPS  H12X20656   6.828   0.404   3.614
  180SAPS  H12Y20657   6.855   0.225   3.660
  180SAPS  C31320658   6.829   0.361   3.813
  180SAPS  H13X20659   6.803   0.274   3.881
  180SAPS  H13Y20660   6.774   0.459   3.822
  180SAPS  C31420661   6.961   0.404   3.866
  180SAPS  H14X20662   6.959   0.433   3.974
  180SAPS  H14Y20663   6.991   0.492   3.807
  180SAPS  C31520664   7.047   0.286   3.850
  180SAPS  H15X20665   7.087   0.303   3.747
  180SAPS  H15Y20666   6.991   0.189   3.850
  180SAPS  C31620667   7.150   0.284   3.959
  180SAPS  H16X20668   7.198   0.384   3.962
  180SAPS  H16Y20669   7.224   0.206   3.933
  180SAPS  C31720670   7.104   0.239   4.095
  180SAPS  H17X20671   7.027   0.161   4.084
  180SAPS  H17Y20672   7.061   0.327   4.147
  180SAPS  C31820673   7.222   0.182   4.170
  180SAPS  H18X20674   7.192   0.140   4.268
  180SAPS  H18Y20675   7.298   0.262   4.185
  180SAPS  H18Z20676   7.275   0.101   4.114
  181POPC     N20677   5.604   2.657   6.290
  181POPC   C1220678   5.483   2.574   6.326
  181POPC  H12A20679   5.458   2.592   6.429
  181POPC  H12B20680   5.510   2.469   6.315
  181POPC   C1320681   5.678   2.588   6.178
  181POPC  H13A20682   5.676   2.481   6.194
  181POPC  H13B20683   5.622   2.600   6.085
  181POPC  H13C20684   5.779   2.622   6.164
  181POPC   C1420685   5.571   2.800   6.259
  181POPC  H14A20686   5.516   2.812   6.166
  181POPC  H14B20687   5.512   2.841   6.339
  181POPC  H14C20688   5.660   2.863   6.254
  181POPC   C1520689   5.692   2.665   6.410
  181POPC  H15A20690   5.780   2.723   6.388
  181POPC  H15B20691   5.720   2.567   6.445
  181POPC  H15C20692   5.637   2.715   6.490
  181POPC   C1120693   5.358   2.583   6.239
  181POPC  H11A20694   5.314   2.685   6.238
  181POPC  H11B20695   5.280   2.515   6.282
  181POPC     P20696   5.322   2.587   5.983
  181POPC   O1320697   5.393   2.535   5.864
  181POPC   O1420698   5.303   2.734   5.997
  181POPC   O1220699   5.398   2.537   6.111
  181POPC   O1120700   5.184   2.514   6.004
  181POPC    C120701   5.166   2.377   6.038
  181POPC    HA20702   5.112   2.368   6.135
  181POPC    HB20703   5.261   2.320   6.050
  181POPC    C220704   5.077   2.307   5.933
  181POPC    HS20705   5.077   2.204   5.963
  181POPC   O2120706   5.125   2.314   5.799
  181POPC   C2120707   5.233   2.249   5.780
  181POPC   O2220708   5.301   2.189   5.862
  181POPC   C2220709   5.249   2.234   5.632
  181POPC   H2R20710   5.173   2.290   5.573
  181POPC   H2S20711   5.252   2.128   5.599
  181POPC    C320712   4.932   2.359   5.929
  181POPC    HX20713   4.887   2.349   6.030
  181POPC    HY20714   4.871   2.295   5.861
  181POPC   O3120715   4.933   2.496   5.891
  181POPC   C3120716   4.932   2.519   5.761
  181POPC   O3220717   4.908   2.435   5.675
  181POPC   C3220718   4.958   2.666   5.735
  181POPC   H2X20719   4.988   2.716   5.828
  181POPC   H2Y20720   4.872   2.726   5.705
  181POPC   C2320721   5.382   2.290   5.611
  181POPC   H3R20722   5.451   2.235   5.681
  181POPC   H3S20723   5.393   2.399   5.631
  181POPC   C2420724   5.416   2.265   5.467
  181POPC   H4R20725   5.407   2.161   5.431
  181POPC   H4S20726   5.517   2.280   5.492
  181POPC   C2520727   5.386   2.371   5.362
  181POPC   H5R20728   5.280   2.395   5.374
  181POPC   H5S20729   5.385   2.324   5.261
  181POPC   C2620730   5.468   2.502   5.368
  181POPC   H6R20731   5.573   2.504   5.393
  181POPC   H6S20732   5.426   2.558   5.453
  181POPC   C2720733   5.467   2.585   5.240
  181POPC   H7R20734   5.363   2.599   5.209
  181POPC   H7S20735   5.516   2.528   5.159
  181POPC   C2820736   5.530   2.722   5.269
  181POPC   H8R20737   5.469   2.776   5.343
  181POPC   H8S20738   5.526   2.784   5.176
  181POPC   C2920739   5.666   2.719   5.327
  181POPC   H9120740   5.693   2.781   5.414
  181POPC  C21020741   5.763   2.679   5.252
  181POPC  H10120742   5.861   2.691   5.305
  181POPC  C21120743   5.751   2.630   5.104
  181POPC  H11R20744   5.681   2.549   5.090
  181POPC  H11S20745   5.838   2.575   5.071
  181POPC  C21220746   5.719   2.704   4.975
  181POPC  H12R20747   5.807   2.770   4.952
  181POPC  H12S20748   5.625   2.753   4.999
  181POPC  C21320749   5.703   2.621   4.850
  181POPC  H13R20750   5.669   2.517   4.863
  181POPC  H13S20751   5.799   2.599   4.815
  181POPC  C21420752   5.706   2.699   4.719
  181POPC  H14R20753   5.767   2.792   4.729
  181POPC  H14S20754   5.599   2.725   4.714
  181POPC  C21520755   5.766   2.620   4.600
  181POPC  H15R20756   5.750   2.511   4.614
  181POPC  H15S20757   5.873   2.635   4.575
  181POPC  C21620758   5.684   2.659   4.483
  181POPC  H16R20759   5.671   2.770   4.480
  181POPC  H16S20760   5.592   2.607   4.518
  181POPC  C21720761   5.719   2.605   4.346
  181POPC  H17R20762   5.627   2.558   4.305
  181POPC  H17S20763   5.791   2.522   4.346
  181POPC  C21820764   5.762   2.724   4.259
  181POPC  H18R20765   5.860   2.766   4.286
  181POPC  H18S20766   5.686   2.805   4.256
  181POPC  H18T20767   5.777   2.693   4.157
  181POPC   C3320768   5.059   2.673   5.622
  181POPC   H3X20769   5.110   2.576   5.602
  181POPC   H3Y20770   5.136   2.748   5.650
  181POPC   C3420771   4.995   2.708   5.489
  181POPC   H4X20772   5.084   2.718   5.422
  181POPC   H4Y20773   4.939   2.801   5.510
  181POPC   C3520774   4.896   2.611   5.428
  181POPC   H5X20775   4.807   2.623   5.492
  181POPC   H5Y20776   4.935   2.509   5.444
  181POPC   C3620777   4.859   2.631   5.280
  181POPC   H6X20778   4.840   2.738   5.257
  181POPC   H6Y20779   4.764   2.577   5.260
  181POPC   C3720780   4.968   2.576   5.186
  181POPC   H7X20781   5.001   2.475   5.218
  181POPC   H7Y20782   5.056   2.643   5.193
  181POPC   C3820783   4.921   2.569   5.040
  181POPC   H8X20784   4.854   2.656   5.022
  181POPC   H8Y20785   4.860   2.476   5.030
  181POPC   C3920786   5.039   2.563   4.940
  181POPC   H9X20787   5.099   2.656   4.951
  181POPC   H9Y20788   4.998   2.558   4.836
  181POPC  C31020789   5.132   2.443   4.965
  181POPC  H10X20790   5.079   2.350   4.935
  181POPC  H10Y20791   5.153   2.440   5.074
  181POPC  C31120792   5.270   2.440   4.897
  181POPC  H11X20793   5.321   2.348   4.934
  181POPC  H11Y20794   5.331   2.528   4.927
  181POPC  C31220795   5.264   2.435   4.745
  181POPC  H12X20796   5.231   2.535   4.708
  181POPC  H12Y20797   5.191   2.358   4.714
  181POPC  C31320798   5.395   2.394   4.678
  181POPC  H13X20799   5.409   2.286   4.702
  181POPC  H13Y20800   5.482   2.450   4.718
  181POPC  C31420801   5.376   2.411   4.527
  181POPC  H14X20802   5.458   2.402   4.457
  181POPC  H14Y20803   5.363   2.516   4.500
  181POPC  C31520804   5.271   2.312   4.479
  181POPC  H15X20805   5.175   2.354   4.515
  181POPC  H15Y20806   5.289   2.206   4.507
  181POPC  C31620807   5.252   2.310   4.336
  181POPC  H16X20808   5.306   2.235   4.276
  181POPC  H16Y20809   5.285   2.413   4.319
  181POPC  H16Z20810   5.145   2.303   4.309
  182POPC     N20811   2.921   1.428   6.210
  182POPC   C1220812   3.068   1.398   6.193
  182POPC  H12A20813   3.128   1.464   6.255
  182POPC  H12B20814   3.090   1.420   6.090
  182POPC   C1320815   2.845   1.330   6.126
  182POPC  H13A20816   2.895   1.319   6.029
  182POPC  H13B20817   2.852   1.231   6.170
  182POPC  H13C20818   2.743   1.361   6.113
  182POPC   C1420819   2.890   1.418   6.354
  182POPC  H14A20820   2.932   1.327   6.395
  182POPC  H14B20821   2.933   1.504   6.405
  182POPC  H14C20822   2.784   1.423   6.374
  182POPC   C1520823   2.883   1.566   6.167
  182POPC  H15A20824   2.950   1.641   6.207
  182POPC  H15B20825   2.782   1.591   6.200
  182POPC  H15C20826   2.883   1.574   6.059
  182POPC   C1120827   3.128   1.259   6.207
  182POPC  H11A20828   3.106   1.214   6.305
  182POPC  H11B20829   3.239   1.275   6.200
  182POPC     P20830   3.122   1.029   6.097
  182POPC   O1320831   3.006   0.944   6.071
  182POPC   O1420832   3.211   0.995   6.211
  182POPC   O1220833   3.082   1.182   6.097
  182POPC   O1120834   3.211   1.032   5.969
  182POPC    C120835   3.349   1.041   5.991
  182POPC    HA20836   3.386   0.939   6.017
  182POPC    HB20837   3.383   1.113   6.069
  182POPC    C220838   3.410   1.076   5.859
  182POPC    HS20839   3.516   1.089   5.890
  182POPC   O2120840   3.379   1.197   5.794
  182POPC   C2120841   3.465   1.231   5.698
  182POPC   O2220842   3.570   1.178   5.669
  182POPC   C2220843   3.406   1.354   5.640
  182POPC   H2R20844   3.386   1.424   5.723
  182POPC   H2S20845   3.312   1.328   5.589
  182POPC    C320846   3.367   0.951   5.773
  182POPC    HX20847   3.389   0.853   5.822
  182POPC    HY20848   3.437   0.969   5.701
  182POPC   O3120849   3.248   0.946   5.696
  182POPC   C3120850   3.261   0.917   5.565
  182POPC   O3220851   3.364   0.911   5.501
  182POPC   C3220852   3.124   0.882   5.517
  182POPC   H2X20853   3.055   0.957   5.560
  182POPC   H2Y20854   3.100   0.782   5.558
  182POPC   C2320855   3.505   1.418   5.549
  182POPC   H3R20856   3.602   1.413   5.602
  182POPC   H3S20857   3.467   1.524   5.543
  182POPC   C2420858   3.527   1.355   5.412
  182POPC   H4R20859   3.611   1.284   5.407
  182POPC   H4S20860   3.566   1.430   5.343
  182POPC   C2520861   3.399   1.304   5.348
  182POPC   H5R20862   3.322   1.388   5.357
  182POPC   H5S20863   3.366   1.212   5.395
  182POPC   C2620864   3.425   1.265   5.204
  182POPC   H6R20865   3.526   1.247   5.163
  182POPC   H6S20866   3.444   1.367   5.201
  182POPC   C2720867   3.307   1.203   5.120
  182POPC   H7R20868   3.273   1.125   5.190
  182POPC   H7S20869   3.357   1.166   5.029
  182POPC   C2820870   3.172   1.267   5.068
  182POPC   H8R20871   3.146   1.340   5.149
  182POPC   H8S20872   3.082   1.207   5.063
  182POPC   C2920873   3.171   1.317   4.925
  182POPC   H9120874   3.260   1.346   4.861
  182POPC  C21020875   3.075   1.378   4.878
  182POPC  H10120876   3.130   1.468   4.865
  182POPC  C21120877   2.943   1.416   4.918
  182POPC  H11R20878   2.905   1.517   4.933
  182POPC  H11S20879   2.923   1.382   5.016
  182POPC  C21220880   2.888   1.338   4.803
  182POPC  H12R20881   2.787   1.319   4.829
  182POPC  H12S20882   2.930   1.236   4.789
  182POPC  C21320883   2.889   1.413   4.672
  182POPC  H13R20884   2.986   1.371   4.667
  182POPC  H13S20885   2.894   1.524   4.675
  182POPC  C21420886   2.810   1.359   4.556
  182POPC  H14R20887   2.830   1.396   4.458
  182POPC  H14S20888   2.707   1.391   4.568
  182POPC  C21520889   2.838   1.213   4.540
  182POPC  H15R20890   2.802   1.170   4.635
  182POPC  H15S20891   2.948   1.193   4.530
  182POPC  C21620892   2.764   1.162   4.418
  182POPC  H16R20893   2.812   1.209   4.330
  182POPC  H16S20894   2.663   1.207   4.417
  182POPC  C21720895   2.764   1.009   4.409
  182POPC  H17R20896   2.746   0.970   4.511
  182POPC  H17S20897   2.867   0.975   4.382
  182POPC  C21820898   2.659   0.946   4.317
  182POPC  H18R20899   2.671   0.835   4.317
  182POPC  H18S20900   2.660   0.981   4.212
  182POPC  H18T20901   2.559   0.970   4.359
  182POPC   C3320902   3.117   0.881   5.364
  182POPC   H3X20903   3.212   0.845   5.319
  182POPC   H3Y20904   3.101   0.985   5.329
  182POPC   C3420905   3.006   0.788   5.314
  182POPC   H4X20906   2.909   0.812   5.363
  182POPC   H4Y20907   3.025   0.683   5.344
  182POPC   C3520908   2.992   0.791   5.161
  182POPC   H5X20909   2.910   0.722   5.135
  182POPC   H5Y20910   3.084   0.753   5.115
  182POPC   C3620911   2.957   0.930   5.104
  182POPC   H6X20912   3.035   1.006   5.125
  182POPC   H6Y20913   2.861   0.961   5.149
  182POPC   C3720914   2.931   0.931   4.953
  182POPC   H7X20915   2.880   1.023   4.923
  182POPC   H7Y20916   2.867   0.843   4.930
  182POPC   C3820917   3.060   0.927   4.873
  182POPC   H8X20918   3.064   0.818   4.877
  182POPC   H8Y20919   3.147   0.972   4.927
  182POPC   C3920920   3.045   0.969   4.726
  182POPC   H9X20921   2.982   1.058   4.723
  182POPC   H9Y20922   2.993   0.885   4.675
  182POPC  C31020923   3.173   0.992   4.643
  182POPC  H10X20924   3.155   0.987   4.533
  182POPC  H10Y20925   3.219   0.899   4.664
  182POPC  C31120926   3.268   1.111   4.672
  182POPC  H11X20927   3.327   1.111   4.767
  182POPC  H11Y20928   3.201   1.194   4.692
  182POPC  C31220929   3.371   1.135   4.560
  182POPC  H12X20930   3.313   1.149   4.466
  182POPC  H12Y20931   3.439   1.050   4.544
  182POPC  C31320932   3.473   1.247   4.587
  182POPC  H13X20933   3.542   1.259   4.501
  182POPC  H13Y20934   3.527   1.228   4.681
  182POPC  C31420935   3.410   1.380   4.602
  182POPC  H14X20936   3.464   1.459   4.658
  182POPC  H14Y20937   3.331   1.349   4.672
  182POPC  C31520938   3.359   1.431   4.468
  182POPC  H15X20939   3.311   1.532   4.483
  182POPC  H15Y20940   3.298   1.355   4.415
  182POPC  C31620941   3.443   1.484   4.365
  182POPC  H16X20942   3.529   1.503   4.432
  182POPC  H16Y20943   3.388   1.572   4.321
  182POPC  H16Z20944   3.464   1.412   4.288
  183POPC     N20945   3.887   7.296   6.281
  183POPC   C1220946   3.967   7.275   6.157
  183POPC  H12A20947   4.050   7.209   6.182
  183POPC  H12B20948   4.010   7.372   6.132
  183POPC   C1320949   3.830   7.175   6.350
  183POPC  H13A20950   3.768   7.203   6.435
  183POPC  H13B20951   3.766   7.121   6.279
  183POPC  H13C20952   3.906   7.105   6.382
  183POPC   C1420953   3.987   7.355   6.367
  183POPC  H14A20954   4.066   7.290   6.403
  183POPC  H14B20955   4.025   7.452   6.337
  183POPC  H14C20956   3.923   7.363   6.452
  183POPC   C1520957   3.771   7.387   6.257
  183POPC  H15A20958   3.744   7.380   6.152
  183POPC  H15B20959   3.794   7.490   6.279
  183POPC  H15C20960   3.682   7.352   6.310
  183POPC   C1120961   3.894   7.225   6.035
  183POPC  H11A20962   3.972   7.207   5.957
  183POPC  H11B20963   3.826   7.304   5.996
  183POPC     P20964   3.866   6.967   6.035
  183POPC   O1320965   3.781   6.874   6.112
  183POPC   O1420966   4.012   6.966   6.058
  183POPC   O1220967   3.818   7.111   6.071
  183POPC   O1120968   3.829   6.969   5.879
  183POPC    C120969   3.942   6.965   5.795
  183POPC    HA20970   3.983   6.868   5.820
  183POPC    HB20971   4.018   7.044   5.822
  183POPC    C220972   3.920   6.993   5.643
  183POPC    HS20973   4.021   6.992   5.595
  183POPC   O2120974   3.844   7.107   5.625
  183POPC   C2120975   3.917   7.209   5.621
  183POPC   O2220976   4.039   7.213   5.626
  183POPC   C2220977   3.821   7.321   5.598
  183POPC   H2R20978   3.769   7.343   5.694
  183POPC   H2S20979   3.744   7.281   5.528
  183POPC    C320980   3.845   6.896   5.561
  183POPC    HX20981   3.760   6.868   5.627
  183POPC    HY20982   3.927   6.830   5.557
  183POPC   O3120983   3.823   6.920   5.420
  183POPC   C3120984   3.934   6.902   5.343
  183POPC   O3220985   4.039   6.854   5.371
  183POPC   C3220986   3.913   6.938   5.208
  183POPC   H2X20987   3.818   6.989   5.215
  183POPC   H2Y20988   3.911   6.847   5.146
  183POPC   C2320989   3.900   7.440   5.545
  183POPC   H3R20990   3.986   7.407   5.482
  183POPC   H3S20991   3.937   7.499   5.631
  183POPC   C2420992   3.821   7.535   5.459
  183POPC   H4R20993   3.885   7.619   5.425
  183POPC   H4S20994   3.731   7.574   5.513
  183POPC   C2520995   3.775   7.471   5.335
  183POPC   H5R20996   3.720   7.381   5.363
  183POPC   H5S20997   3.852   7.432   5.265
  183POPC   C2620998   3.690   7.570   5.268
  183POPC   H6R20999   3.716   7.667   5.224
  183POPC   H6S21000   3.591   7.588   5.327
  183POPC   C2721001   3.675   7.506   5.137
  183POPC   H7R21002   3.570   7.554   5.120
  183POPC   H7S21003   3.602   7.451   5.198
  183POPC   C2821004   3.768   7.381   5.002
  183POPC   H8R21005   3.813   7.301   5.054
  183POPC   H8S21006   3.835   7.459   5.024
  183POPC   C2921007   3.698   7.323   4.836
  183POPC   H9121008   3.590   7.345   4.800
  183POPC  C21021009   3.675   7.205   4.785
  183POPC  H10121010   3.563   7.170   4.788
  183POPC  C21121011   3.736   7.123   4.883
  183POPC  H11R21012   3.673   7.107   4.970
  183POPC  H11S21013   3.833   7.159   4.918
  183POPC  C21221014   3.790   7.018   4.792
  183POPC  H12R21015   3.701   6.979   4.744
  183POPC  H12S21016   3.851   6.948   4.854
  183POPC  C21321017   3.852   7.049   4.662
  183POPC  H13R21018   3.947   7.087   4.701
  183POPC  H13S21019   3.790   7.122   4.607
  183POPC  C21421020   3.866   6.929   4.571
  183POPC  H14R21021   3.949   6.960   4.503
  183POPC  H14S21022   3.780   6.909   4.506
  183POPC  C21521023   3.904   6.804   4.646
  183POPC  H15R21024   3.826   6.757   4.708
  183POPC  H15S21025   3.986   6.837   4.713
  183POPC  C21621026   3.949   6.700   4.551
  183POPC  H16R21027   4.000   6.619   4.607
  183POPC  H16S21028   4.020   6.752   4.484
  183POPC  C21721029   3.843   6.646   4.466
  183POPC  H17R21030   3.811   6.710   4.383
  183POPC  H17S21031   3.760   6.615   4.533
  183POPC  C21821032   3.899   6.534   4.394
  183POPC  H18R21033   3.987   6.524   4.333
  183POPC  H18S21034   3.845   6.446   4.381
  183POPC  H18T21035   3.885   6.451   4.449
  183POPC   C3321036   4.032   7.018   5.159
  183POPC   H3X21037   4.032   7.008   5.049
  183POPC   H3Y21038   4.130   6.979   5.196
  183POPC   C3421039   4.014   7.162   5.200
  183POPC   H4X21040   4.029   7.169   5.310
  183POPC   H4Y21041   3.910   7.194   5.179
  183POPC   C3521042   4.115   7.254   5.130
  183POPC   H5X21043   4.218   7.217   5.150
  183POPC   H5Y21044   4.104   7.353   5.180
  183POPC   C3621045   4.098   7.271   4.978
  183POPC   H6X21046   4.020   7.348   4.961
  183POPC   H6Y21047   4.062   7.178   4.927
  183POPC   C3721048   4.226   7.321   4.910
  183POPC   H7X21049   4.310   7.248   4.915
  183POPC   H7Y21050   4.256   7.413   4.965
  183POPC   C3821051   4.214   7.356   4.763
  183POPC   H8X21052   4.238   7.267   4.701
  183POPC   H8Y21053   4.283   7.440   4.739
  183POPC   C3921054   4.080   7.403   4.713
  183POPC   H9X21055   4.051   7.492   4.774
  183POPC   H9Y21056   4.001   7.326   4.723
  183POPC  C31021057   4.109   7.440   4.569
  183POPC  H10X21058   4.157   7.357   4.511
  183POPC  H10Y21059   4.164   7.537   4.562
  183POPC  C31121060   3.998   7.446   4.475
  183POPC  H11X21061   4.033   7.515   4.395
  183POPC  H11Y21062   3.941   7.530   4.468
  183POPC  C31221063   3.883   7.342   4.494
  183POPC  H12X21064   3.782   7.373   4.465
  183POPC  H12Y21065   3.851   7.324   4.597
  183POPC  C31321066   3.904   7.231   4.397
  183POPC  H13X21067   3.980   7.165   4.438
  183POPC  H13Y21068   3.961   7.278   4.314
  183POPC  C31421069   3.777   7.165   4.343
  183POPC  H14X21070   3.694   7.228   4.300
  183POPC  H14Y21071   3.723   7.121   4.428
  183POPC  C31521072   3.818   7.067   4.227
  183POPC  H15X21073   3.728   7.035   4.175
  183POPC  H15Y21074   3.871   6.985   4.278
  183POPC  C31621075   3.880   7.108   4.097
  183POPC  H16X21076   3.803   7.169   4.039
  183POPC  H16Y21077   3.922   7.033   4.031
  183POPC  H16Z21078   3.961   7.169   4.136
  184POPC     N21079   4.649   7.449   6.235
  184POPC   C1221080   4.680   7.318   6.323
  184POPC  H12A21081   4.602   7.289   6.392
  184POPC  H12B21082   4.762   7.361   6.386
  184POPC   C1321083   4.755   7.542   6.169
  184POPC  H13A21084   4.834   7.480   6.123
  184POPC  H13B21085   4.725   7.604   6.084
  184POPC  H13C21086   4.817   7.599   6.238
  184POPC   C1421087   4.573   7.395   6.122
  184POPC  H14A21088   4.493   7.334   6.160
  184POPC  H14B21089   4.538   7.474   6.058
  184POPC  H14C21090   4.639   7.329   6.065
  184POPC   C1521091   4.567   7.547   6.313
  184POPC  H15A21092   4.614   7.575   6.407
  184POPC  H15B21093   4.472   7.502   6.333
  184POPC  H15C21094   4.558   7.639   6.255
  184POPC   C1121095   4.742   7.174   6.256
  184POPC  H11A21096   4.654   7.111   6.236
  184POPC  H11B21097   4.816   7.130   6.332
  184POPC     P21098   4.924   7.111   6.050
  184POPC   O1321099   4.968   7.162   5.920
  184POPC   O1421100   4.858   6.986   6.070
  184POPC   O1221101   4.811   7.190   6.128
  184POPC   O1121102   5.054   7.096   6.122
  184POPC    C121103   5.124   7.210   6.149
  184POPC    HA21104   5.141   7.175   6.247
  184POPC    HB21105   5.083   7.305   6.168
  184POPC    C221106   5.240   7.251   6.066
  184POPC    HS21107   5.295   7.319   6.132
  184POPC   O2121108   5.211   7.311   5.936
  184POPC   C2121109   5.109   7.393   5.923
  184POPC   O2221110   5.025   7.423   6.005
  184POPC   C2221111   5.093   7.441   5.785
  184POPC   H2R21112   5.120   7.357   5.723
  184POPC   H2S21113   5.168   7.502   5.736
  184POPC    C321114   5.336   7.137   6.046
  184POPC    HX21115   5.371   7.092   6.140
  184POPC    HY21116   5.421   7.177   6.005
  184POPC   O3121117   5.295   7.042   5.957
  184POPC   C3121118   5.291   7.070   5.834
  184POPC   O3221119   5.346   7.156   5.768
  184POPC   C3221120   5.236   6.950   5.779
  184POPC   H2X21121   5.134   6.929   5.811
  184POPC   H2Y21122   5.314   6.881   5.809
  184POPC   C2321123   4.950   7.504   5.791
  184POPC   H3R21124   4.940   7.601   5.845
  184POPC   H3S21125   4.878   7.437   5.843
  184POPC   C2421126   4.910   7.537   5.653
  184POPC   H4R21127   5.002   7.572   5.600
  184POPC   H4S21128   4.831   7.614   5.648
  184POPC   C2521129   4.868   7.408   5.594
  184POPC   H5R21130   4.796   7.355   5.658
  184POPC   H5S21131   4.963   7.354   5.600
  184POPC   C2621132   4.826   7.421   5.450
  184POPC   H6R21133   4.734   7.482   5.446
  184POPC   H6S21134   4.802   7.319   5.411
  184POPC   C2721135   4.934   7.482   5.361
  184POPC   H7R21136   5.033   7.437   5.384
  184POPC   H7S21137   4.940   7.591   5.383
  184POPC   C2821138   4.900   7.461   5.214
  184POPC   H8R21139   4.793   7.481   5.192
  184POPC   H8S21140   4.915   7.353   5.192
  184POPC   C2921141   4.983   7.554   5.132
  184POPC   H9121142   4.940   7.652   5.119
  184POPC  C21021143   5.105   7.530   5.085
  184POPC  H10121144   5.162   7.601   5.025
  184POPC  C21121145   5.171   7.402   5.110
  184POPC  H11R21146   5.176   7.378   5.219
  184POPC  H11S21147   5.273   7.411   5.073
  184POPC  C21221148   5.112   7.290   5.030
  184POPC  H12R21149   5.010   7.262   5.061
  184POPC  H12S21150   5.169   7.201   5.064
  184POPC  C21321151   5.096   7.320   4.879
  184POPC  H13R21152   5.042   7.413   4.860
  184POPC  H13S21153   5.041   7.236   4.832
  184POPC  C21421154   5.220   7.348   4.799
  184POPC  H14R21155   5.211   7.241   4.770
  184POPC  H14S21156   5.311   7.379   4.856
  184POPC  C21521157   5.223   7.402   4.658
  184POPC  H15R21158   5.325   7.406   4.614
  184POPC  H15S21159   5.186   7.504   4.672
  184POPC  C21621160   5.139   7.317   4.563
  184POPC  H16R21161   5.125   7.382   4.474
  184POPC  H16S21162   5.040   7.297   4.609
  184POPC  C21721163   5.210   7.188   4.519
  184POPC  H17R21164   5.201   7.109   4.598
  184POPC  H17S21165   5.320   7.208   4.509
  184POPC  C21821166   5.163   7.139   4.383
  184POPC  H18R21167   5.067   7.188   4.356
  184POPC  H18S21168   5.149   7.029   4.378
  184POPC  H18T21169   5.240   7.168   4.308
  184POPC   C3321170   5.223   6.959   5.638
  184POPC   H3X21171   5.328   6.968   5.606
  184POPC   H3Y21172   5.188   7.062   5.629
  184POPC   C3421173   5.119   6.861   5.570
  184POPC   H4X21174   5.044   6.815   5.633
  184POPC   H4Y21175   5.180   6.793   5.529
  184POPC   C3521176   5.043   6.875   5.437
  184POPC   H5X21177   5.129   6.890   5.374
  184POPC   H5Y21178   4.979   6.951   5.398
  184POPC   C3621179   4.920   6.781   5.429
  184POPC   H6X21180   4.845   6.790   5.500
  184POPC   H6Y21181   4.976   6.702   5.457
  184POPC   C3721182   4.823   6.744   5.314
  184POPC   H7X21183   4.780   6.654   5.273
  184POPC   H7Y21184   4.884   6.675   5.273
  184POPC   C3821185   4.779   6.851   5.225
  184POPC   H8X21186   4.849   6.942   5.250
  184POPC   H8Y21187   4.699   6.845   5.285
  184POPC   C3921188   4.683   6.829   5.077
  184POPC   H9X21189   4.669   6.733   5.047
  184POPC   H9Y21190   4.786   6.828   5.088
  184POPC  C31021191   4.595   6.965   4.946
  184POPC  H10X21192   4.628   7.085   4.945
  184POPC  H10Y21193   4.497   6.968   4.961
  184POPC  C31121194   4.624   7.052   4.813
  184POPC  H11X21195   4.539   7.128   4.808
  184POPC  H11Y21196   4.587   6.959   4.772
  184POPC  C31221197   4.761   7.124   4.762
  184POPC  H12X21198   4.828   7.043   4.752
  184POPC  H12Y21199   4.853   7.174   4.795
  184POPC  C31321200   4.754   7.174   4.630
  184POPC  H13X21201   4.663   7.129   4.588
  184POPC  H13Y21202   4.850   7.152   4.576
  184POPC  C31421203   4.686   7.293   4.627
  184POPC  H14X21204   4.772   7.347   4.669
  184POPC  H14Y21205   4.600   7.275   4.698
  184POPC  C31521206   4.642   7.301   4.483
  184POPC  H15X21207   4.560   7.231   4.453
  184POPC  H15Y21208   4.730   7.290   4.415
  184POPC  C31621209   4.606   7.434   4.476
  184POPC  H16X21210   4.708   7.482   4.479
  184POPC  H16Y21211   4.548   7.458   4.569
  184POPC  H16Z21212   4.550   7.458   4.385
  185POPC     N21213   4.444   3.029   2.127
  185POPC   C1221214   4.334   3.026   2.232
  185POPC  H12A21215   4.314   2.922   2.257
  185POPC  H12B21216   4.245   3.073   2.193
  185POPC   C1321217   4.484   3.171   2.102
  185POPC  H13A21218   4.560   3.181   2.025
  185POPC  H13B21219   4.397   3.227   2.070
  185POPC  H13C21220   4.523   3.219   2.192
  185POPC   C1421221   4.559   2.944   2.172
  185POPC  H14A21222   4.519   2.845   2.189
  185POPC  H14B21223   4.641   2.938   2.101
  185POPC  H14C21224   4.596   2.977   2.269
  185POPC   C1521225   4.396   2.968   1.999
  185POPC  H15A21226   4.481   2.947   1.934
  185POPC  H15B21227   4.331   3.036   1.946
  185POPC  H15C21228   4.344   2.875   2.019
  185POPC   C1121229   4.360   3.091   2.367
  185POPC  H11A21230   4.267   3.089   2.428
  185POPC  H11B21231   4.394   3.197   2.357
  185POPC     P21232   4.524   3.062   2.560
  185POPC   O1321233   4.454   3.187   2.594
  185POPC   O1421234   4.666   3.060   2.525
  185POPC   O1221235   4.454   3.008   2.432
  185POPC   O1121236   4.480   2.959   2.669
  185POPC    C121237   4.337   2.935   2.682
  185POPC    HA21238   4.288   2.922   2.582
  185POPC    HB21239   4.288   3.019   2.735
  185POPC    C221240   4.302   2.806   2.758
  185POPC    HS21241   4.194   2.782   2.745
  185POPC   O2121242   4.337   2.818   2.899
  185POPC   C2121243   4.255   2.901   2.963
  185POPC   O2221244   4.143   2.930   2.927
  185POPC   C2221245   4.320   2.958   3.088
  185POPC   H2R21246   4.255   3.039   3.127
  185POPC   H2S21247   4.416   3.005   3.060
  185POPC    C321248   4.379   2.696   2.689
  185POPC    HX21249   4.358   2.680   2.583
  185POPC    HY21250   4.337   2.602   2.729
  185POPC   O3121251   4.519   2.729   2.703
  185POPC   C3121252   4.571   2.640   2.776
  185POPC   O3221253   4.511   2.538   2.796
  185POPC   C3221254   4.712   2.676   2.813
  185POPC   H2X21255   4.770   2.661   2.722
  185POPC   H2Y21256   4.783   2.612   2.866
  185POPC   C2321257   4.336   2.850   3.197
  185POPC   H3R21258   4.407   2.770   3.165
  185POPC   H3S21259   4.237   2.805   3.219
  185POPC   C2421260   4.382   2.915   3.326
  185POPC   H4R21261   4.300   2.978   3.363
  185POPC   H4S21262   4.473   2.977   3.306
  185POPC   C2521263   4.410   2.816   3.435
  185POPC   H5R21264   4.324   2.752   3.464
  185POPC   H5S21265   4.448   2.870   3.525
  185POPC   C2621266   4.514   2.723   3.392
  185POPC   H6R21267   4.603   2.788   3.372
  185POPC   H6S21268   4.506   2.649   3.310
  185POPC   C2721269   4.525   2.631   3.503
  185POPC   H7R21270   4.465   2.538   3.521
  185POPC   H7S21271   4.508   2.687   3.599
  185POPC   C2821272   4.662   2.590   3.458
  185POPC   H8R21273   4.669   2.534   3.365
  185POPC   H8S21274   4.647   2.495   3.516
  185POPC   C2921275   4.779   2.695   3.486
  185POPC   H9121276   4.863   2.674   3.418
  185POPC  C21021277   4.832   2.754   3.601
  185POPC  H10121278   4.937   2.730   3.598
  185POPC  C21121279   4.821   2.777   3.758
  185POPC  H11R21280   4.909   2.744   3.823
  185POPC  H11S21281   4.777   2.717   3.833
  185POPC  C21221282   4.738   2.895   3.778
  185POPC  H12R21283   4.648   2.886   3.714
  185POPC  H12S21284   4.799   2.980   3.744
  185POPC  C21321285   4.694   2.906   3.922
  185POPC  H13R21286   4.641   2.815   3.959
  185POPC  H13S21287   4.628   2.995   3.926
  185POPC  C21421288   4.810   2.927   4.015
  185POPC  H14R21289   4.891   2.967   3.957
  185POPC  H14S21290   4.848   2.835   4.063
  185POPC  C21521291   4.778   3.036   4.114
  185POPC  H15R21292   4.758   3.133   4.065
  185POPC  H15S21293   4.877   3.053   4.152
  185POPC  C21621294   4.673   2.978   4.212
  185POPC  H16R21295   4.718   2.894   4.268
  185POPC  H16S21296   4.589   2.949   4.147
  185POPC  C21721297   4.594   3.064   4.307
  185POPC  H17R21298   4.640   3.084   4.405
  185POPC  H17S21299   4.493   3.038   4.337
  185POPC  C21821300   4.575   3.183   4.233
  185POPC  H18R21301   4.684   3.205   4.248
  185POPC  H18S21302   4.517   3.257   4.290
  185POPC  H18T21303   4.568   3.206   4.126
  185POPC   C3321304   4.702   2.809   2.883
  185POPC   H3X21305   4.624   2.829   2.959
  185POPC   H3Y21306   4.697   2.881   2.797
  185POPC   C3421307   4.823   2.820   2.966
  185POPC   H4X21308   4.876   2.819   2.870
  185POPC   H4Y21309   4.875   2.730   3.004
  185POPC   C3521310   4.826   2.941   3.063
  185POPC   H5X21311   4.787   3.031   3.012
  185POPC   H5Y21312   4.923   2.976   3.108
  185POPC   C3621313   4.769   2.910   3.196
  185POPC   H6X21314   4.828   2.826   3.241
  185POPC   H6Y21315   4.667   2.881   3.170
  185POPC   C3721316   4.776   3.033   3.286
  185POPC   H7X21317   4.883   3.057   3.310
  185POPC   H7Y21318   4.725   3.001   3.378
  185POPC   C3821319   4.701   3.155   3.230
  185POPC   H8X21320   4.601   3.119   3.196
  185POPC   H8Y21321   4.751   3.199   3.141
  185POPC   C3921322   4.678   3.266   3.334
  185POPC   H9X21323   4.639   3.355   3.281
  185POPC   H9Y21324   4.776   3.294   3.380
  185POPC  C31021325   4.571   3.227   3.438
  185POPC  H10X21326   4.591   3.125   3.480
  185POPC  H10Y21327   4.475   3.220   3.383
  185POPC  C31121328   4.551   3.326   3.554
  185POPC  H11X21329   4.524   3.425   3.511
  185POPC  H11Y21330   4.643   3.336   3.615
  185POPC  C31221331   4.436   3.287   3.646
  185POPC  H12X21332   4.343   3.291   3.584
  185POPC  H12Y21333   4.425   3.363   3.727
  185POPC  C31321334   4.447   3.146   3.705
  185POPC  H13X21335   4.546   3.130   3.753
  185POPC  H13Y21336   4.436   3.075   3.620
  185POPC  C31421337   4.334   3.126   3.806
  185POPC  H14X21338   4.237   3.146   3.754
  185POPC  H14Y21339   4.352   3.206   3.881
  185POPC  C31521340   4.318   2.993   3.881
  185POPC  H15X21341   4.414   2.955   3.920
  185POPC  H15Y21342   4.275   2.914   3.815
  185POPC  C31621343   4.227   3.020   4.001
  185POPC  H16X21344   4.238   2.940   4.077
  185POPC  H16Y21345   4.119   3.030   3.974
  185POPC  H16Z21346   4.258   3.116   4.048
  186POPC     N21347   4.738   4.264   2.360
  186POPC   C1221348   4.655   4.360   2.445
  186POPC  H12A21349   4.717   4.405   2.523
  186POPC  H12B21350   4.575   4.307   2.495
  186POPC   C1321351   4.666   4.213   2.240
  186POPC  H13A21352   4.729   4.137   2.195
  186POPC  H13B21353   4.572   4.166   2.267
  186POPC  H13C21354   4.653   4.294   2.171
  186POPC   C1421355   4.864   4.332   2.316
  186POPC  H14A21356   4.837   4.417   2.252
  186POPC  H14B21357   4.919   4.373   2.400
  186POPC  H14C21358   4.927   4.264   2.262
  186POPC   C1521359   4.775   4.143   2.428
  186POPC  H15A21360   4.686   4.100   2.472
  186POPC  H15B21361   4.842   4.169   2.509
  186POPC  H15C21362   4.827   4.070   2.370
  186POPC   C1121363   4.587   4.475   2.366
  186POPC  H11A21364   4.532   4.543   2.437
  186POPC  H11B21365   4.511   4.428   2.300
  186POPC     P21366   4.746   4.680   2.324
  186POPC   O1321367   4.644   4.783   2.353
  186POPC   O1421368   4.856   4.705   2.229
  186POPC   O1221369   4.676   4.545   2.281
  186POPC   O1121370   4.807   4.625   2.460
  186POPC    C121371   4.880   4.712   2.545
  186POPC    HA21372   4.816   4.797   2.581
  186POPC    HB21373   4.968   4.754   2.491
  186POPC    C221374   4.928   4.632   2.668
  186POPC    HS21375   4.978   4.538   2.635
  186POPC   O2121376   4.806   4.605   2.736
  186POPC   C2121377   4.799   4.542   2.846
  186POPC   O2221378   4.887   4.477   2.901
  186POPC   C2221379   4.660   4.576   2.898
  186POPC   H2R21380   4.591   4.608   2.818
  186POPC   H2S21381   4.673   4.655   2.974
  186POPC    C321382   5.032   4.710   2.753
  186POPC    HX21383   5.097   4.766   2.682
  186POPC    HY21384   5.093   4.635   2.808
  186POPC   O3121385   4.972   4.799   2.845
  186POPC   C3121386   5.055   4.839   2.939
  186POPC   O3221387   5.176   4.824   2.943
  186POPC   C3221388   4.978   4.924   3.032
  186POPC   H2X21389   4.907   4.978   2.965
  186POPC   H2Y21390   5.045   4.994   3.088
  186POPC   C2321391   4.598   4.459   2.966
  186POPC   H3R21392   4.661   4.432   3.045
  186POPC   H3S21393   4.596   4.375   2.901
  186POPC   C2421394   4.464   4.477   3.026
  186POPC   H4R21395   4.449   4.380   3.081
  186POPC   H4S21396   4.392   4.492   2.942
  186POPC   C2521397   4.454   4.590   3.122
  186POPC   H5R21398   4.350   4.619   3.135
  186POPC   H5S21399   4.500   4.680   3.080
  186POPC   C2621400   4.517   4.554   3.254
  186POPC   H6R21401   4.626   4.543   3.236
  186POPC   H6S21402   4.475   4.458   3.293
  186POPC   C2721403   4.499   4.669   3.352
  186POPC   H7R21404   4.396   4.663   3.385
  186POPC   H7S21405   4.506   4.768   3.305
  186POPC   C2821406   4.597   4.674   3.466
  186POPC   H8R21407   4.572   4.749   3.543
  186POPC   H8S21408   4.702   4.672   3.433
  186POPC   C2921409   4.575   4.556   3.539
  186POPC   H9121410   4.469   4.529   3.525
  186POPC  C21021411   4.674   4.480   3.591
  186POPC  H10121412   4.662   4.387   3.639
  186POPC  C21121413   4.816   4.476   3.601
  186POPC  H11R21414   4.814   4.566   3.659
  186POPC  H11S21415   4.848   4.476   3.497
  186POPC  C21221416   4.889   4.374   3.693
  186POPC  H12R21417   4.840   4.368   3.794
  186POPC  H12S21418   4.991   4.412   3.693
  186POPC  C21321419   4.962   4.242   3.656
  186POPC  H13R21420   4.971   4.194   3.558
  186POPC  H13S21421   4.875   4.210   3.708
  186POPC  C21421422   4.994   4.117   3.732
  186POPC  H14R21423   5.097   4.111   3.701
  186POPC  H14S21424   4.932   4.038   3.685
  186POPC  C21521425   4.985   4.113   3.879
  186POPC  H15R21426   4.989   4.211   3.929
  186POPC  H15S21427   5.023   4.013   3.916
  186POPC  C21621428   4.852   4.103   3.924
  186POPC  H16R21429   4.843   3.995   3.882
  186POPC  H16S21430   4.793   4.169   3.860
  186POPC  C21721431   4.807   4.139   4.075
  186POPC  H17R21432   4.874   4.205   4.124
  186POPC  H17S21433   4.839   4.043   4.120
  186POPC  C21821434   4.668   4.201   4.131
  186POPC  H18R21435   4.642   4.182   4.238
  186POPC  H18S21436   4.593   4.146   4.072
  186POPC  H18T21437   4.558   4.177   4.120
  186POPC   C3321438   4.873   4.859   3.117
  186POPC   H3X21439   4.795   4.815   3.053
  186POPC   H3Y21440   4.824   4.935   3.178
  186POPC   C3421441   4.938   4.771   3.212
  186POPC   H4X21442   4.983   4.686   3.157
  186POPC   H4Y21443   4.860   4.736   3.284
  186POPC   C3521444   5.043   4.843   3.287
  186POPC   H5X21445   5.017   4.948   3.320
  186POPC   H5Y21446   5.144   4.852   3.241
  186POPC   C3621447   5.060   4.750   3.400
  186POPC   H6X21448   5.100   4.654   3.373
  186POPC   H6Y21449   4.967   4.723   3.457
  186POPC   C3721450   5.157   4.827   3.468
  186POPC   H7X21451   5.177   4.930   3.429
  186POPC   H7Y21452   5.243   4.800   3.526
  186POPC   C3821453   5.076   4.846   3.567
  186POPC   H8X21454   5.017   4.925   3.513
  186POPC   H8Y21455   5.121   4.948   3.594
  186POPC   C3921456   5.009   4.728   3.693
  186POPC   H9X21457   5.072   4.654   3.742
  186POPC   H9Y21458   4.919   4.700   3.646
  186POPC  C31021459   4.919   4.741   3.841
  186POPC  H10X21460   4.813   4.759   3.835
  186POPC  H10Y21461   4.952   4.831   3.886
  186POPC  C31121462   4.928   4.753   3.992
  186POPC  H11X21463   4.886   4.843   4.047
  186POPC  H11Y21464   5.025   4.749   4.041
  186POPC  C31221465   4.813   4.667   4.001
  186POPC  H12X21466   4.833   4.577   3.936
  186POPC  H12Y21467   4.713   4.695   3.952
  186POPC  C31321468   4.792   4.676   4.140
  186POPC  H13X21469   4.768   4.774   4.188
  186POPC  H13Y21470   4.883   4.631   4.182
  186POPC  C31421471   4.679   4.593   4.129
  186POPC  H14X21472   4.693   4.553   4.226
  186POPC  H14Y21473   4.722   4.505   4.077
  186POPC  C31521474   4.540   4.658   4.073
  186POPC  H15X21475   4.442   4.612   4.106
  186POPC  H15Y21476   4.504   4.636   3.969
  186POPC  C31621477   4.518   4.792   4.129
  186POPC  H16X21478   4.529   4.874   4.076
  186POPC  H16Y21479   4.470   4.828   4.219
  186POPC  H16Z21480   4.436   4.783   4.074
  187POPC     N21481   4.980   1.294   2.489
  187POPC   C1221482   4.860   1.360   2.428
  187POPC  H12A21483   4.844   1.456   2.478
  187POPC  H12B21484   4.777   1.296   2.453
  187POPC   C1321485   5.003   1.168   2.412
  187POPC  H13A21486   5.110   1.148   2.414
  187POPC  H13B21487   4.958   1.082   2.460
  187POPC  H13C21488   4.977   1.174   2.307
  187POPC   C1421489   5.097   1.386   2.484
  187POPC  H14A21490   5.138   1.391   2.384
  187POPC  H14B21491   5.064   1.486   2.510
  187POPC  H14C21492   5.176   1.354   2.552
  187POPC   C1521493   4.959   1.267   2.635
  187POPC  H15A21494   5.038   1.207   2.677
  187POPC  H15B21495   4.868   1.212   2.650
  187POPC  H15C21496   4.944   1.356   2.695
  187POPC   C1121497   4.851   1.386   2.277
  187POPC  H11A21498   4.755   1.445   2.264
  187POPC  H11B21499   4.837   1.295   2.217
  187POPC     P21500   4.957   1.608   2.203
  187POPC   O1321501   4.863   1.633   2.090
  187POPC   O1421502   5.089   1.675   2.204
  187POPC   O1221503   4.967   1.452   2.226
  187POPC   O1121504   4.887   1.638   2.339
  187POPC    C121505   4.848   1.772   2.338
  187POPC    HA21506   4.756   1.784   2.273
  187POPC    HB21507   4.924   1.846   2.311
  187POPC    C221508   4.822   1.801   2.481
  187POPC    HS21509   4.806   1.910   2.498
  187POPC   O2121510   4.916   1.757   2.578
  187POPC   C2121511   5.015   1.830   2.608
  187POPC   O2221512   5.049   1.936   2.561
  187POPC   C2221513   5.073   1.762   2.733
  187POPC   H2R21514   5.149   1.690   2.698
  187POPC   H2S21515   4.992   1.710   2.789
  187POPC    C321516   4.696   1.720   2.510
  187POPC    HX21517   4.662   1.770   2.423
  187POPC    HY21518   4.700   1.764   2.610
  187POPC   O3121519   4.552   1.692   2.477
  187POPC   C3121520   4.413   1.627   2.535
  187POPC   O3221521   4.324   1.671   2.472
  187POPC   C3221522   4.398   1.446   2.679
  187POPC   H2X21523   4.453   1.388   2.624
  187POPC   H2Y21524   4.300   1.454   2.678
  187POPC   C2321525   5.134   1.864   2.826
  187POPC   H3R21526   5.057   1.934   2.866
  187POPC   H3S21527   5.204   1.921   2.761
  187POPC   C2421528   5.209   1.807   2.945
  187POPC   H4R21529   5.241   1.895   3.006
  187POPC   H4S21530   5.300   1.749   2.915
  187POPC   C2521531   5.124   1.730   3.043
  187POPC   H5R21532   5.104   1.630   2.999
  187POPC   H5S21533   5.031   1.787   3.065
  187POPC   C2621534   5.194   1.717   3.178
  187POPC   H6R21535   5.271   1.796   3.194
  187POPC   H6S21536   5.241   1.624   3.157
  187POPC   C2721537   5.104   1.699   3.300
  187POPC   H7R21538   5.014   1.648   3.260
  187POPC   H7S21539   5.085   1.801   3.338
  187POPC   C2821540   5.131   1.605   3.420
  187POPC   H8R21541   5.149   1.501   3.404
  187POPC   H8S21542   5.048   1.604   3.488
  187POPC   C2921543   5.229   1.635   3.515
  187POPC   H9121544   5.311   1.563   3.525
  187POPC  C21021545   5.234   1.730   3.596
  187POPC  H10121546   5.333   1.726   3.614
  187POPC  C21121547   5.157   1.846   3.639
  187POPC  H11R21548   5.066   1.830   3.583
  187POPC  H11S21549   5.204   1.946   3.623
  187POPC  C21221550   5.141   1.819   3.790
  187POPC  H12R21551   5.125   1.707   3.797
  187POPC  H12S21552   5.051   1.862   3.827
  187POPC  C21321553   5.255   1.883   3.880
  187POPC  H13R21554   5.298   1.977   3.847
  187POPC  H13S21555   5.306   1.803   3.830
  187POPC  C21421556   5.297   1.873   4.032
  187POPC  H14R21557   5.402   1.873   4.064
  187POPC  H14S21558   5.317   1.786   4.092
  187POPC  C21521559   5.177   1.884   4.105
  187POPC  H15R21560   5.102   1.807   4.066
  187POPC  H15S21561   5.154   1.991   4.097
  187POPC  C21621562   5.177   1.855   4.244
  187POPC  H16R21563   5.263   1.892   4.303
  187POPC  H16S21564   5.175   1.754   4.269
  187POPC  C21721565   5.034   1.892   4.271
  187POPC  H17R21566   5.040   2.000   4.286
  187POPC  H17S21567   5.046   1.826   4.354
  187POPC  C21821568   4.890   1.838   4.276
  187POPC  H18R21569   4.864   1.737   4.240
  187POPC  H18S21570   4.851   1.931   4.239
  187POPC  H18T21571   4.820   1.866   4.355
  187POPC   C3321572   4.497   1.395   2.823
  187POPC   H3X21573   4.491   1.282   2.826
  187POPC   H3Y21574   4.433   1.430   2.902
  187POPC   C3421575   4.660   1.438   2.859
  187POPC   H4X21576   4.729   1.421   2.775
  187POPC   H4Y21577   4.746   1.378   2.881
  187POPC   C3521578   4.710   1.579   2.898
  187POPC   H5X21579   4.627   1.624   2.948
  187POPC   H5Y21580   4.747   1.656   2.825
  187POPC   C3621581   4.793   1.573   3.019
  187POPC   H6X21582   4.840   1.673   3.031
  187POPC   H6Y21583   4.866   1.492   2.999
  187POPC   C3721584   4.689   1.540   3.129
  187POPC   H7X21585   4.624   1.455   3.099
  187POPC   H7Y21586   4.619   1.626   3.135
  187POPC   C3821587   4.752   1.522   3.262
  187POPC   H8X21588   4.800   1.619   3.290
  187POPC   H8Y21589   4.831   1.446   3.251
  187POPC   C3921590   4.654   1.485   3.373
  187POPC   H9X21591   4.614   1.383   3.357
  187POPC   H9Y21592   4.566   1.555   3.373
  187POPC  C31021593   4.731   1.496   3.505
  187POPC  H10X21594   4.765   1.601   3.518
  187POPC  H10Y21595   4.822   1.433   3.496
  187POPC  C31121596   4.648   1.459   3.627
  187POPC  H11X21597   4.613   1.354   3.615
  187POPC  H11Y21598   4.560   1.525   3.631
  187POPC  C31221599   4.722   1.465   3.761
  187POPC  H12X21600   4.807   1.392   3.761
  187POPC  H12Y21601   4.651   1.444   3.842
  187POPC  C31321602   4.771   1.598   3.814
  187POPC  H13X21603   4.681   1.648   3.858
  187POPC  H13Y21604   4.810   1.660   3.731
  187POPC  C31421605   4.878   1.571   3.921
  187POPC  H14X21606   4.906   1.662   3.968
  187POPC  H14Y21607   4.972   1.539   3.874
  187POPC  C31521608   4.838   1.474   4.035
  187POPC  H15X21609   4.820   1.376   3.988
  187POPC  H15Y21610   4.751   1.512   4.091
  187POPC  C31621611   4.944   1.452   4.139
  187POPC  H16X21612   4.960   1.549   4.191
  187POPC  H16Y21613   5.034   1.420   4.085
  187POPC  H16Z21614   4.932   1.371   4.212
  188POPC     N21615   6.530   3.376   2.198
  188POPC   C1221616   6.405   3.389   2.286
  188POPC  H12A21617   6.372   3.288   2.308
  188POPC  H12B21618   6.326   3.439   2.230
  188POPC   C1321619   6.642   3.326   2.282
  188POPC  H13A21620   6.633   3.223   2.312
  188POPC  H13B21621   6.738   3.347   2.238
  188POPC  H13C21622   6.641   3.381   2.377
  188POPC   C1421623   6.507   3.280   2.087
  188POPC  H14A21624   6.416   3.302   2.033
  188POPC  H14B21625   6.590   3.289   2.017
  188POPC  H14C21626   6.503   3.179   2.125
  188POPC   C1521627   6.568   3.507   2.136
  188POPC  H15A21628   6.586   3.584   2.212
  188POPC  H15B21629   6.488   3.548   2.074
  188POPC  H15C21630   6.657   3.498   2.076
  188POPC   C1121631   6.418   3.466   2.421
  188POPC  H11A21632   6.465   3.400   2.497
  188POPC  H11B21633   6.316   3.490   2.459
  188POPC     P21634   6.608   3.640   2.489
  188POPC   O1321635   6.563   3.661   2.628
  188POPC   O1421636   6.679   3.750   2.418
  188POPC   O1221637   6.488   3.587   2.401
  188POPC   O1121638   6.699   3.510   2.485
  188POPC    C121639   6.798   3.487   2.584
  188POPC    HA21640   6.774   3.539   2.678
  188POPC    HB21641   6.893   3.522   2.542
  188POPC    C221642   6.817   3.338   2.623
  188POPC    HS21643   6.879   3.293   2.542
  188POPC   O2121644   6.687   3.280   2.632
  188POPC   C2121645   6.685   3.152   2.608
  188POPC   O2221646   6.779   3.086   2.570
  188POPC   C2221647   6.539   3.106   2.623
  188POPC   H2R21648   6.532   2.996   2.614
  188POPC   H2S21649   6.482   3.151   2.538
  188POPC    C321650   6.892   3.316   2.757
  188POPC    HX21651   6.988   3.375   2.755
  188POPC    HY21652   6.929   3.214   2.766
  188POPC   O3121653   6.800   3.337   2.869
  188POPC   C3121654   6.842   3.435   2.945
  188POPC   O3221655   6.946   3.493   2.926
  188POPC   C3221656   6.751   3.474   3.056
  188POPC   H2X21657   6.796   3.456   3.155
  188POPC   H2Y21658   6.657   3.419   3.043
  188POPC   C2321659   6.470   3.155   2.753
  188POPC   H3R21660   6.505   3.256   2.781
  188POPC   H3S21661   6.493   3.085   2.836
  188POPC   C2421662   6.319   3.161   2.731
  188POPC   H4R21663   6.291   3.065   2.682
  188POPC   H4S21664   6.297   3.242   2.658
  188POPC   C2521665   6.235   3.177   2.859
  188POPC   H5R21666   6.268   3.100   2.933
  188POPC   H5S21667   6.127   3.161   2.835
  188POPC   C2621668   6.242   3.312   2.929
  188POPC   H6R21669   6.215   3.392   2.856
  188POPC   H6S21670   6.345   3.330   2.966
  188POPC   C2721671   6.149   3.320   3.050
  188POPC   H7R21672   6.182   3.251   3.131
  188POPC   H7S21673   6.045   3.292   3.021
  188POPC   C2821674   6.150   3.462   3.102
  188POPC   H8R21675   6.089   3.478   3.185
  188POPC   H8S21676   6.107   3.530   3.025
  188POPC   C2921677   6.276   3.512   3.159
  188POPC   H9121678   6.315   3.586   3.090
  188POPC  C21021679   6.341   3.478   3.272
  188POPC  H10121680   6.434   3.532   3.293
  188POPC  C21121681   6.305   3.374   3.377
  188POPC  H11R21682   6.347   3.276   3.345
  188POPC  H11S21683   6.195   3.360   3.390
  188POPC  C21221684   6.367   3.398   3.517
  188POPC  H12R21685   6.478   3.404   3.510
  188POPC  H12S21686   6.342   3.311   3.581
  188POPC  C21321687   6.306   3.521   3.582
  188POPC  H13R21688   6.225   3.543   3.512
  188POPC  H13S21689   6.367   3.613   3.586
  188POPC  C21421690   6.244   3.492   3.716
  188POPC  H14R21691   6.217   3.384   3.729
  188POPC  H14S21692   6.154   3.553   3.738
  188POPC  C21521693   6.342   3.539   3.815
  188POPC  H15R21694   6.376   3.643   3.812
  188POPC  H15S21695   6.438   3.489   3.794
  188POPC  C21621696   6.285   3.520   3.947
  188POPC  H16R21697   6.253   3.411   3.964
  188POPC  H16S21698   6.194   3.577   3.972
  188POPC  C21721699   6.397   3.571   4.030
  188POPC  H17R21700   6.383   3.679   4.052
  188POPC  H17S21701   6.509   3.563   4.026
  188POPC  C21821702   6.361   3.465   4.124
  188POPC  H18R21703   6.253   3.449   4.150
  188POPC  H18S21704   6.412   3.546   4.179
  188POPC  H18T21705   6.416   3.387   4.174
  188POPC   C3321706   6.731   3.625   3.045
  188POPC   H3X21707   6.690   3.652   2.945
  188POPC   H3Y21708   6.827   3.674   3.053
  188POPC   C3421709   6.649   3.687   3.156
  188POPC   H4X21710   6.543   3.664   3.137
  188POPC   H4Y21711   6.662   3.797   3.144
  188POPC   C3521712   6.688   3.642   3.298
  188POPC   H5X21713   6.799   3.638   3.306
  188POPC   H5Y21714   6.652   3.539   3.320
  188POPC   C3621715   6.633   3.739   3.403
  188POPC   H6X21716   6.524   3.741   3.389
  188POPC   H6Y21717   6.670   3.842   3.383
  188POPC   C3721718   6.652   3.702   3.549
  188POPC   H7X21719   6.604   3.603   3.570
  188POPC   H7Y21720   6.605   3.778   3.616
  188POPC   C3821721   6.795   3.691   3.591
  188POPC   H8X21722   6.836   3.792   3.614
  188POPC   H8Y21723   6.860   3.644   3.513
  188POPC   C3921724   6.796   3.605   3.713
  188POPC   H9X21725   6.784   3.499   3.680
  188POPC   H9Y21726   6.720   3.625   3.791
  188POPC  C31021727   6.923   3.628   3.781
  188POPC  H10X21728   6.945   3.727   3.826
  188POPC  H10Y21729   7.003   3.612   3.713
  188POPC  C31121730   6.931   3.527   3.884
  188POPC  H11X21731   6.885   3.558   3.979
  188POPC  H11Y21732   7.025   3.550   3.905
  188POPC  C31221733   6.944   3.381   3.844
  188POPC  H12X21734   7.020   3.341   3.787
  188POPC  H12Y21735   6.871   3.355   3.771
  188POPC  C31321736   6.996   3.294   3.948
  188POPC  H13X21737   7.087   3.318   4.015
  188POPC  H13Y21738   6.971   3.189   3.936
  188POPC  C31421739   6.910   3.241   4.033
  188POPC  H14X21740   6.912   3.356   4.054
  188POPC  H14Y21741   6.957   3.248   4.133
  188POPC  C31521742   6.751   3.146   4.013
  188POPC  H15X21743   6.807   3.068   3.992
  188POPC  H15Y21744   6.680   3.124   3.948
  188POPC  C31621745   6.594   3.155   4.108
  188POPC  H16X21746   6.552   3.239   4.173
  188POPC  H16Y21747   6.609   3.179   4.212
  188POPC  H16Z21748   6.502   3.103   4.101
  189SAPI   C1221749   4.585   1.058   6.605
  189SAPI    H221750   4.523   1.004   6.528
  189SAPI    O221751   4.516   1.170   6.651
  189SAPI   HO221752   4.567   1.237   6.605
  189SAPI   C1321753   4.604   0.959   6.725
  189SAPI    H321754   4.635   0.857   6.697
  189SAPI    O321755   4.476   0.917   6.768
  189SAPI   HO321756   4.432   0.999   6.790
  189SAPI   C1421757   4.691   1.034   6.842
  189SAPI    H421758   4.651   1.132   6.864
  189SAPI    O421759   4.672   0.964   6.967
  189SAPI   HO421760   4.674   0.870   6.935
  189SAPI   C1521761   4.838   1.084   6.799
  189SAPI    H521762   4.913   1.003   6.796
  189SAPI    O521763   4.957   1.093   6.879
  189SAPI   HO521764   4.932   1.093   6.970
  189SAPI   C1621765   4.803   1.175   6.662
  189SAPI    H621766   4.764   1.270   6.691
  189SAPI    O621767   4.933   1.193   6.605
  189SAPI   HO621768   4.942   1.276   6.558
  189SAPI   C1121769   4.712   1.110   6.534
  189SAPI    H121770   4.735   1.018   6.475
  189SAPI     P21771   4.689   1.125   6.262
  189SAPI   O1321772   4.569   1.038   6.258
  189SAPI   O1421773   4.816   1.067   6.215
  189SAPI   O1221774   4.695   1.193   6.419
  189SAPI   O1121775   4.661   1.259   6.189
  189SAPI    C121776   4.546   1.333   6.226
  189SAPI    HA21777   4.458   1.280   6.187
  189SAPI    HB21778   4.529   1.342   6.337
  189SAPI    C221779   4.563   1.470   6.158
  189SAPI    HS21780   4.473   1.531   6.183
  189SAPI   O2121781   4.575   1.456   6.015
  189SAPI   C2121782   4.471   1.410   5.953
  189SAPI   O2221783   4.360   1.393   6.005
  189SAPI   C2221784   4.498   1.407   5.800
  189SAPI   H2R21785   4.507   1.510   5.759
  189SAPI   H2S21786   4.593   1.356   5.780
  189SAPI    C321787   4.688   1.548   6.208
  189SAPI    HX21788   4.709   1.528   6.315
  189SAPI    HY21789   4.664   1.655   6.198
  189SAPI   O3121790   4.802   1.525   6.124
  189SAPI   C3121791   4.898   1.449   6.174
  189SAPI   O3221792   4.912   1.415   6.290
  189SAPI   C3221793   4.992   1.422   6.060
  189SAPI   H2X21794   5.095   1.406   6.101
  189SAPI   H2Y21795   4.995   1.515   5.999
  189SAPI   C2321796   4.386   1.324   5.733
  189SAPI   H3R21797   4.297   1.381   5.731
  189SAPI   H3S21798   4.362   1.237   5.795
  189SAPI   C2421799   4.398   1.288   5.585
  189SAPI   H4R21800   4.503   1.254   5.574
  189SAPI   H4S21801   4.383   1.381   5.525
  189SAPI   C2521802   4.297   1.183   5.542
  189SAPI   H5R21803   4.208   1.170   5.604
  189SAPI   C2621804   4.315   1.099   5.439
  189SAPI   H6R21805   4.236   1.027   5.410
  189SAPI   C2721806   4.438   1.099   5.352
  189SAPI   H7R21807   4.483   1.201   5.348
  189SAPI   H7S21808   4.411   1.073   5.248
  189SAPI   C2821809   4.540   1.004   5.406
  189SAPI   H8R21810   4.541   0.988   5.515
  189SAPI   C2921811   4.632   0.943   5.332
  189SAPI   H9R21812   4.698   0.870   5.383
  189SAPI  C21021813   4.644   0.964   5.182
  189SAPI  H10R21814   4.721   1.038   5.158
  189SAPI  H10S21815   4.549   0.983   5.128
  189SAPI  C21121816   4.686   0.842   5.119
  189SAPI  H11R21817   4.636   0.757   5.146
  189SAPI  C21221818   4.770   0.822   5.025
  189SAPI  H12R21819   4.833   0.738   5.037
  189SAPI  C21321820   4.846   0.916   4.957
  189SAPI  H13R21821   4.889   0.841   4.887
  189SAPI  H13S21822   4.920   0.958   5.030
  189SAPI  C21421823   4.774   1.013   4.874
  189SAPI  H14R21824   4.667   0.997   4.873
  189SAPI  C21521825   4.831   1.091   4.784
  189SAPI  H15R21826   4.776   1.158   4.721
  189SAPI  C21621827   4.972   1.098   4.750
  189SAPI  H16R21828   5.023   1.087   4.845
  189SAPI  H16S21829   5.006   1.201   4.734
  189SAPI  C21721830   4.971   0.991   4.636
  189SAPI  H17R21831   4.974   0.894   4.683
  189SAPI  H17S21832   5.043   0.920   4.597
  189SAPI  C21821833   4.942   1.030   4.491
  189SAPI  H18R21834   4.972   1.132   4.462
  189SAPI  H18S21835   4.834   1.037   4.488
  189SAPI  C21921836   5.005   0.936   4.384
  189SAPI  H19R21837   4.971   0.833   4.401
  189SAPI  H19S21838   5.117   0.929   4.387
  189SAPI  C22021839   4.962   0.981   4.246
  189SAPI  H20R21840   4.853   1.004   4.250
  189SAPI  H20S21841   4.982   0.902   4.172
  189SAPI  H20T21842   5.015   1.074   4.215
  189SAPI   C3321843   4.944   1.299   5.981
  189SAPI   H3X21844   4.908   1.214   6.043
  189SAPI   H3Y21845   5.035   1.254   5.948
  189SAPI   C3421846   4.850   1.323   5.860
  189SAPI   H4X21847   4.765   1.379   5.900
  189SAPI   H4Y21848   4.824   1.224   5.815
  189SAPI   C3521849   4.897   1.408   5.745
  189SAPI   H5X21850   4.990   1.351   5.739
  189SAPI   H5Y21851   4.912   1.516   5.770
  189SAPI   C3621852   4.840   1.390   5.604
  189SAPI   H6X21853   4.869   1.480   5.544
  189SAPI   H6Y21854   4.731   1.387   5.618
  189SAPI   C3721855   4.891   1.266   5.530
  189SAPI   H7X21856   4.881   1.175   5.594
  189SAPI   H7Y21857   4.998   1.278   5.503
  189SAPI   C3821858   4.815   1.237   5.400
  189SAPI   H8X21859   4.711   1.216   5.430
  189SAPI   H8Y21860   4.857   1.144   5.354
  189SAPI   C3921861   4.818   1.353   5.300
  189SAPI   H9X21862   4.923   1.386   5.284
  189SAPI   H9Y21863   4.760   1.439   5.341
  189SAPI  C31021864   4.762   1.318   5.161
  189SAPI  H10X21865   4.654   1.289   5.165
  189SAPI  H10Y21866   4.822   1.235   5.118
  189SAPI  C31121867   4.778   1.436   5.067
  189SAPI  H11X21868   4.888   1.455   5.061
  189SAPI  H11Y21869   4.727   1.526   5.109
  189SAPI  C31221870   4.721   1.412   4.928
  189SAPI  H12X21871   4.615   1.378   4.933
  189SAPI  H12Y21872   4.778   1.331   4.877
  189SAPI  C31321873   4.730   1.536   4.842
  189SAPI  H13X21874   4.832   1.581   4.848
  189SAPI  H13Y21875   4.656   1.615   4.870
  189SAPI  C31421876   4.714   1.490   4.698
  189SAPI  H14X21877   4.777   1.406   4.671
  189SAPI  H14Y21878   4.754   1.579   4.642
  189SAPI  C31521879   4.573   1.440   4.663
  189SAPI  H15X21880   4.548   1.539   4.680
  189SAPI  H15Y21881   4.493   1.410   4.732
  189SAPI  C31621882   4.546   1.399   4.517
  189SAPI  H16X21883   4.605   1.451   4.438
  189SAPI  H16Y21884   4.438   1.409   4.487
  189SAPI  C31721885   4.590   1.260   4.514
  189SAPI  H17X21886   4.544   1.220   4.607
  189SAPI  H17Y21887   4.701   1.267   4.523
  189SAPI  C31821888   4.542   1.193   4.389
  189SAPI  H18X21889   4.431   1.187   4.387
  189SAPI  H18Y21890   4.585   1.091   4.387
  189SAPI  H18Z21891   4.577   1.251   4.300
  190SAPI   C1221892   4.964   0.832   6.509
  190SAPI    H221893   4.926   0.897   6.420
  190SAPI    O221894   5.089   0.896   6.550
  190SAPI   HO221895   5.108   0.879   6.641
  190SAPI   C1321896   4.868   0.826   6.615
  190SAPI    H321897   4.768   0.805   6.569
  190SAPI    O321898   4.846   0.934   6.620
  190SAPI   HO321899   4.913   1.004   6.638
  190SAPI   C1421900   4.887   0.764   6.750
  190SAPI    H421901   4.985   0.805   6.789
  190SAPI    O421902   4.797   0.784   6.856
  190SAPI   HO421903   4.851   0.795   6.935
  190SAPI   C1521904   4.892   0.631   6.724
  190SAPI    H521905   4.785   0.609   6.690
  190SAPI    O521906   4.921   0.560   6.845
  190SAPI   HO521907   4.875   0.479   6.832
  190SAPI   C1621908   4.994   0.615   6.620
  190SAPI    H621909   5.090   0.654   6.662
  190SAPI    O621910   4.992   0.478   6.592
  190SAPI   HO621911   5.067   0.473   6.533
  190SAPI   C1121912   4.964   0.692   6.492
  190SAPI    H121913   4.861   0.667   6.453
  190SAPI     P21914   5.055   0.736   6.243
  190SAPI   O1321915   5.084   0.881   6.244
  190SAPI   O1421916   4.938   0.683   6.170
  190SAPI   O1221917   5.060   0.669   6.394
  190SAPI   O1121918   5.187   0.664   6.202
  190SAPI    C121919   5.307   0.680   6.281
  190SAPI    HA21920   5.334   0.787   6.294
  190SAPI    HB21921   5.300   0.631   6.381
  190SAPI    C221922   5.424   0.612   6.212
  190SAPI    HS21923   5.522   0.641   6.254
  190SAPI   O2121924   5.413   0.631   6.073
  190SAPI   C2121925   5.496   0.708   6.029
  190SAPI   O2221926   5.588   0.765   6.089
  190SAPI   C2221927   5.460   0.717   5.882
  190SAPI   H2R21928   5.567   0.741   5.862
  190SAPI   H2S21929   5.445   0.633   5.822
  190SAPI    C321930   5.420   0.467   6.235
  190SAPI    HX21931   5.424   0.442   6.342
  190SAPI    HY21932   5.507   0.419   6.194
  190SAPI   O3121933   5.306   0.420   6.172
  190SAPI   C3121934   5.288   0.299   6.204
  190SAPI   O3221935   5.351   0.233   6.286
  190SAPI   C3221936   5.175   0.251   6.129
  190SAPI   H2X21937   5.115   0.192   6.201
  190SAPI   H2Y21938   5.226   0.177   6.069
  190SAPI   C2321939   5.336   0.799   5.818
  190SAPI   H3R21940   5.338   0.867   5.729
  190SAPI   H3S21941   5.376   0.880   5.855
  190SAPI   C2421942   5.186   0.785   5.839
  190SAPI   H4R21943   5.162   0.768   5.945
  190SAPI   H4S21944   5.187   0.694   5.778
  190SAPI   C2521945   5.095   0.894   5.779
  190SAPI   H5R21946   5.075   0.980   5.846
  190SAPI   C2621947   5.035   0.904   5.661
  190SAPI   H6R21948   4.983   0.998   5.637
  190SAPI   C2721949   5.044   0.801   5.555
  190SAPI   H7R21950   4.976   0.719   5.589
  190SAPI   H7S21951   5.146   0.759   5.547
  190SAPI   C2821952   5.002   0.858   5.423
  190SAPI   H8R21953   5.039   0.959   5.398
  190SAPI   C2921954   4.944   0.788   5.326
  190SAPI   H9R21955   4.905   0.844   5.240
  190SAPI  C21021956   4.915   0.642   5.339
  190SAPI  H10R21957   4.889   0.611   5.444
  190SAPI  H10S21958   4.990   0.576   5.299
  190SAPI  C21121959   4.801   0.596   5.267
  190SAPI  H11R21960   4.729   0.631   5.340
  190SAPI  C21221961   4.766   0.543   5.147
  190SAPI  H12R21962   4.664   0.522   5.122
  190SAPI  C21321963   4.833   0.507   5.027
  190SAPI  H13R21964   4.936   0.498   5.061
  190SAPI  H13S21965   4.815   0.588   4.955
  190SAPI  C21421966   4.777   0.396   4.947
  190SAPI  H14R21967   4.675   0.363   4.963
  190SAPI  C21521968   4.820   0.381   4.825
  190SAPI  H15R21969   4.762   0.316   4.758
  190SAPI  C21621970   4.922   0.476   4.771
  190SAPI  H16R21971   4.971   0.548   4.841
  190SAPI  H16S21972   4.864   0.545   4.710
  190SAPI  C21721973   5.034   0.397   4.713
  190SAPI  H17R21974   4.999   0.312   4.649
  190SAPI  H17S21975   5.098   0.355   4.795
  190SAPI  C21821976   5.123   0.485   4.633
  190SAPI  H18R21977   5.177   0.562   4.692
  190SAPI  H18S21978   5.078   0.537   4.547
  190SAPI  C21921979   5.220   0.399   4.570
  190SAPI  H19R21980   5.177   0.315   4.509
  190SAPI  H19S21981   5.292   0.358   4.643
  190SAPI  C22021982   5.283   0.494   4.477
  190SAPI  H20R21983   5.223   0.537   4.399
  190SAPI  H20S21984   5.326   0.409   4.430
  190SAPI  H20T21985   5.355   0.569   4.515
  190SAPI   C3321986   5.088   0.353   6.050
  190SAPI   H3X21987   5.052   0.424   6.125
  190SAPI   H3Y21988   4.993   0.308   6.018
  190SAPI   C3421989   5.145   0.437   5.932
  190SAPI   H4X21990   5.236   0.493   5.962
  190SAPI   H4Y21991   5.061   0.503   5.903
  190SAPI   C3521992   5.181   0.375   5.800
  190SAPI   H5X21993   5.088   0.337   5.762
  190SAPI   H5Y21994   5.262   0.300   5.815
  190SAPI   C3621995   5.189   0.465   5.676
  190SAPI   H6X21996   5.273   0.528   5.708
  190SAPI   H6Y21997   5.102   0.531   5.672
  190SAPI   C3721998   5.210   0.390   5.541
  190SAPI   H7X21999   5.125   0.335   5.500
  190SAPI   H7Y22000   5.271   0.300   5.564
  190SAPI   C3822001   5.259   0.482   5.425
  190SAPI   H8X22002   5.364   0.517   5.443
  190SAPI   H8Y22003   5.197   0.573   5.423
  190SAPI   C3922004   5.251   0.411   5.288
  190SAPI   H9X22005   5.156   0.355   5.280
  190SAPI   H9Y22006   5.328   0.336   5.280
  190SAPI  C31022007   5.297   0.485   5.164
  190SAPI  H10X22008   5.288   0.418   5.075
  190SAPI  H10Y22009   5.403   0.514   5.175
  190SAPI  C31122010   5.207   0.602   5.144
  190SAPI  H11X22011   5.215   0.675   5.229
  190SAPI  H11Y22012   5.104   0.560   5.145
  190SAPI  C31222013   5.225   0.670   5.012
  190SAPI  H12X22014   5.231   0.600   4.926
  190SAPI  H12Y22015   5.315   0.731   5.014
  190SAPI  C31322016   5.109   0.762   4.996
  190SAPI  H13X22017   5.089   0.819   5.090
  190SAPI  H13Y22018   5.019   0.700   4.980
  190SAPI  C31422019   5.120   0.853   4.874
  190SAPI  H14X22020   5.056   0.928   4.903
  190SAPI  H14Y22021   5.089   0.795   4.787
  190SAPI  C31522022   5.235   0.943   4.842
  190SAPI  H15X22023   5.283   0.854   4.806
  190SAPI  H15Y22024   5.262   0.970   4.936
  190SAPI  C31622025   5.250   1.081   4.768
  190SAPI  H16X22026   5.347   1.128   4.775
  190SAPI  H16Y22027   5.195   1.164   4.817
  190SAPI  C31722028   5.246   1.068   4.618
  190SAPI  H17X22029   5.201   0.973   4.605
  190SAPI  H17Y22030   5.326   1.018   4.564
  190SAPI  C31822031   5.193   1.188   4.541
  190SAPI  H18X22032   5.272   1.262   4.525
  190SAPI  H18Y22033   5.103   1.238   4.580
  190SAPI  H18Z22034   5.160   1.152   4.441
  191SAPI   C1222035   1.195   6.019   1.882
  191SAPI    H222036   1.125   6.045   1.965
  191SAPI    O222037   1.182   5.880   1.855
  191SAPI   HO222038   1.171   5.835   1.940
  191SAPI   C1322039   1.151   6.097   1.759
  191SAPI    H322040   1.158   6.205   1.782
  191SAPI    O322041   1.013   6.069   1.733
  191SAPI   HO322042   0.989   5.980   1.766
  191SAPI   C1422043   1.246   6.067   1.643
  191SAPI    H422044   1.239   5.959   1.617
  191SAPI    O422045   1.209   6.140   1.524
  191SAPI   HO422046   1.221   6.079   1.451
  191SAPI   C1522047   1.390   6.101   1.683
  191SAPI    H522048   1.396   6.210   1.706
  191SAPI    O522049   1.485   6.073   1.579
  191SAPI   HO522050   1.514   6.157   1.542
  191SAPI   C1622051   1.433   6.025   1.809
  191SAPI    H622052   1.430   5.916   1.789
  191SAPI    O622053   1.568   6.061   1.841
  191SAPI   HO622054   1.607   6.085   1.757
  191SAPI   C1122055   1.338   6.056   1.923
  191SAPI    H122056   1.344   6.167   1.942
  191SAPI     P22057   1.325   6.034   2.189
  191SAPI   O1322058   1.179   6.017   2.196
  191SAPI   O1422059   1.378   6.171   2.212
  191SAPI   O1222060   1.379   5.984   2.041
  191SAPI   O1122061   1.401   5.936   2.288
  191SAPI    C122062   1.404   5.796   2.262
  191SAPI    HA22063   1.307   5.758   2.221
  191SAPI    HB22064   1.485   5.774   2.188
  191SAPI    C222065   1.434   5.715   2.391
  191SAPI    HS22066   1.404   5.609   2.375
  191SAPI   O2122067   1.363   5.764   2.503
  191SAPI   C2122068   1.233   5.758   2.502
  191SAPI   O2222069   1.161   5.695   2.426
  191SAPI   C2222070   1.188   5.848   2.613
  191SAPI   H2R22071   1.089   5.818   2.653
  191SAPI   H2S22072   1.263   5.844   2.694
  191SAPI    C322073   1.584   5.720   2.428
  191SAPI    HX22074   1.640   5.670   2.347
  191SAPI    HY22075   1.597   5.656   2.519
  191SAPI   O3122076   1.637   5.855   2.443
  191SAPI   C3122077   1.646   5.898   2.568
  191SAPI   O3222078   1.622   5.830   2.666
  191SAPI   C3222079   1.710   6.038   2.572
  191SAPI   H2X22080   1.656   6.108   2.506
  191SAPI   H2Y22081   1.814   6.029   2.537
  191SAPI   C2322082   1.185   5.986   2.550
  191SAPI   H3R22083   1.117   5.989   2.461
  191SAPI   H3S22084   1.288   6.009   2.511
  191SAPI   C2422085   1.146   6.096   2.648
  191SAPI   H4R22086   1.138   6.186   2.585
  191SAPI   H4S22087   1.233   6.109   2.717
  191SAPI   C2522088   1.014   6.080   2.720
  191SAPI   H5R22089   0.931   6.042   2.657
  191SAPI   C2622090   0.988   6.113   2.847
  191SAPI   H6R22091   0.885   6.100   2.885
  191SAPI   C2722092   1.087   6.173   2.944
  191SAPI   H7R22093   1.137   6.264   2.903
  191SAPI   H7S22094   1.168   6.099   2.965
  191SAPI   C2822095   1.017   6.217   3.070
  191SAPI   H8R22096   0.926   6.278   3.054
  191SAPI   C2922097   1.065   6.208   3.194
  191SAPI   H9R22098   0.999   6.239   3.276
  191SAPI  C21022099   1.199   6.152   3.235
  191SAPI  H10R22100   1.225   6.067   3.168
  191SAPI  H10S22101   1.192   6.109   3.337
  191SAPI  C21122102   1.308   6.257   3.228
  191SAPI  H11R22103   1.326   6.296   3.127
  191SAPI  C21222104   1.376   6.309   3.332
  191SAPI  H12R22105   1.458   6.380   3.311
  191SAPI  C21322106   1.360   6.275   3.478
  191SAPI  H13R22107   1.253   6.267   3.506
  191SAPI  H13S22108   1.400   6.360   3.538
  191SAPI  C21422109   1.430   6.148   3.516
  191SAPI  H14R22110   1.365   6.058   3.519
  191SAPI  C21522111   1.559   6.138   3.553
  191SAPI  H15R22112   1.601   6.036   3.563
  191SAPI  C21622113   1.659   6.251   3.565
  191SAPI  H16R22114   1.618   6.349   3.531
  191SAPI  H16S22115   1.746   6.229   3.499
  191SAPI  C21722116   1.713   6.272   3.708
  191SAPI  H17R22117   1.783   6.358   3.708
  191SAPI  H17S22118   1.774   6.182   3.733
  191SAPI  C21822119   1.608   6.295   3.822
  191SAPI  H18R22120   1.667   6.300   3.916
  191SAPI  H18S22121   1.539   6.209   3.827
  191SAPI  C21922122   1.521   6.423   3.817
  191SAPI  H19R22123   1.459   6.421   3.725
  191SAPI  H19S22124   1.590   6.509   3.806
  191SAPI  C22022125   1.430   6.449   3.939
  191SAPI  H20R22126   1.359   6.533   3.920
  191SAPI  H20S22127   1.489   6.479   4.028
  191SAPI  H20T22128   1.371   6.359   3.965
  191SAPI   C3322129   1.711   6.091   2.718
  191SAPI   H3X22130   1.764   6.189   2.722
  191SAPI   H3Y22131   1.770   6.019   2.779
  191SAPI   C3422132   1.570   6.108   2.778
  191SAPI   H4X22133   1.506   6.021   2.750
  191SAPI   H4Y22134   1.523   6.197   2.732
  191SAPI   C3522135   1.562   6.117   2.931
  191SAPI   H5X22136   1.456   6.098   2.959
  191SAPI   H5Y22137   1.587   6.220   2.966
  191SAPI   C3622138   1.653   6.022   3.011
  191SAPI   H6X22139   1.758   6.057   2.999
  191SAPI   H6Y22140   1.647   5.917   2.974
  191SAPI   C3722141   1.619   6.026   3.160
  191SAPI   H7X22142   1.517   5.983   3.174
  191SAPI   H7Y22143   1.613   6.133   3.190
  191SAPI   C3822144   1.722   5.955   3.247
  191SAPI   H8X22145   1.754   6.023   3.330
  191SAPI   H8Y22146   1.813   5.927   3.191
  191SAPI   C3922147   1.664   5.837   3.324
  191SAPI   H9X22148   1.585   5.876   3.391
  191SAPI   H9Y22149   1.746   5.808   3.389
  191SAPI  C31022150   1.593   5.729   3.242
  191SAPI  H10X22151   1.647   5.656   3.187
  191SAPI  H10Y22152   1.548   5.774   3.152
  191SAPI  C31122153   1.498   5.645   3.326
  191SAPI  H11X22154   1.544   5.621   3.424
  191SAPI  H11Y22155   1.483   5.548   3.273
  191SAPI  C31222156   1.363   5.715   3.337
  191SAPI  H12X22157   1.329   5.736   3.233
  191SAPI  H12Y22158   1.374   5.813   3.387
  191SAPI  C31322159   1.260   5.628   3.412
  191SAPI  H13X22160   1.247   5.536   3.351
  191SAPI  H13Y22161   1.163   5.682   3.417
  191SAPI  C31422162   1.306   5.588   3.554
  191SAPI  H14X22163   1.406   5.541   3.546
  191SAPI  H14Y22164   1.240   5.508   3.593
  191SAPI  C31522165   1.313   5.707   3.653
  191SAPI  H15X22166   1.211   5.746   3.673
  191SAPI  H15Y22167   1.370   5.789   3.605
  191SAPI  C31622168   1.382   5.675   3.787
  191SAPI  H16X22169   1.465   5.604   3.767
  191SAPI  H16Y22170   1.313   5.628   3.861
  191SAPI  C31722171   1.440   5.799   3.857
  191SAPI  H17X22172   1.359   5.860   3.903
  191SAPI  H17Y22173   1.496   5.860   3.783
  191SAPI  C31822174   1.534   5.759   3.966
  191SAPI  H18X22175   1.484   5.700   4.047
  191SAPI  H18Y22176   1.584   5.846   4.014
  191SAPI  H18Z22177   1.612   5.694   3.921
  192SAPI   C1222178   3.098   0.553   1.840
  192SAPI    H222179   3.193   0.585   1.890
  192SAPI    O222180   3.005   0.661   1.856
  192SAPI   HO222181   3.054   0.742   1.836
  192SAPI   C1322182   3.126   0.528   1.694
  192SAPI    H322183   3.205   0.451   1.686
  192SAPI    O322184   3.176   0.646   1.631
  192SAPI   HO322185   3.123   0.721   1.660
  192SAPI   C1422186   2.999   0.478   1.625
  192SAPI    H422187   2.921   0.557   1.641
  192SAPI    O422188   3.013   0.464   1.483
  192SAPI   HO422189   2.946   0.519   1.444
  192SAPI   C1522190   2.948   0.350   1.689
  192SAPI    H522191   3.024   0.270   1.678
  192SAPI    O522192   2.831   0.309   1.620
  192SAPI   HO522193   2.857   0.279   1.533
  192SAPI   C1622194   2.923   0.370   1.836
  192SAPI    H622195   2.843   0.447   1.851
  192SAPI    O622196   2.878   0.248   1.896
  192SAPI   HO622197   2.943   0.177   1.882
  192SAPI   C1122198   3.050   0.420   1.898
  192SAPI    H122199   3.131   0.342   1.881
  192SAPI     P22200   3.134   0.389   2.139
  192SAPI   O1322201   3.249   0.475   2.113
  192SAPI   O1422202   3.159   0.245   2.142
  192SAPI   O1222203   3.020   0.438   2.035
  192SAPI   O1122204   3.066   0.432   2.273
  192SAPI    C122205   2.936   0.475   2.280
  192SAPI    HA22206   2.920   0.571   2.222
  192SAPI    HB22207   2.861   0.400   2.245
  192SAPI    C222208   2.891   0.501   2.422
  192SAPI    HS22209   2.816   0.556   2.376
  192SAPI   O2122210   2.973   0.576   2.506
  192SAPI   C2122211   2.945   0.607   2.627
  192SAPI   O2222212   2.846   0.600   2.696
  192SAPI   C2222213   3.057   0.658   2.687
  192SAPI   H2R22214   3.110   0.575   2.724
  192SAPI   H2S22215   3.115   0.722   2.620
  192SAPI    C322216   2.850   0.380   2.506
  192SAPI    HX22217   2.761   0.351   2.445
  192SAPI    HY22218   2.816   0.395   2.609
  192SAPI   O3122219   2.937   0.299   2.510
  192SAPI   C3122220   2.881   0.190   2.439
  192SAPI   O3222221   2.763   0.153   2.457
  192SAPI   C3222222   2.979   0.141   2.347
  192SAPI   H2X22223   3.072   0.211   2.355
  192SAPI   H2Y22224   2.933   0.063   2.279
  192SAPI   C2322225   3.012   0.688   2.823
  192SAPI   H3R22226   2.935   0.643   2.886
  192SAPI   H3S22227   2.942   0.767   2.780
  192SAPI   C2422228   3.134   0.698   2.923
  192SAPI   H4R22229   3.083   0.724   3.017
  192SAPI   H4S22230   3.209   0.775   2.896
  192SAPI   C2522231   3.227   0.597   2.971
  192SAPI   H5R22232   3.140   0.549   3.012
  192SAPI   C2622233   3.290   0.595   3.086
  192SAPI   H6R22234   3.334   0.500   3.112
  192SAPI   C2722235   3.279   0.689   3.199
  192SAPI   H7R22236   3.275   0.789   3.170
  192SAPI   H7S22237   3.379   0.692   3.244
  192SAPI   C2822238   3.169   0.665   3.300
  192SAPI   H8R22239   3.094   0.743   3.321
  192SAPI   C2922240   3.174   0.568   3.390
  192SAPI   H9R22241   3.094   0.561   3.465
  192SAPI  C21022242   3.281   0.466   3.411
  192SAPI  H10R22243   3.295   0.462   3.520
  192SAPI  H10S22244   3.381   0.482   3.363
  192SAPI  C21122245   3.193   0.360   3.356
  192SAPI  H11R22246   3.232   0.313   3.263
  192SAPI  C21222247   3.115   0.289   3.439
  192SAPI  H12R22248   3.068   0.195   3.404
  192SAPI  C21322249   3.114   0.303   3.588
  192SAPI  H13R22250   3.029   0.239   3.623
  192SAPI  H13S22251   3.129   0.399   3.635
  192SAPI  C21422252   3.209   0.224   3.658
  192SAPI  H14R22253   3.214   0.150   3.585
  192SAPI  C21522254   3.303   0.219   3.749
  192SAPI  H15R22255   3.370   0.134   3.784
  192SAPI  C21622256   3.329   0.333   3.810
  192SAPI  H16R22257   3.322   0.412   3.732
  192SAPI  H16S22258   3.429   0.296   3.830
  192SAPI  C21722259   3.282   0.377   3.929
  192SAPI  H17R22260   3.178   0.368   3.916
  192SAPI  H17S22261   3.303   0.486   3.923
  192SAPI  C21822262   3.340   0.288   4.035
  192SAPI  H18R22263   3.438   0.299   4.082
  192SAPI  H18S22264   3.404   0.209   3.996
  192SAPI  C21922265   3.232   0.305   4.141
  192SAPI  H19R22266   3.179   0.212   4.121
  192SAPI  H19S22267   3.170   0.394   4.118
  192SAPI  C22022268   3.258   0.333   4.287
  192SAPI  H20R22269   3.324   0.410   4.333
  192SAPI  H20S22270   3.334   0.263   4.294
  192SAPI  H20T22271   3.173   0.303   4.349
  192SAPI   C3322272   2.977   0.071   2.452
  192SAPI   H3X22273   3.081   0.049   2.401
  192SAPI   H3Y22274   2.875  -0.008   2.471
  192SAPI   C3422275   3.086   0.084   2.555
  192SAPI   H4X22276   3.119   0.179   2.548
  192SAPI   H4Y22277   3.205   0.027   2.503
  192SAPI   C3522278   3.014   0.098   2.746
  192SAPI   H5X22279   3.087   0.114   2.842
  192SAPI   H5Y22280   3.027   0.018   2.832
  192SAPI   C3622281   2.964   0.216   2.834
  192SAPI   H6X22282   2.862   0.184   2.811
  192SAPI   H6Y22283   2.995   0.315   2.798
  192SAPI   C3722284   2.962   0.217   2.991
  192SAPI   H7X22285   3.056   0.230   3.052
  192SAPI   H7Y22286   2.907   0.130   3.034
  192SAPI   C3822287   2.885   0.340   3.019
  192SAPI   H8X22288   2.791   0.347   2.958
  192SAPI   H8Y22289   2.944   0.435   3.002
  192SAPI   C3922290   2.839   0.340   3.153
  192SAPI   H9X22291   2.916   0.325   3.237
  192SAPI   H9Y22292   2.770   0.255   3.169
  192SAPI  C31022293   2.780   0.475   3.125
  192SAPI  H10X22294   2.679   0.491   3.087
  192SAPI  H10Y22295   2.833   0.571   3.094
  192SAPI  C31122296   2.796   0.473   3.254
  192SAPI  H11X22297   2.761   0.594   3.255
  192SAPI  H11Y22298   2.885   0.540   3.284
  192SAPI  C31222299   2.732   0.319   3.402
  192SAPI  H12X22300   2.763   0.221   3.388
  192SAPI  H12Y22301   2.615   0.287   3.407
  192SAPI  C31322302   2.737   0.318   3.592
  192SAPI  H13X22303   2.661   0.317   3.671
  192SAPI  H13Y22304   2.635   0.352   3.567
  192SAPI  C31422305   2.841   0.408   3.714
  192SAPI  H14X22306   2.877   0.517   3.703
  192SAPI  H14Y22307   2.935   0.387   3.691
  192SAPI  C31522308   2.824   0.490   3.845
  192SAPI  H15X22309   2.741   0.564   3.858
  192SAPI  H15Y22310   2.911   0.551   3.880
  192SAPI  C31622311   2.818   0.360   3.903
  192SAPI  H16X22312   2.745   0.291   3.849
  192SAPI  H16Y22313   2.799   0.388   4.005
  192SAPI  C31722314   2.933   0.273   3.902
  192SAPI  H17X22315   3.010   0.341   3.932
  192SAPI  H17Y22316   2.946   0.217   3.806
  192SAPI  C31822317   2.904   0.184   4.013
  192SAPI  H18X22318   2.986   0.115   4.017
  192SAPI  H18Y22319   2.810   0.130   3.997
  192SAPI  H18Z22320   2.895   0.230   4.113
  193SOD    SOD22321   1.645   2.357   7.538
  194SOD    SOD22322   1.933   4.841   8.440
  195SOD    SOD22323   5.369   2.976   8.326
  196SOD    SOD22324   4.931   4.930   7.928
  197SOD    SOD22325   3.883   4.867   0.585
  198SOD    SOD22326   2.051   3.442   1.494
  199SOD    SOD22327   2.448   0.434   0.620
  200SOD    SOD22328   1.470   2.173   1.690
  201SOD    SOD22329   1.756   1.752   0.908
  202SOD    SOD22330   1.455   2.294   0.305
  203SOD    SOD22331   6.628   3.687   7.628
  204SOD    SOD22332   6.167   1.102   7.741
  205SOD    SOD22333   3.546   3.749   6.994
  206SOD    SOD22334   5.443   2.659   0.884
  207SOD    SOD22335   2.499   2.641   6.547
  208SOD    SOD22336   5.443   5.723   1.252
  209SOD    SOD22337   0.677   4.412   8.014
  210SOD    SOD22338   2.382   2.427   7.618
  211SOD    SOD22339   1.114   0.241   8.452
  212SOD    SOD22340   4.707   0.793   8.419
  213SOD    SOD22341   2.067   5.083   7.910
  214SOD    SOD22342   3.038   0.618   7.789
  215SOD    SOD22343   3.294   1.492   7.892
  216SOD    SOD22344   3.501   2.767   7.667
  217SOD    SOD22345   1.148   6.673   1.471
  218SOD    SOD22346   0.519   3.457   8.492
  219SOD    SOD22347   4.508   6.237   1.408
  220SOD    SOD22348   6.329   2.732   0.601
  221SOD    SOD22349   5.199   4.541   0.417
  222SOD    SOD22350   1.744   6.498   7.119
  223SOD    SOD22351   2.319   7.338   7.731
  224SOD    SOD22352   0.297   0.595   1.868
  225SOD    SOD22353   0.591   6.141   7.334
  226SOD    SOD22354   3.844   5.221  -0.031
  227SOD    SOD22355   1.141   4.242   7.242
  228SOD    SOD22356   5.364   0.561   0.285
  229SOD    SOD22357   5.922   5.860   8.079
  230CLA    CLA22358   2.288   0.451   8.245
  231CLA    CLA22359   5.226   0.253   7.902
  232CLA    CLA22360   6.131   6.622   0.141
  233CLA    CLA22361   4.291   4.985   0.421
  234CLA    CLA22362   6.147   4.282   8.217
  235CLA    CLA22363   4.828   6.153   0.287
  236CLA    CLA22364   4.247   1.339   7.856
  237CLA    CLA22365   1.544   4.003   1.609
  238CLA    CLA22366   5.707   2.114   1.548
  239CLA    CLA22367   2.648   6.488   6.771
  240CLA    CLA22368   1.466   3.927   8.545
  241CLA    CLA22369   4.976   3.356   8.246
  242CLA    CLA22370   1.944   0.794   8.387
  243CLA    CLA22371   4.981   1.064   0.316
  244CLA    CLA22372   6.828   3.589   8.443
  245CLA    CLA22373   1.418   1.639   7.453
  246CLA    CLA22374   4.508   5.118   1.314
  247TIP3   OH222375   4.009   4.108   6.282
  247TIP3    H122376   4.004   4.200   6.256
  247TIP3    H222377   3.976   4.064   6.202
  248TIP3   OH222378   3.806   3.865   6.381
  248TIP3    H122379   3.851   3.921   6.316
  248TIP3    H222380   3.835   3.777   6.361
  249TIP3   OH222381   3.140   4.225   6.319
  249TIP3    H122382   3.074   4.218   6.390
  249TIP3    H222383   3.098   4.169   6.253
  250TIP3   OH222384   2.998   3.814   6.281
  250TIP3    H122385   2.952   3.766   6.351
  250TIP3    H222386   3.077   3.757   6.269
  251TIP3   OH222387   3.505   4.701   6.378
  251TIP3    H122388   3.598   4.675   6.372
  251TIP3    H222389   3.473   4.706   6.286
  252TIP3   OH222390   4.368   4.525   6.346
  252TIP3    H122391   4.337   4.452   6.399
  252TIP3    H222392   4.289   4.553   6.298
  253TIP3   OH222393   4.440   4.825   6.123
  253TIP3    H122394   4.445   4.908   6.071
  253TIP3    H222395   4.525   4.786   6.103
  254TIP3   OH222396   4.017   4.548   6.309
  254TIP3    H122397   4.003   4.621   6.370
  254TIP3    H222398   4.070   4.592   6.239
  255TIP3   OH222399   4.442   5.061   5.994
  255TIP3    H122400   4.514   5.115   6.026
  255TIP3    H222401   4.371   5.082   6.056
  256TIP3   OH222402   2.840   2.428   6.165
  256TIP3    H122403   2.750   2.391   6.167
  256TIP3    H222404   2.892   2.349   6.179
  257TIP3   OH222405   3.192   2.884   6.177
  257TIP3    H122406   3.185   2.905   6.269
  257TIP3    H222407   3.149   2.797   6.168
  258TIP3   OH222408   2.774   2.739   6.248
  258TIP3    H122409   2.813   2.825   6.263
  258TIP3    H222410   2.834   2.707   6.177
  259TIP3   OH222411   4.831   2.738   6.242
  259TIP3    H122412   4.919   2.750   6.276
  259TIP3    H222413   4.776   2.743   6.320
  260TIP3   OH222414   4.815   2.403   6.261
  260TIP3    H122415   4.750   2.434   6.196
  260TIP3    H222416   4.826   2.479   6.317
  261TIP3   OH222417   2.358   2.573   6.316
  261TIP3    H122418   2.285   2.586   6.250
  261TIP3    H222419   2.431   2.588   6.256
  262TIP3   OH222420   5.458   3.722   6.336
  262TIP3    H122421   5.452   3.778   6.256
  262TIP3    H222422   5.387   3.756   6.391
  263TIP3   OH222423   5.694   3.960   6.196
  263TIP3    H122424   5.680   4.054   6.206
  263TIP3    H222425   5.613   3.931   6.152
  264TIP3   OH222426   5.162   3.894   6.205
  264TIP3    H122427   5.099   3.826   6.229
  264TIP3    H222428   5.111   3.970   6.174
  265TIP3   OH222429   4.706   5.244   6.300
  265TIP3    H122430   4.653   5.206   6.371
  265TIP3    H222431   4.776   5.291   6.345
  266TIP3   OH222432   4.785   1.802   6.342
  266TIP3    H122433   4.828   1.887   6.327
  266TIP3    H222434   4.749   1.784   6.255
  267TIP3   OH222435   4.077   1.421   6.126
  267TIP3    H122436   4.142   1.351   6.111
  267TIP3    H222437   4.114   1.498   6.081
  268TIP3   OH222438   2.712   6.211   6.412
  268TIP3    H122439   2.806   6.210   6.393
  268TIP3    H222440   2.711   6.221   6.508
  269TIP3   OH222441   2.449   6.178   6.256
  269TIP3    H122442   2.510   6.181   6.331
  269TIP3    H222443   2.498   6.237   6.194
  270TIP3   OH222444   1.487   5.319   6.315
  270TIP3    H122445   1.418   5.254   6.306
  270TIP3    H222446   1.480   5.373   6.236
  271TIP3   OH222447   1.234   5.686   6.249
  271TIP3    H122448   1.297   5.747   6.289
  271TIP3    H222449   1.148   5.724   6.272
  272TIP3   OH222450   2.059   6.154   6.225
  272TIP3    H122451   2.082   6.135   6.316
  272TIP3    H222452   2.145   6.163   6.181
  273TIP3   OH222453   1.692   6.476   6.255
  273TIP3    H122454   1.746   6.407   6.210
  273TIP3    H222455   1.605   6.435   6.259
  274TIP3   OH222456   4.130   0.469   6.406
  274TIP3    H122457   4.115   0.532   6.337
  274TIP3    H222458   4.047   0.464   6.452
  275TIP3   OH222459   4.542   0.492   6.212
  275TIP3    H122460   4.509   0.467   6.298
  275TIP3    H222461   4.461   0.527   6.170
  276TIP3   OH222462   2.442   0.372   6.264
  276TIP3    H122463   2.485   0.308   6.322
  276TIP3    H222464   2.413   0.435   6.329
  277TIP3   OH222465   2.872   0.627   6.250
  277TIP3    H122466   2.794   0.649   6.302
  277TIP3    H222467   2.839   0.551   6.201
  278TIP3   OH222468   2.198   0.609   6.175
  278TIP3    H122469   2.268   0.671   6.192
  278TIP3    H222470   2.236   0.523   6.198
  279TIP3   OH222471   1.796   0.394   6.198
  279TIP3    H122472   1.835   0.482   6.190
  279TIP3    H222473   1.715   0.404   6.146
  280TIP3   OH222474   1.745   0.793   6.280
  280TIP3    H122475   1.756   0.748   6.363
  280TIP3    H222476   1.807   0.755   6.217
  281TIP3   OH222477   6.970   2.472   6.149
  281TIP3    H122478   7.037   2.405   6.165
  281TIP3    H222479   7.023   2.548   6.122
  282TIP3   OH222480   7.258   2.545   6.333
  282TIP3    H122481   7.275   2.605   6.259
  282TIP3    H222482   7.232   2.464   6.286
  283TIP3   OH222483   0.387   5.096   6.214
  283TIP3    H122484   0.443   5.109   6.290
  283TIP3    H222485   0.341   5.014   6.230
  284TIP3   OH222486   1.458   6.671   6.167
  284TIP3    H122487   1.484   6.730   6.240
  284TIP3    H222488   1.533   6.676   6.107
  285TIP3   OH222489   1.402   6.411   6.232
  285TIP3    H122490   1.463   6.369   6.171
  285TIP3    H222491   1.407   6.506   6.209
  286TIP3   OH222492   1.097   6.409   6.286
  286TIP3    H122493   1.183   6.428   6.244
  286TIP3    H222494   1.123   6.404   6.377
  287TIP3   OH222495   0.012   1.610   6.190
  287TIP3    H122496  -0.058   1.549   6.158
  287TIP3    H222497   0.090   1.578   6.149
  288TIP3   OH222498   6.883   1.439   6.158
  288TIP3    H122499   6.852   1.348   6.164
  288TIP3    H222500   6.965   1.436   6.109
  289TIP3   OH222501   1.369   0.092   6.332
  289TIP3    H122502   1.412   0.028   6.274
  289TIP3    H222503   1.280   0.088   6.295
  290TIP3   OH222504   0.393   6.892   6.321
  290TIP3    H122505   0.359   6.980   6.307
  290TIP3    H222506   0.371   6.840   6.241
  291TIP3   OH222507   0.127   6.613   6.299
  291TIP3    H122508   0.097   6.619   6.390
  291TIP3    H222509   0.047   6.586   6.252
  292TIP3   OH222510   0.388   6.537   6.406
  292TIP3    H122511   0.371   6.625   6.365
  292TIP3    H222512   0.365   6.477   6.336
  293TIP3   OH222513   0.011   0.599   6.220
  293TIP3    H122514   0.104   0.623   6.200
  293TIP3    H222515   0.002   0.511   6.181
  294TIP3   OH222516   0.310   0.985   6.194
  294TIP3    H122517   0.332   1.071   6.160
  294TIP3    H222518   0.329   0.995   6.289
  295TIP3   OH222519   0.389   0.560   6.334
  295TIP3    H122520   0.367   0.618   6.258
  295TIP3    H222521   0.480   0.538   6.315
  296TIP3   OH222522   3.867   3.518   2.428
  296TIP3    H122523   3.957   3.543   2.444
  296TIP3    H222524   3.871   3.428   2.396
  297TIP3   OH222525   3.712   3.045   2.142
  297TIP3    H122526   3.758   2.965   2.167
  297TIP3    H222527   3.693   3.091   2.224
  298TIP3   OH222528   3.494   3.304   2.210
  298TIP3    H122529   3.432   3.236   2.238
  298TIP3    H222530   3.568   3.286   2.270
  299TIP3   OH222531   4.045   4.542   2.149
  299TIP3    H122532   3.965   4.544   2.099
  299TIP3    H222533   4.019   4.588   2.231
  300TIP3   OH222534   3.812   4.879   2.306
  300TIP3    H122535   3.855   4.923   2.233
  300TIP3    H222536   3.728   4.924   2.316
  301TIP3   OH222537   3.213   4.482   2.281
  301TIP3    H122538   3.304   4.450   2.275
  301TIP3    H222539   3.225   4.562   2.334
  302TIP3   OH222540   3.000   4.929   2.226
  302TIP3    H122541   2.933   4.976   2.277
  302TIP3    H222542   2.968   4.943   2.137
  303TIP3   OH222543   4.054   2.694   2.321
  303TIP3    H122544   3.997   2.732   2.255
  303TIP3    H222545   4.013   2.606   2.340
  304TIP3   OH222546   4.356   5.328   2.311
  304TIP3    H122547   4.270   5.301   2.281
  304TIP3    H222548   4.404   5.246   2.335
  305TIP3   OH222549   4.723   5.253   2.224
  305TIP3    H122550   4.683   5.331   2.265
  305TIP3    H222551   4.689   5.183   2.281
  306TIP3   OH222552   2.505   4.749   2.242
  306TIP3    H122553   2.535   4.666   2.275
  306TIP3    H222554   2.505   4.736   2.147
  307TIP3   OH222555   3.344   1.544   2.167
  307TIP3    H122556   3.261   1.523   2.125
  307TIP3    H222557   3.383   1.456   2.180
  308TIP3   OH222558   3.682   1.849   2.337
  308TIP3    H122559   3.700   1.759   2.303
  308TIP3    H222560   3.592   1.839   2.371
  309TIP3   OH222561   3.479   1.767   2.067
  309TIP3    H122562   3.473   1.675   2.097
  309TIP3    H222563   3.461   1.816   2.147
  310TIP3   OH222564   5.453   4.519   2.208
  310TIP3    H122565   5.478   4.505   2.116
  310TIP3    H222566   5.389   4.590   2.202
  311TIP3   OH222567   2.856   5.836   2.331
  311TIP3    H122568   2.763   5.826   2.351
  311TIP3    H222569   2.892   5.777   2.399
  312TIP3   OH222570   3.147   5.597   2.168
  312TIP3    H122571   3.180   5.510   2.143
  312TIP3    H222572   3.143   5.646   2.086
  313TIP3   OH222573   4.481   5.903   2.273
  313TIP3    H122574   4.400   5.919   2.327
  313TIP3    H222575   4.523   5.988   2.271
  314TIP3   OH222576   5.804   2.698   2.238
  314TIP3    H122577   5.766   2.782   2.259
  314TIP3    H222578   5.898   2.716   2.223
  315TIP3   OH222579   6.256   2.818   2.305
  315TIP3    H122580   6.167   2.845   2.333
  315TIP3    H222581   6.251   2.815   2.209
  316TIP3   OH222582   5.928   3.264   2.378
  316TIP3    H122583   5.857   3.322   2.348
  316TIP3    H222584   5.910   3.181   2.335
  317TIP3   OH222585   5.306   5.759   2.288
  317TIP3    H122586   5.369   5.742   2.358
  317TIP3    H222587   5.222   5.784   2.330
  318TIP3   OH222588   5.966   5.190   2.239
  318TIP3    H122589   5.974   5.098   2.269
  318TIP3    H222590   5.901   5.225   2.299
  319TIP3   OH222591   2.793   6.095   2.394
  319TIP3    H122592   2.756   6.185   2.400
  319TIP3    H222593   2.828   6.091   2.306
  320TIP3   OH222594   5.715   5.551   2.175
  320TIP3    H122595   5.780   5.497   2.134
  320TIP3    H222596   5.630   5.513   2.140
  321TIP3   OH222597   0.881   5.349   2.207
  321TIP3    H122598   0.829   5.284   2.161
  321TIP3    H222599   0.923   5.301   2.280
  322TIP3   OH222600   4.736   6.558   2.131
  322TIP3    H122601   4.750   6.561   2.227
  322TIP3    H222602   4.667   6.622   2.116
  323TIP3   OH222603   5.024   6.446   2.374
  323TIP3    H122604   4.990   6.357   2.377
  323TIP3    H222605   4.948   6.502   2.397
  324TIP3   OH222606   1.223   1.731   2.172
  324TIP3    H122607   1.255   1.698   2.258
  324TIP3    H222608   1.293   1.712   2.111
  325TIP3   OH222609   1.516   1.432   2.232
  325TIP3    H122610   1.445   1.393   2.181
  325TIP3    H222611   1.578   1.470   2.169
  326TIP3   OH222612   6.966   2.998   2.236
  326TIP3    H122613   6.954   2.996   2.140
  326TIP3    H222614   7.040   2.936   2.246
  327TIP3   OH222615   5.545   0.182   2.279
  327TIP3    H122616   5.495   0.253   2.239
  327TIP3    H222617   5.625   0.170   2.224
  328TIP3   OH222618   1.419   6.765   2.280
  328TIP3    H122619   1.343   6.729   2.330
  328TIP3    H222620   1.412   6.723   2.195
  329TIP3   OH222621   6.744   0.596   2.296
  329TIP3    H122622   6.826   0.631   2.262
  329TIP3    H222623   6.706   0.673   2.344
  330TIP3   OH222624   1.813   0.232   2.197
  330TIP3    H122625   1.805   0.327   2.218
  330TIP3    H222626   1.726   0.235   2.151
  331TIP3   OH222627   0.232   6.745   2.268
  331TIP3    H122628   0.138   6.755   2.248
  331TIP3    H222629   0.271   6.833   2.258
  332TIP3   OH222630   0.529   6.696   2.136
  332TIP3    H122631   0.612   6.650   2.120
  332TIP3    H222632   0.467   6.622   2.121
  333TIP3   OH222633   0.244   6.574   2.046
  333TIP3    H122634   0.156   6.540   2.036
  333TIP3    H222635   0.241   6.626   2.129
  334TIP3   OH222636   7.302   6.851   2.305
  334TIP3    H122637   7.282   6.826   2.214
  334TIP3    H222638   7.314   6.947   2.297
  335TIP3   OH222639   6.917   6.689   2.127
  335TIP3    H122640   6.883   6.600   2.138
  335TIP3    H222641   6.922   6.716   2.220
  336TIP3   OH222642   1.180   1.007   6.930
  336TIP3    H122643   1.181   1.105   6.928
  336TIP3    H222644   1.108   0.986   6.869
  337TIP3   OH222645   1.066   0.932   7.279
  337TIP3    H122646   1.065   0.869   7.352
  337TIP3    H222647   1.031   0.880   7.205
  338TIP3   OH222648   0.305   0.899   7.432
  338TIP3    H122649   0.310   0.830   7.502
  338TIP3    H222650   0.378   0.957   7.457
  339TIP3   OH222651   1.434   1.223   7.108
  339TIP3    H122652   1.392   1.155   7.161
  339TIP3    H222653   1.439   1.297   7.173
  340TIP3   OH222654   0.389   1.344   7.286
  340TIP3    H122655   0.359   1.258   7.254
  340TIP3    H222656   0.485   1.327   7.289
  341TIP3   OH222657   0.078   0.702   6.806
  341TIP3    H122658   0.029   0.783   6.836
  341TIP3    H222659   0.005   0.646   6.792
  342TIP3   OH222660   0.127   0.918   7.045
  342TIP3    H122661   0.154   0.842   7.097
  342TIP3    H222662   0.200   0.932   6.984
  343TIP3   OH222663   1.146   1.743   7.131
  343TIP3    H122664   1.212   1.674   7.104
  343TIP3    H222665   1.127   1.709   7.219
  344TIP3   OH222666   0.903   1.171   7.327
  344TIP3    H122667   0.937   1.109   7.261
  344TIP3    H222668   0.984   1.186   7.379
  345TIP3   OH222669   1.764   0.337   7.399
  345TIP3    H122670   1.780   0.398   7.475
  345TIP3    H222671   1.818   0.381   7.332
  346TIP3   OH222672   1.220   0.619   7.360
  346TIP3    H122673   1.235   0.522   7.360
  346TIP3    H222674   1.210   0.633   7.264
  347TIP3   OH222675   0.536   0.430   7.079
  347TIP3    H122676   0.543   0.515   7.030
  347TIP3    H222677   0.491   0.373   7.012
  348TIP3   OH222678   1.307   0.436   6.920
  348TIP3    H122679   1.373   0.407   6.986
  348TIP3    H222680   1.358   0.493   6.860
  349TIP3   OH222681   0.197   0.667   7.146
  349TIP3    H122682   0.263   0.615   7.196
  349TIP3    H222683   0.212   0.635   7.056
  350TIP3   OH222684   0.708   0.823   7.085
  350TIP3    H122685   0.776   0.766   7.125
  350TIP3    H222686   0.659   0.758   7.032
  351TIP3   OH222687   1.805   0.476   7.627
  351TIP3    H122688   1.746   0.554   7.617
  351TIP3    H222689   1.813   0.471   7.723
  352TIP3   OH222690   0.422   0.321   7.484
  352TIP3    H122691   0.394   0.375   7.408
  352TIP3    H222692   0.352   0.342   7.551
  353TIP3   OH222693   1.153   1.267   6.838
  353TIP3    H122694   1.124   1.241   6.750
  353TIP3    H222695   1.120   1.360   6.843
  354TIP3   OH222696   0.676   1.082   7.508
  354TIP3    H122697   0.603   1.145   7.530
  354TIP3    H222698   0.745   1.143   7.478
  355TIP3   OH222699   1.487   0.371   7.116
  355TIP3    H122700   1.464   0.295   7.170
  355TIP3    H222701   1.555   0.413   7.172
  356TIP3   OH222702   0.378   0.500   7.285
  356TIP3    H122703   0.438   0.570   7.320
  356TIP3    H222704   0.433   0.462   7.213
  357TIP3   OH222705   0.517   1.282   7.588
  357TIP3    H122706   0.512   1.374   7.556
  357TIP3    H222707   0.429   1.274   7.632
  358TIP3   OH222708   0.130   1.249   6.664
  358TIP3    H122709   0.098   1.278   6.577
  358TIP3    H222710   0.130   1.329   6.719
  359TIP3   OH222711   1.486   1.393   7.325
  359TIP3    H122712   1.396   1.417   7.356
  359TIP3    H222713   1.516   1.487   7.324
  360TIP3   OH222714   1.522   0.241   7.491
  360TIP3    H122715   1.448   0.300   7.472
  360TIP3    H222716   1.591   0.277   7.432
  361TIP3   OH222717   0.843   0.072   7.227
  361TIP3    H122718   0.833  -0.024   7.225
  361TIP3    H222719   0.752   0.095   7.249
  362TIP3   OH222720   1.312   1.589   6.999
  362TIP3    H122721   1.358   1.515   6.955
  362TIP3    H222722   1.357   1.667   6.962
  363TIP3   OH222723   1.433   1.383   6.857
  363TIP3    H122724   1.409   1.311   6.795
  363TIP3    H222725   1.437   1.333   6.940
  364TIP3   OH222726   1.597   1.240   7.706
  364TIP3    H122727   1.610   1.176   7.633
  364TIP3    H222728   1.617   1.325   7.660
  365TIP3   OH222729   1.051   0.930   6.682
  365TIP3    H122730   0.976   0.986   6.649
  365TIP3    H222731   1.118   0.946   6.615
  366TIP3   OH222732   1.785   0.873   7.509
  366TIP3    H122733   1.719   0.945   7.513
  366TIP3    H222734   1.835   0.896   7.428
  367TIP3   OH222735   1.387   0.946   6.772
  367TIP3    H122736   1.318   0.976   6.836
  367TIP3    H222737   1.439   0.885   6.826
  368TIP3   OH222738   1.384   0.767   7.686
  368TIP3    H122739   1.384   0.850   7.738
  368TIP3    H222740   1.321   0.796   7.617
  369TIP3   OH222741   0.553   1.018   6.967
  369TIP3    H122742   0.519   0.979   6.883
  369TIP3    H222743   0.615   0.949   6.999
  370TIP3   OH222744   0.683   1.354   7.233
  370TIP3    H122745   0.685   1.304   7.151
  370TIP3    H222746   0.762   1.320   7.279
  371TIP3   OH222747   0.586   0.892   7.332
  371TIP3    H122748   0.640   0.902   7.251
  371TIP3    H222749   0.624   0.959   7.393
  372TIP3   OH222750   1.202   1.441   7.395
  372TIP3    H122751   1.206   1.509   7.463
  372TIP3    H222752   1.198   1.358   7.447
  373TIP3   OH222753   0.680   1.335   7.801
  373TIP3    H122754   0.638   1.408   7.850
  373TIP3    H222755   0.613   1.315   7.731
  374TIP3   OH222756   0.379   0.952   7.721
  374TIP3    H122757   0.380   1.022   7.789
  374TIP3    H222758   0.285   0.958   7.694
  375TIP3   OH222759   1.049   1.543   6.886
  375TIP3    H122760   1.096   1.576   6.964
  375TIP3    H222761   0.994   1.618   6.863
  376TIP3   OH222762   0.505   1.537   7.875
  376TIP3    H122763   0.496   1.529   7.779
  376TIP3    H222764   0.412   1.526   7.904
  377TIP3   OH222765   1.650   0.052   6.520
  377TIP3    H122766   1.557   0.056   6.550
  377TIP3    H222767   1.663   0.138   6.480
  378TIP3   OH222768   0.455   0.922   6.723
  378TIP3    H122769   0.424   1.001   6.674
  378TIP3    H222770   0.383   0.860   6.710
  379TIP3   OH222771   0.101   1.154   7.595
  379TIP3    H122772   0.029   1.158   7.530
  379TIP3    H222773   0.074   1.069   7.635
  380TIP3   OH222774   0.051   1.452   7.275
  380TIP3    H122775   0.139   1.420   7.295
  380TIP3    H222776   0.032   1.510   7.349
  381TIP3   OH222777   1.856   1.506   7.860
  381TIP3    H122778   1.846   1.410   7.862
  381TIP3    H222779   1.770   1.531   7.902
  382TIP3   OH222780   0.952   1.458   7.752
  382TIP3    H122781   0.960   1.544   7.800
  382TIP3    H222782   0.864   1.424   7.776
  383TIP3   OH222783   0.996   1.837   6.731
  383TIP3    H122784   0.989   1.827   6.635
  383TIP3    H222785   1.003   1.932   6.747
  384TIP3   OH222786   0.360   1.724   6.911
  384TIP3    H122787   0.375   1.680   6.997
  384TIP3    H222788   0.279   1.679   6.884
  385TIP3   OH222789   1.571   0.654   7.910
  385TIP3    H122790   1.524   0.698   7.838
  385TIP3    H222791   1.571   0.562   7.879
  386TIP3   OH222792   0.288   1.300   7.713
  386TIP3    H122793   0.304   1.259   7.800
  386TIP3    H222794   0.203   1.257   7.685
  387TIP3   OH222795   0.550   0.159   7.311
  387TIP3    H122796   0.463   0.138   7.271
  387TIP3    H222797   0.532   0.240   7.360
  388TIP3   OH222798   1.017   0.106   7.642
  388TIP3    H122799   1.057   0.071   7.722
  388TIP3    H222800   0.921   0.100   7.659
  389TIP3   OH222801   1.347   0.490   7.732
  389TIP3    H122802   1.290   0.473   7.811
  389TIP3    H222803   1.330   0.583   7.709
  390TIP3   OH222804   0.566   0.639   7.432
  390TIP3    H122805   0.492   0.638   7.495
  390TIP3    H222806   0.558   0.730   7.394
  391TIP3   OH222807   0.562   0.647   6.919
  391TIP3    H122808   0.467   0.628   6.903
  391TIP3    H222809   0.600   0.621   6.832
  392TIP3   OH222810   1.111   0.699   6.792
  392TIP3    H122811   1.074   0.784   6.760
  392TIP3    H222812   1.183   0.682   6.729
  393TIP3   OH222813   1.018   0.722   7.938
  393TIP3    H122814   0.966   0.643   7.968
  393TIP3    H222815   1.102   0.710   7.985
  394TIP3   OH222816   1.217   0.651   7.077
  394TIP3    H122817   1.188   0.706   7.002
  394TIP3    H222818   1.225   0.565   7.031
  395TIP3   OH222819   0.329   0.662   7.599
  395TIP3    H122820   0.333   0.704   7.686
  395TIP3    H222821   0.282   0.579   7.618
  396TIP3   OH222822   0.012   0.399   6.992
  396TIP3    H122823   0.063   0.373   7.071
  396TIP3    H222824   0.044   0.335   6.925
  397TIP3   OH222825   0.132   0.465   6.544
  397TIP3    H122826   0.177   0.518   6.475
  397TIP3    H222827   0.054   0.517   6.560
  398TIP3   OH222828   1.136   0.808   7.534
  398TIP3    H122829   1.174   0.739   7.476
  398TIP3    H222830   1.089   0.755   7.601
  399TIP3   OH222831   0.814   0.400   7.018
  399TIP3    H122832   0.721   0.404   7.051
  399TIP3    H222833   0.865   0.391   7.099
  400TIP3   OH222834   0.306   0.559   6.903
  400TIP3    H122835   0.216   0.579   6.870
  400TIP3    H222836   0.327   0.473   6.863
  401TIP3   OH222837   0.655   0.566   6.674
  401TIP3    H122838   0.753   0.570   6.686
  401TIP3    H222839   0.640   0.631   6.604
  402TIP3   OH222840   1.257   0.329   7.340
  402TIP3    H122841   1.188   0.334   7.410
  402TIP3    H222842   1.207   0.304   7.261
  403TIP3   OH222843   1.578   1.893   7.980
  403TIP3    H122844   1.603   1.927   7.892
  403TIP3    H222845   1.651   1.926   8.035
  404TIP3   OH222846   0.348   1.140   7.930
  404TIP3    H122847   0.416   1.164   7.995
  404TIP3    H222848   0.269   1.150   7.988
  405TIP3   OH222849   0.945   0.680   7.206
  405TIP3    H122850   1.003   0.624   7.153
  405TIP3    H222851   0.929   0.626   7.285
  406TIP3   OH222852   0.443   0.301   6.845
  406TIP3    H122853   0.411   0.210   6.855
  406TIP3    H222854   0.525   0.293   6.796
  407TIP3   OH222855   0.808   0.512   7.449
  407TIP3    H122856   0.726   0.566   7.457
  407TIP3    H222857   0.864   0.549   7.520
  408TIP3   OH222858   0.873   1.121   6.621
  408TIP3    H122859   0.786   1.096   6.584
  408TIP3    H222860   0.845   1.156   6.708
  409TIP3   OH222861   1.586   1.058   7.498
  409TIP3    H122862   1.642   1.107   7.435
  409TIP3    H222863   1.500   1.064   7.452
  410TIP3   OH222864   1.016   1.163   7.742
  410TIP3    H122865   0.981   1.121   7.821
  410TIP3    H222866   0.990   1.256   7.754
  411TIP3   OH222867   1.318   0.621   6.613
  411TIP3    H122868   1.409   0.595   6.638
  411TIP3    H222869   1.332   0.683   6.542
  412TIP3   OH222870   0.380   1.078   7.198
  412TIP3    H122871   0.446   1.067   7.128
  412TIP3    H222872   0.385   0.992   7.244
  413TIP3   OH222873   1.082   1.282   6.531
  413TIP3    H122874   1.038   1.366   6.552
  413TIP3    H222875   1.003   1.225   6.541
  414TIP3   OH222876   0.101   0.894   7.698
  414TIP3    H122877   0.110   0.871   7.792
  414TIP3    H222878   0.016   0.853   7.676
  415TIP3   OH222879   0.778   0.873   7.941
  415TIP3    H122880   0.746   0.841   7.856
  415TIP3    H222881   0.871   0.841   7.941
  416TIP3   OH222882   1.247   1.402   7.739
  416TIP3    H122883   1.156   1.425   7.712
  416TIP3    H222884   1.244   1.436   7.830
  417TIP3   OH222885   1.815   0.626   6.575
  417TIP3    H122886   1.757   0.591   6.506
  417TIP3    H222887   1.818   0.720   6.554
  418TIP3   OH222888   1.813   1.208   7.857
  418TIP3    H122889   1.723   1.231   7.824
  418TIP3    H222890   1.867   1.204   7.775
  419TIP3   OH222891   1.364   0.988   7.327
  419TIP3    H122892   1.270   0.968   7.315
  419TIP3    H222893   1.406   0.912   7.283
  420TIP3   OH222894   0.614   1.423   6.942
  420TIP3    H122895   0.666   1.501   6.914
  420TIP3    H222896   0.528   1.444   6.902
  421TIP3   OH222897   0.759   1.188   6.892
  421TIP3    H122898   0.726   1.279   6.898
  421TIP3    H222899   0.685   1.139   6.932
  422TIP3   OH222900   0.804   1.607   7.530
  422TIP3    H122901   0.851   1.687   7.500
  422TIP3    H222902   0.868   1.572   7.595
  423TIP3   OH222903   0.623   1.686   6.851
  423TIP3    H122904   0.526   1.701   6.857
  423TIP3    H222905   0.661   1.772   6.874
  424TIP3   OH222906   1.151   1.201   7.491
  424TIP3    H122907   1.123   1.187   7.584
  424TIP3    H222908   1.219   1.134   7.475
  425TIP3   OH222909   1.433   1.668   7.748
  425TIP3    H122910   1.371   1.616   7.693
  425TIP3    H222911   1.455   1.730   7.675
  426TIP3   OH222912   0.242   0.386   7.675
  426TIP3    H122913   0.153   0.425   7.681
  426TIP3    H222914   0.229   0.302   7.724
  427TIP3   OH222915   1.464   1.180   6.644
  427TIP3    H122916   1.444   1.091   6.679
  427TIP3    H222917   1.562   1.179   6.640
  428TIP3   OH222918   0.208   1.572   7.518
  428TIP3    H122919   0.230   1.477   7.521
  428TIP3    H222920   0.227   1.596   7.609
  429TIP3   OH222921   0.333   1.102   6.539
  429TIP3    H122922   0.262   1.137   6.598
  429TIP3    H222923   0.385   1.181   6.523
  430TIP3   OH222924   1.117   0.364   7.576
  430TIP3    H122925   1.189   0.373   7.640
  430TIP3    H222926   1.080   0.275   7.595
  431TIP3   OH222927   1.199   0.322   6.684
  431TIP3    H122928   1.204   0.375   6.601
  431TIP3    H222929   1.248   0.375   6.748
  432TIP3   OH222930   0.909   0.501   6.763
  432TIP3    H122931   0.991   0.554   6.767
  432TIP3    H222932   0.889   0.483   6.856
  433TIP3   OH222933   0.968   0.601   7.686
  433TIP3    H122934   0.976   0.656   7.766
  433TIP3    H222935   1.035   0.532   7.693
  434TIP3   OH222936   1.002   0.201   6.862
  434TIP3    H122937   0.963   0.269   6.919
  434TIP3    H222938   1.064   0.257   6.810
  435TIP3   OH222939   0.685   1.646   6.572
  435TIP3    H122940   0.710   1.721   6.515
  435TIP3    H222941   0.672   1.683   6.660
  436TIP3   OH222942   1.585   0.386   7.770
  436TIP3    H122943   1.493   0.420   7.757
  436TIP3    H222944   1.616   0.385   7.678
  437TIP3   OH222945   1.447   0.768   7.174
  437TIP3    H122946   1.365   0.723   7.142
  437TIP3    H222947   1.495   0.698   7.223
  438TIP3   OH222948   0.387   1.363   6.424
  438TIP3    H122949   0.449   1.427   6.465
  438TIP3    H222950   0.448   1.316   6.368
  439TIP3   OH222951   1.619   1.692   7.259
  439TIP3    H122952   1.548   1.759   7.265
  439TIP3    H222953   1.652   1.698   7.351
  440TIP3   OH222954   0.285   0.121   7.219
  440TIP3    H122955   0.285   0.110   7.122
  440TIP3    H222956   0.268   0.028   7.243
  441TIP3   OH222957   0.201   1.499   6.835
  441TIP3    H122958   0.114   1.539   6.827
  441TIP3    H222959   0.246   1.545   6.763
  442TIP3   OH222960   0.137   1.763   7.958
  442TIP3    H122961   0.186   1.740   8.039
  442TIP3    H222962   0.082   1.682   7.947
  443TIP3   OH222963   0.588   1.651   8.123
  443TIP3    H122964   0.665   1.604   8.155
  443TIP3    H222965   0.584   1.624   8.029
  444TIP3   OH222966   1.234   1.493   7.997
  444TIP3    H122967   1.205   1.403   8.024
  444TIP3    H222968   1.313   1.505   8.053
  445TIP3   OH222969   0.125   1.139   8.058
  445TIP3    H122970   0.128   1.045   8.031
  445TIP3    H222971   0.042   1.169   8.017
  446TIP3   OH222972   0.782   1.138   7.997
  446TIP3    H122973   0.748   1.170   7.911
  446TIP3    H222974   0.789   1.040   7.985
  447TIP3   OH222975   1.351   1.124   7.740
  447TIP3    H122976   1.430   1.183   7.732
  447TIP3    H222977   1.283   1.193   7.743
  448TIP3   OH222978   0.195   0.861   7.998
  448TIP3    H122979   0.245   0.777   7.991
  448TIP3    H222980   0.184   0.865   8.095
  449TIP3   OH222981   0.666   0.976   6.503
  449TIP3    H122982   0.615   0.928   6.570
  449TIP3    H222983   0.690   0.907   6.440
  450TIP3   OH222984   0.591   0.756   7.735
  450TIP3    H122985   0.530   0.828   7.760
  450TIP3    H222986   0.631   0.794   7.654
  451TIP3   OH222987   1.099   1.015   8.075
  451TIP3    H122988   1.194   1.011   8.055
  451TIP3    H222989   1.083   0.937   8.129
  452TIP3   OH222990   0.636   0.496   7.839
  452TIP3    H122991   0.644   0.425   7.773
  452TIP3    H222992   0.625   0.576   7.786
  453TIP3   OH222993   0.673   0.335   7.593
  453TIP3    H122994   0.724   0.382   7.523
  453TIP3    H222995   0.583   0.323   7.554
  454TIP3   OH222996   0.826   0.882   7.620
  454TIP3    H122997   0.902   0.865   7.562
  454TIP3    H222998   0.790   0.966   7.586
  455TIP3   OH222999   1.265   0.653   8.117
  455TIP3    H123000   1.290   0.561   8.104
  455TIP3    H223001   1.351   0.698   8.117
  456TIP3   OH223002   1.400   0.936   7.932
  456TIP3    H123003   1.375   1.009   7.871
  456TIP3    H223004   1.497   0.933   7.913
  457TIP3   OH223005   0.477   0.620   8.033
  457TIP3    H123006   0.399   0.563   8.015
  457TIP3    H223007   0.540   0.586   7.968
  458TIP3   OH223008   0.743   0.092   7.652
  458TIP3    H123009   0.733   0.188   7.630
  458TIP3    H223010   0.678   0.052   7.592
  459TIP3   OH223011   0.880   0.508   8.000
  459TIP3    H123012   0.843   0.484   8.087
  459TIP3    H223013   0.803   0.490   7.943
  460TIP3   OH223014   1.150   0.430   7.909
  460TIP3    H123015   1.053   0.429   7.917
  460TIP3    H223016   1.178   0.362   7.974
  461TIP3   OH223017   1.308   0.296   8.099
  461TIP3    H123018   1.306   0.197   8.095
  461TIP3    H223019   1.283   0.316   8.191
  462TIP3   OH223020   0.293   0.409   8.009
  462TIP3    H123021   0.314   0.335   7.949
  462TIP3    H223022   0.281   0.364   8.095
  463TIP3   OH223023   0.771   7.356   7.903
  463TIP3    H123024   0.837   7.287   7.911
  463TIP3    H223025   0.764   7.378   7.807
  464TIP3   OH223026   0.809   0.182   8.112
  464TIP3    H123027   0.793   0.125   8.033
  464TIP3    H223028   0.748   0.256   8.101
  465TIP3   OH223029   0.759   1.872   6.433
  465TIP3    H123030   0.855   1.877   6.439
  465TIP3    H223031   0.736   1.934   6.363
  466TIP3   OH223032   0.117   1.326   6.381
  466TIP3    H123033   0.211   1.338   6.403
  466TIP3    H223034   0.119   1.260   6.311
  467TIP3   OH223035   7.358   1.874   6.867
  467TIP3    H123036   7.272   1.849   6.830
  467TIP3    H223037   7.371   1.807   6.938
  468TIP3   OH223038   0.066   1.682   7.060
  468TIP3    H123039   0.038   1.591   7.083
  468TIP3    H223040   0.098   1.712   7.147
  469TIP3   OH223041   1.850   1.750   7.368
  469TIP3    H123042   1.831   1.778   7.458
  469TIP3    H223043   1.899   1.823   7.329
  470TIP3   OH223044   1.782   1.717   7.654
  470TIP3    H123045   1.736   1.641   7.613
  470TIP3    H223046   1.831   1.669   7.723
  471TIP3   OH223047   1.626   1.293   8.115
  471TIP3    H123048   1.539   1.286   8.159
  471TIP3    H223049   1.665   1.370   8.161
  472TIP3   OH223050   1.756   1.123   6.670
  472TIP3    H123051   1.846   1.158   6.675
  472TIP3    H223052   1.761   1.047   6.729
  473TIP3   OH223053   1.800   0.925   6.849
  473TIP3    H123054   1.720   0.883   6.887
  473TIP3    H223055   1.855   0.943   6.928
  474TIP3   OH223056   1.772   1.199   7.351
  474TIP3    H123057   1.853   1.163   7.310
  474TIP3    H223058   1.783   1.295   7.333
  475TIP3   OH223059   1.631   1.479   7.585
  475TIP3    H123060   1.560   1.527   7.631
  475TIP3    H223061   1.575   1.455   7.507
  476TIP3   OH223062   1.579   0.777   6.907
  476TIP3    H123063   1.561   0.681   6.905
  476TIP3    H223064   1.544   0.799   6.995
  477TIP3   OH223065   0.075   0.984   7.312
  477TIP3    H123066   0.094   0.980   7.216
  477TIP3    H223067   0.164   0.971   7.351
  478TIP3   OH223068   1.663   0.972   7.874
  478TIP3    H123069   1.725   0.898   7.892
  478TIP3    H223070   1.722   1.051   7.877
  479TIP3   OH223071   1.813   0.762   7.937
  479TIP3    H123072   1.725   0.721   7.928
  479TIP3    H223073   1.872   0.684   7.939
  480TIP3   OH223074   1.546   0.536   6.758
  480TIP3    H123075   1.571   0.441   6.765
  480TIP3    H223076   1.624   0.575   6.717
  481TIP3   OH223077   1.608   0.592   7.298
  481TIP3    H123078   1.704   0.613   7.296
  481TIP3    H223079   1.589   0.603   7.392
  482TIP3   OH223080   1.614   0.664   7.576
  482TIP3    H123081   1.526   0.691   7.608
  482TIP3    H223082   1.658   0.749   7.554
  483TIP3   OH223083   0.060   0.510   7.930
  483TIP3    H123084   0.150   0.482   7.954
  483TIP3    H223085   0.002   0.437   7.963
  484TIP3   OH223086   1.851   0.066   8.110
  484TIP3    H123087   1.875  -0.001   8.046
  484TIP3    H223088   1.849   0.150   8.061
  485TIP3   OH223089   1.609   0.265   6.757
  485TIP3    H123090   1.631   0.218   6.840
  485TIP3    H223091   1.548   0.199   6.715
  486TIP3   OH223092   0.155   0.349   7.217
  486TIP3    H123093   0.205   0.267   7.240
  486TIP3    H223094   0.214   0.413   7.258
  487TIP3   OH223095   0.059   0.696   7.359
  487TIP3    H123096   0.068   0.659   7.269
  487TIP3    H223097   0.038   0.786   7.335
  488TIP3   OH223098   1.796   0.274   7.943
  488TIP3    H123099   1.702   0.303   7.943
  488TIP3    H223100   1.794   0.219   7.863
  489TIP3   OH223101   7.413   0.271   6.781
  489TIP3    H123102   7.316   0.278   6.767
  489TIP3    H223103   7.441   0.320   6.702
  490TIP3   OH223104   1.497   1.773   6.913
  490TIP3    H123105   1.567   1.734   6.859
  490TIP3    H223106   1.547   1.811   6.987
  491TIP3   OH223107   7.375   0.136   7.569
  491TIP3    H123108   7.301   0.111   7.624
  491TIP3    H223109   7.326   0.190   7.505
  492TIP3   OH223110   0.245   1.461   7.974
  492TIP3    H123111   0.160   1.477   7.930
  492TIP3    H223112   0.217   1.447   8.065
  493TIP3   OH223113   0.535   1.559   7.600
  493TIP3    H123114   0.497   1.643   7.572
  493TIP3    H223115   0.627   1.568   7.568
  494TIP3   OH223116   0.965   1.699   7.889
  494TIP3    H123117   0.978   1.665   7.980
  494TIP3    H223118   1.055   1.729   7.865
  495TIP3   OH223119   1.194   1.829   7.825
  495TIP3    H123120   1.264   1.769   7.795
  495TIP3    H223121   1.235   1.870   7.903
  496TIP3   OH223122   1.697   0.090   7.728
  496TIP3    H123123   1.614   0.122   7.692
  496TIP3    H223124   1.713   0.007   7.679
  497TIP3   OH223125   0.277   1.882   7.602
  497TIP3    H123126   0.202   1.928   7.560
  497TIP3    H223127   0.241   1.861   7.689
  498TIP3   OH223128   0.523   1.839   7.505
  498TIP3    H123129   0.434   1.855   7.546
  498TIP3    H223130   0.518   1.898   7.428
  499TIP3   OH223131   0.987   1.829   7.418
  499TIP3    H123132   0.946   1.889   7.355
  499TIP3    H223133   1.009   1.888   7.494
  500TIP3   OH223134   1.179   1.745   7.564
  500TIP3    H123135   1.126   1.742   7.483
  500TIP3    H223136   1.262   1.778   7.522
  501TIP3   OH223137   1.506   1.892   7.555
  501TIP3    H123138   1.470   1.975   7.522
  501TIP3    H223139   1.494   1.832   7.477
  502TIP3   OH223140   0.219   1.746   7.291
  502TIP3    H123141   0.215   1.702   7.378
  502TIP3    H223142   0.301   1.706   7.253
  503TIP3   OH223143   0.429   1.616   7.157
  503TIP3    H123144   0.411   1.523   7.182
  503TIP3    H223145   0.514   1.632   7.203
  504TIP3   OH223146   0.684   1.664   7.246
  504TIP3    H123147   0.704   1.572   7.219
  504TIP3    H223148   0.692   1.658   7.342
  505TIP3   OH223149   1.033   0.240   7.158
  505TIP3    H123150   0.969   0.171   7.185
  505TIP3    H223151   1.094   0.184   7.106
  506TIP3   OH223152   1.547   0.038   7.168
  506TIP3    H123153   1.608   0.091   7.113
  506TIP3    H223154   1.460   0.071   7.143
  507TIP3   OH223155   1.717   0.163   6.989
  507TIP3    H123156   1.785   0.101   6.956
  507TIP3    H223157   1.768   0.245   7.004
  508TIP3   OH223158   0.284   0.095   6.922
  508TIP3    H123159   0.190   0.071   6.905
  508TIP3    H223160   0.314   0.008   6.952
  509TIP3   OH223161   0.249   0.118   6.477
  509TIP3    H123162   0.223   0.174   6.405
  509TIP3    H223163   0.164   0.122   6.520
  510TIP3   OH223164   1.272   0.111   7.090
  510TIP3    H123165   1.281   0.113   6.994
  510TIP3    H223166   1.260   0.015   7.103
  511TIP3   OH223167   1.417   0.088   6.664
  511TIP3    H123168   1.348   0.151   6.632
  511TIP3    H223169   1.369   0.005   6.667
  512TIP3   OH223170   0.157   1.672   6.605
  512TIP3    H123171   0.075   1.663   6.551
  512TIP3    H223172   0.143   1.763   6.633
  513TIP3   OH223173   1.027   1.793   6.450
  513TIP3    H123174   1.115   1.824   6.430
  513TIP3    H223175   1.001   1.743   6.372
  514TIP3   OH223176   1.687   1.742   6.721
  514TIP3    H123177   1.682   1.664   6.663
  514TIP3    H223178   1.694   1.816   6.660
  515TIP3   OH223179   0.248   0.152   7.891
  515TIP3    H123180   0.218   0.069   7.930
  515TIP3    H223181   0.342   0.147   7.921
  516TIP3   OH223182   0.442   0.100   8.042
  516TIP3    H123183   0.537   0.077   8.033
  516TIP3    H223184   0.421   0.018   8.090
  517TIP3   OH223185   0.324   1.754   6.313
  517TIP3    H123186   0.295   1.789   6.399
  517TIP3    H223187   0.404   1.708   6.337
  518TIP3   OH223188   1.297   7.385   8.066
  518TIP3    H123189   1.302   7.318   8.137
  518TIP3    H223190   1.382   7.361   8.024
  519TIP3   OH223191   1.621   1.619   7.939
  519TIP3    H123192   1.543   1.604   7.880
  519TIP3    H223193   1.610   1.715   7.951
  520TIP3   OH223194   3.066   1.006   6.933
  520TIP3    H123195   3.065   1.104   6.927
  520TIP3    H223196   2.995   0.983   6.871
  521TIP3   OH223197   2.951   0.933   7.279
  521TIP3    H123198   2.950   0.867   7.350
  521TIP3    H223199   2.916   0.882   7.204
  522TIP3   OH223200   2.186   0.899   7.435
  522TIP3    H123201   2.195   0.831   7.504
  522TIP3    H223202   2.261   0.957   7.457
  523TIP3   OH223203   3.320   1.227   7.109
  523TIP3    H123204   3.279   1.156   7.158
  523TIP3    H223205   3.322   1.298   7.176
  524TIP3   OH223206   2.279   1.343   7.287
  524TIP3    H123207   2.248   1.257   7.254
  524TIP3    H223208   2.375   1.326   7.289
  525TIP3   OH223209   1.946   0.702   6.830
  525TIP3    H123210   1.898   0.788   6.829
  525TIP3    H223211   1.886   0.647   6.779
  526TIP3   OH223212   2.014   0.923   7.047
  526TIP3    H123213   2.042   0.841   7.093
  526TIP3    H223214   2.085   0.934   6.983
  527TIP3   OH223215   3.032   1.743   7.132
  527TIP3    H123216   3.097   1.674   7.103
  527TIP3    H223217   3.010   1.709   7.219
  528TIP3   OH223218   2.789   1.171   7.328
  528TIP3    H123219   2.823   1.109   7.261
  528TIP3    H223220   2.870   1.188   7.378
  529TIP3   OH223221   3.650   0.337   7.399
  529TIP3    H123222   3.665   0.398   7.475
  529TIP3    H223223   3.705   0.380   7.333
  530TIP3   OH223224   3.104   0.617   7.362
  530TIP3    H123225   3.122   0.521   7.358
  530TIP3    H223226   3.096   0.634   7.265
  531TIP3   OH223227   2.417   0.431   7.080
  531TIP3    H123228   2.429   0.514   7.029
  531TIP3    H223229   2.378   0.372   7.012
  532TIP3   OH223230   3.191   0.434   6.916
  532TIP3    H123231   3.256   0.406   6.984
  532TIP3    H223232   3.246   0.494   6.863
  533TIP3   OH223233   2.079   0.669   7.154
  533TIP3    H123234   2.146   0.615   7.199
  533TIP3    H223235   2.090   0.638   7.062
  534TIP3   OH223236   2.595   0.824   7.088
  534TIP3    H123237   2.663   0.766   7.127
  534TIP3    H223238   2.544   0.758   7.035
  535TIP3   OH223239   3.691   0.477   7.626
  535TIP3    H123240   3.632   0.554   7.616
  535TIP3    H223241   3.698   0.470   7.723
  536TIP3   OH223242   2.308   0.320   7.486
  536TIP3    H123243   2.279   0.375   7.410
  536TIP3    H223244   2.237   0.343   7.551
  537TIP3   OH223245   3.037   1.267   6.839
  537TIP3    H123246   3.007   1.240   6.751
  537TIP3    H223247   3.008   1.361   6.844
  538TIP3   OH223248   2.560   1.082   7.507
  538TIP3    H123249   2.489   1.146   7.530
  538TIP3    H223250   2.630   1.143   7.478
  539TIP3   OH223251   3.371   0.371   7.117
  539TIP3    H123252   3.350   0.294   7.170
  539TIP3    H223253   3.442   0.413   7.170
  540TIP3   OH223254   2.264   0.504   7.286
  540TIP3    H123255   2.328   0.572   7.319
  540TIP3    H223256   2.317   0.462   7.214
  541TIP3   OH223257   2.405   1.282   7.590
  541TIP3    H123258   2.399   1.373   7.556
  541TIP3    H223259   2.316   1.274   7.634
  542TIP3   OH223260   2.012   1.244   6.668
  542TIP3    H123261   1.979   1.275   6.582
  542TIP3    H223262   2.022   1.327   6.717
  543TIP3   OH223263   3.373   1.412   7.349
  543TIP3    H123264   3.276   1.422   7.355
  543TIP3    H223265   3.400   1.502   7.322
  544TIP3   OH223266   3.408   0.240   7.491
  544TIP3    H123267   3.334   0.299   7.470
  544TIP3    H223268   3.477   0.277   7.432
  545TIP3   OH223269   2.730   0.069   7.226
  545TIP3    H123270   2.718  -0.026   7.226
  545TIP3    H223271   2.640   0.096   7.248
  546TIP3   OH223272   3.201   1.588   7.007
  546TIP3    H123273   3.242   1.518   6.953
  546TIP3    H223274   3.241   1.667   6.964
  547TIP3   OH223275   3.322   1.382   6.853
  547TIP3    H123276   3.291   1.310   6.797
  547TIP3    H223277   3.324   1.336   6.938
  548TIP3   OH223278   3.478   1.245   7.705
  548TIP3    H123279   3.496   1.176   7.636
  548TIP3    H223280   3.506   1.325   7.657
  549TIP3   OH223281   2.931   0.928   6.681
  549TIP3    H123282   2.862   0.985   6.644
  549TIP3    H223283   3.002   0.938   6.615
  550TIP3   OH223284   3.667   0.870   7.506
  550TIP3    H123285   3.606   0.946   7.513
  550TIP3    H223286   3.720   0.896   7.428
  551TIP3   OH223287   3.277   0.950   6.776
  551TIP3    H123288   3.203   0.976   6.835
  551TIP3    H223289   3.325   0.885   6.830
  552TIP3   OH223290   3.260   0.764   7.693
  552TIP3    H123291   3.273   0.851   7.736
  552TIP3    H223292   3.211   0.799   7.615
  553TIP3   OH223293   2.438   1.018   6.964
  553TIP3    H123294   2.406   0.978   6.881
  553TIP3    H223295   2.499   0.949   6.999
  554TIP3   OH223296   2.569   1.355   7.233
  554TIP3    H123297   2.569   1.303   7.151
  554TIP3    H223298   2.648   1.320   7.279
  555TIP3   OH223299   2.471   0.891   7.332
  555TIP3    H123300   2.525   0.902   7.251
  555TIP3    H223301   2.509   0.959   7.392
  556TIP3   OH223302   3.114   1.450   7.406
  556TIP3    H123303   3.079   1.515   7.468
  556TIP3    H223304   3.085   1.364   7.444
  557TIP3   OH223305   2.565   1.335   7.801
  557TIP3    H123306   2.523   1.408   7.850
  557TIP3    H223307   2.498   1.315   7.731
  558TIP3   OH223308   3.167   0.870   6.542
  558TIP3    H123309   3.220   0.891   6.622
  558TIP3    H223310   3.204   0.924   6.470
  559TIP3   OH223311   2.261   0.953   7.713
  559TIP3    H123312   2.265   1.015   7.788
  559TIP3    H223313   2.166   0.959   7.696
  560TIP3   OH223314   2.934   1.544   6.887
  560TIP3    H123315   2.979   1.575   6.967
  560TIP3    H223316   2.878   1.620   6.865
  561TIP3   OH223317   2.391   1.538   7.875
  561TIP3    H123318   2.384   1.528   7.779
  561TIP3    H223319   2.298   1.525   7.902
  562TIP3   OH223320   3.541   0.052   6.518
  562TIP3    H123321   3.449   0.052   6.553
  562TIP3    H223322   3.551   0.143   6.487
  563TIP3   OH223323   2.334   0.919   6.724
  563TIP3    H123324   2.305   1.000   6.682
  563TIP3    H223325   2.267   0.854   6.704
  564TIP3   OH223326   1.945   1.163   7.615
  564TIP3    H123327   1.899   1.154   7.529
  564TIP3    H223328   1.952   1.068   7.638
  565TIP3   OH223329   1.922   1.435   7.291
  565TIP3    H123330   2.018   1.426   7.292
  565TIP3    H223331   1.908   1.518   7.342
  566TIP3   OH223332   3.737   1.508   7.858
  566TIP3    H123333   3.735   1.411   7.862
  566TIP3    H223334   3.655   1.530   7.907
  567TIP3   OH223335   2.842   1.458   7.754
  567TIP3    H123336   2.843   1.545   7.802
  567TIP3    H223337   2.752   1.425   7.772
  568TIP3   OH223338   2.879   1.835   6.727
  568TIP3    H123339   2.874   1.828   6.630
  568TIP3    H223340   2.888   1.930   6.744
  569TIP3   OH223341   2.242   1.729   6.916
  569TIP3    H123342   2.262   1.681   6.998
  569TIP3    H223343   2.164   1.678   6.887
  570TIP3   OH223344   3.152   1.755   6.712
  570TIP3    H123345   3.056   1.756   6.727
  570TIP3    H223346   3.184   1.676   6.757
  571TIP3   OH223347   3.454   0.653   7.911
  571TIP3    H123348   3.417   0.701   7.837
  571TIP3    H223349   3.460   0.562   7.879
  572TIP3   OH223350   2.172   1.294   7.711
  572TIP3    H123351   2.194   1.257   7.800
  572TIP3    H223352   2.086   1.255   7.689
  573TIP3   OH223353   2.433   0.154   7.319
  573TIP3    H123354   2.350   0.138   7.269
  573TIP3    H223355   2.418   0.240   7.358
  574TIP3   OH223356   2.901   0.113   7.647
  574TIP3    H123357   2.942   0.066   7.720
  574TIP3    H223358   2.806   0.098   7.659
  575TIP3   OH223359   3.224   0.489   7.725
  575TIP3    H123360   3.187   0.469   7.815
  575TIP3    H223361   3.232   0.585   7.709
  576TIP3   OH223362   2.871   0.360   6.379
  576TIP3    H123363   2.837   0.360   6.469
  576TIP3    H223364   2.835   0.279   6.344
  577TIP3   OH223365   2.451   0.639   7.430
  577TIP3    H123366   2.377   0.638   7.495
  577TIP3    H223367   2.444   0.730   7.392
  578TIP3   OH223368   2.446   0.649   6.919
  578TIP3    H123369   2.352   0.626   6.902
  578TIP3    H223370   2.484   0.622   6.833
  579TIP3   OH223371   2.999   0.700   6.795
  579TIP3    H123372   2.959   0.782   6.759
  579TIP3    H223373   3.066   0.683   6.727
  580TIP3   OH223374   2.908   0.717   7.935
  580TIP3    H123375   2.848   0.648   7.974
  580TIP3    H223376   2.983   0.717   7.998
  581TIP3   OH223377   3.102   0.651   7.079
  581TIP3    H123378   3.073   0.706   7.004
  581TIP3    H223379   3.112   0.566   7.032
  582TIP3   OH223380   2.213   0.662   7.599
  582TIP3    H123381   2.221   0.705   7.686
  582TIP3    H223382   2.169   0.579   7.621
  583TIP3   OH223383   1.879   0.378   6.997
  583TIP3    H123384   1.948   0.373   7.067
  583TIP3    H223385   1.923   0.339   6.920
  584TIP3   OH223386   2.010   0.452   6.542
  584TIP3    H123387   2.052   0.509   6.477
  584TIP3    H223388   1.935   0.509   6.568
  585TIP3   OH223389   3.028   0.807   7.538
  585TIP3    H123390   3.059   0.742   7.471
  585TIP3    H223391   2.967   0.757   7.594
  586TIP3   OH223392   2.702   0.405   7.016
  586TIP3    H123393   2.609   0.402   7.047
  586TIP3    H223394   2.751   0.390   7.099
  587TIP3   OH223395   2.181   0.557   6.907
  587TIP3    H123396   2.094   0.575   6.865
  587TIP3    H223397   2.211   0.474   6.865
  588TIP3   OH223398   2.545   0.568   6.667
  588TIP3    H123399   2.641   0.576   6.682
  588TIP3    H223400   2.524   0.633   6.599
  589TIP3   OH223401   3.143   0.332   7.343
  589TIP3    H123402   3.072   0.333   7.409
  589TIP3    H223403   3.095   0.305   7.263
  590TIP3   OH223404   2.415   0.688   6.423
  590TIP3    H123405   2.365   0.644   6.355
  590TIP3    H223406   2.503   0.705   6.383
  591TIP3   OH223407   3.463   1.892   7.978
  591TIP3    H123408   3.490   1.932   7.893
  591TIP3    H223409   3.535   1.926   8.034
  592TIP3   OH223410   2.230   1.146   7.931
  592TIP3    H123411   2.300   1.164   7.996
  592TIP3    H223412   2.152   1.146   7.991
  593TIP3   OH223413   2.831   0.681   7.206
  593TIP3    H123414   2.889   0.624   7.153
  593TIP3    H223415   2.814   0.626   7.283
  594TIP3   OH223416   2.329   0.300   6.848
  594TIP3    H123417   2.297   0.208   6.855
  594TIP3    H223418   2.410   0.290   6.796
  595TIP3   OH223419   2.693   0.512   7.448
  595TIP3    H123420   2.610   0.565   7.455
  595TIP3    H223421   2.747   0.550   7.520
  596TIP3   OH223422   2.753   1.130   6.619
  596TIP3    H123423   2.670   1.091   6.590
  596TIP3    H223424   2.732   1.152   6.712
  597TIP3   OH223425   3.473   1.056   7.499
  597TIP3    H123426   3.529   1.106   7.437
  597TIP3    H223427   3.387   1.061   7.453
  598TIP3   OH223428   3.136   0.422   6.435
  598TIP3    H123429   3.041   0.438   6.418
  598TIP3    H223430   3.169   0.506   6.470
  599TIP3   OH223431   2.908   1.163   7.745
  599TIP3    H123432   2.864   1.121   7.820
  599TIP3    H223433   2.875   1.254   7.752
  600TIP3   OH223434   3.210   0.609   6.604
  600TIP3    H123435   3.300   0.597   6.640
  600TIP3    H223436   3.215   0.692   6.553
  601TIP3   OH223437   2.264   1.076   7.198
  601TIP3    H123438   2.331   1.068   7.128
  601TIP3    H223439   2.270   0.990   7.244
  602TIP3   OH223440   1.962   0.917   7.725
  602TIP3    H123441   1.980   0.872   7.811
  602TIP3    H223442   1.901   0.854   7.682
  603TIP3   OH223443   2.664   0.870   7.942
  603TIP3    H123444   2.630   0.842   7.856
  603TIP3    H223445   2.756   0.842   7.941
  604TIP3   OH223446   3.135   1.413   7.743
  604TIP3    H123447   3.045   1.420   7.707
  604TIP3    H223448   3.107   1.428   7.834
  605TIP3   OH223449   3.695   0.624   6.578
  605TIP3    H123450   3.644   0.591   6.505
  605TIP3    H223451   3.712   0.717   6.551
  606TIP3   OH223452   3.696   1.208   7.856
  606TIP3    H123453   3.609   1.229   7.817
  606TIP3    H223454   3.755   1.204   7.777
  607TIP3   OH223455   3.544   1.500   6.623
  607TIP3    H123456   3.488   1.425   6.647
  607TIP3    H223457   3.553   1.493   6.527
  608TIP3   OH223458   3.250   0.989   7.328
  608TIP3    H123459   3.156   0.969   7.315
  608TIP3    H223460   3.292   0.913   7.283
  609TIP3   OH223461   2.499   1.421   6.937
  609TIP3    H123462   2.550   1.501   6.914
  609TIP3    H223463   2.412   1.446   6.903
  610TIP3   OH223464   2.644   1.189   6.888
  610TIP3    H123465   2.611   1.281   6.897
  610TIP3    H223466   2.572   1.140   6.931
  611TIP3   OH223467   2.688   1.606   7.530
  611TIP3    H123468   2.733   1.687   7.501
  611TIP3    H223469   2.749   1.572   7.597
  612TIP3   OH223470   2.511   1.682   6.854
  612TIP3    H123471   2.415   1.700   6.855
  612TIP3    H223472   2.547   1.771   6.872
  613TIP3   OH223473   3.044   1.209   7.495
  613TIP3    H123474   3.006   1.184   7.582
  613TIP3    H223475   3.102   1.134   7.473
  614TIP3   OH223476   3.319   1.660   7.740
  614TIP3    H123477   3.250   1.619   7.683
  614TIP3    H223478   3.341   1.734   7.678
  615TIP3   OH223479   2.129   0.382   7.678
  615TIP3    H123480   2.040   0.423   7.677
  615TIP3    H223481   2.112   0.302   7.729
  616TIP3   OH223482   3.351   1.172   6.625
  616TIP3    H123483   3.328   1.095   6.679
  616TIP3    H223484   3.446   1.181   6.642
  617TIP3   OH223485   2.089   1.568   7.523
  617TIP3    H123486   2.119   1.476   7.523
  617TIP3    H223487   2.115   1.597   7.610
  618TIP3   OH223488   2.997   0.370   7.589
  618TIP3    H123489   3.081   0.367   7.636
  618TIP3    H223490   2.966   0.277   7.592
  619TIP3   OH223491   3.081   0.320   6.683
  619TIP3    H123492   3.097   0.374   6.603
  619TIP3    H223493   3.130   0.370   6.750
  620TIP3   OH223494   2.797   0.496   6.765
  620TIP3    H123495   2.875   0.555   6.768
  620TIP3    H223496   2.771   0.485   6.859
  621TIP3   OH223497   2.844   0.603   7.671
  621TIP3    H123498   2.834   0.654   7.756
  621TIP3    H223499   2.892   0.519   7.681
  622TIP3   OH223500   2.885   0.203   6.861
  622TIP3    H123501   2.851   0.272   6.920
  622TIP3    H223502   2.949   0.257   6.809
  623TIP3   OH223503   3.469   0.389   7.771
  623TIP3    H123504   3.378   0.419   7.755
  623TIP3    H223505   3.503   0.384   7.679
  624TIP3   OH223506   3.333   0.767   7.170
  624TIP3    H123507   3.250   0.722   7.143
  624TIP3    H223508   3.381   0.699   7.222
  625TIP3   OH223509   3.439   1.694   7.337
  625TIP3    H123510   3.431   1.762   7.268
  625TIP3    H223511   3.536   1.699   7.355
  626TIP3   OH223512   2.167   0.120   7.222
  626TIP3    H123513   2.171   0.111   7.125
  626TIP3    H223514   2.157   0.026   7.243
  627TIP3   OH223515   2.085   1.503   6.835
  627TIP3    H123516   1.997   1.543   6.833
  627TIP3    H223517   2.133   1.542   6.760
  628TIP3   OH223518   2.003   1.764   7.961
  628TIP3    H123519   2.064   1.744   8.036
  628TIP3    H223520   1.964   1.676   7.943
  629TIP3   OH223521   2.474   1.651   8.123
  629TIP3    H123522   2.552   1.604   8.154
  629TIP3    H223523   2.471   1.626   8.028
  630TIP3   OH223524   3.105   1.492   8.008
  630TIP3    H123525   3.076   1.400   8.033
  630TIP3    H223526   3.178   1.506   8.072
  631TIP3   OH223527   1.995   1.143   8.057
  631TIP3    H123528   2.013   1.050   8.032
  631TIP3    H223529   1.920   1.164   7.999
  632TIP3   OH223530   2.670   1.139   7.996
  632TIP3    H123531   2.633   1.171   7.911
  632TIP3    H223532   2.673   1.042   7.986
  633TIP3   OH223533   3.234   1.125   7.743
  633TIP3    H123534   3.315   1.179   7.730
  633TIP3    H223535   3.165   1.192   7.740
  634TIP3   OH223536   2.083   0.862   7.993
  634TIP3    H123537   2.130   0.778   7.992
  634TIP3    H223538   2.069   0.867   8.091
  635TIP3   OH223539   2.480   0.757   7.736
  635TIP3    H123540   2.418   0.827   7.762
  635TIP3    H223541   2.514   0.794   7.653
  636TIP3   OH223542   2.657   0.796   6.325
  636TIP3    H123543   2.643   0.786   6.230
  636TIP3    H223544   2.753   0.809   6.331
  637TIP3   OH223545   2.986   1.012   8.073
  637TIP3    H123546   3.081   1.012   8.058
  637TIP3    H223547   2.969   0.936   8.130
  638TIP3   OH223548   3.592   1.029   6.270
  638TIP3    H123549   3.565   0.997   6.184
  638TIP3    H223550   3.604   1.125   6.254
  639TIP3   OH223551   2.523   0.494   7.840
  639TIP3    H123552   2.530   0.426   7.772
  639TIP3    H223553   2.507   0.575   7.789
  640TIP3   OH223554   2.559   0.334   7.594
  640TIP3    H123555   2.610   0.382   7.523
  640TIP3    H223556   2.470   0.326   7.553
  641TIP3   OH223557   2.717   0.884   7.620
  641TIP3    H123558   2.788   0.868   7.557
  641TIP3    H223559   2.674   0.965   7.586
  642TIP3   OH223560   3.152   0.654   8.104
  642TIP3    H123561   3.176   0.560   8.115
  642TIP3    H223562   3.238   0.698   8.122
  643TIP3   OH223563   3.287   0.937   7.934
  643TIP3    H123564   3.262   1.008   7.872
  643TIP3    H223565   3.383   0.933   7.914
  644TIP3   OH223566   2.363   0.631   8.018
  644TIP3    H123567   2.290   0.567   8.023
  644TIP3    H223568   2.429   0.581   7.967
  645TIP3   OH223569   2.618   0.092   7.655
  645TIP3    H123570   2.622   0.188   7.629
  645TIP3    H223571   2.569   0.053   7.581
  646TIP3   OH223572   2.765   0.509   7.995
  646TIP3    H123573   2.733   0.481   8.084
  646TIP3    H223574   2.683   0.489   7.945
  647TIP3   OH223575   3.033   0.430   7.910
  647TIP3    H123576   2.936   0.420   7.924
  647TIP3    H223577   3.065   0.362   7.975
  648TIP3   OH223578   3.192   0.296   8.096
  648TIP3    H123579   3.192   0.197   8.096
  648TIP3    H223580   3.168   0.315   8.190
  649TIP3   OH223581   2.154   0.402   7.983
  649TIP3    H123582   2.206   0.333   7.944
  649TIP3    H223583   2.168   0.388   8.080
  650TIP3   OH223584   2.648   7.347   7.898
  650TIP3    H123585   2.726   7.291   7.913
  650TIP3    H223586   2.656   7.382   7.807
  651TIP3   OH223587   2.695   0.179   8.109
  651TIP3    H123588   2.678   0.126   8.030
  651TIP3    H223589   2.636   0.256   8.105
  652TIP3   OH223590   2.649   1.871   6.429
  652TIP3    H123591   2.744   1.882   6.441
  652TIP3    H223592   2.621   1.936   6.364
  653TIP3   OH223593   1.872   1.865   6.876
  653TIP3    H123594   1.803   1.811   6.834
  653TIP3    H223595   1.905   1.802   6.944
  654TIP3   OH223596   1.957   1.679   7.062
  654TIP3    H123597   1.922   1.592   7.086
  654TIP3    H223598   1.980   1.712   7.151
  655TIP3   OH223599   3.711   1.758   7.358
  655TIP3    H123600   3.714   1.774   7.453
  655TIP3    H223601   3.781   1.816   7.327
  656TIP3   OH223602   3.663   1.716   7.655
  656TIP3    H123603   3.623   1.639   7.612
  656TIP3    H223604   3.719   1.673   7.722
  657TIP3   OH223605   3.510   1.292   8.114
  657TIP3    H123606   3.425   1.285   8.161
  657TIP3    H223607   3.552   1.368   8.162
  658TIP3   OH223608   3.644   1.119   6.662
  658TIP3    H123609   3.731   1.161   6.679
  658TIP3    H223610   3.645   1.050   6.731
  659TIP3   OH223611   3.680   0.931   6.852
  659TIP3    H123612   3.606   0.879   6.889
  659TIP3    H223613   3.740   0.942   6.927
  660TIP3   OH223614   3.657   1.200   7.350
  660TIP3    H123615   3.737   1.162   7.311
  660TIP3    H223616   3.671   1.295   7.332
  661TIP3   OH223617   3.512   1.489   7.577
  661TIP3    H123618   3.441   1.527   7.630
  661TIP3    H223619   3.461   1.450   7.502
  662TIP3   OH223620   3.712   0.909   6.491
  662TIP3    H123621   3.657   0.947   6.419
  662TIP3    H223622   3.705   0.982   6.556
  663TIP3   OH223623   3.461   0.777   6.907
  663TIP3    H123624   3.448   0.681   6.905
  663TIP3    H223625   3.430   0.799   6.996
  664TIP3   OH223626   1.963   0.986   7.314
  664TIP3    H123627   1.981   0.978   7.218
  664TIP3    H223628   2.053   0.968   7.349
  665TIP3   OH223629   3.547   0.974   7.878
  665TIP3    H123630   3.609   0.899   7.889
  665TIP3    H223631   3.610   1.050   7.876
  666TIP3   OH223632   3.698   0.763   7.940
  666TIP3    H123633   3.611   0.721   7.926
  666TIP3    H223634   3.757   0.686   7.936
  667TIP3   OH223635   3.430   0.537   6.751
  667TIP3    H123636   3.459   0.444   6.765
  667TIP3    H223637   3.512   0.576   6.718
  668TIP3   OH223638   3.493   0.592   7.297
  668TIP3    H123639   3.590   0.613   7.296
  668TIP3    H223640   3.475   0.603   7.391
  669TIP3   OH223641   3.497   0.663   7.576
  669TIP3    H123642   3.411   0.693   7.608
  669TIP3    H223643   3.544   0.747   7.553
  670TIP3   OH223644   1.922   0.517   7.924
  670TIP3    H123645   2.016   0.497   7.948
  670TIP3    H223646   1.881   0.435   7.958
  671TIP3   OH223647   3.741   0.066   8.111
  671TIP3    H123648   3.762  -0.001   8.045
  671TIP3    H223649   3.734   0.148   8.059
  672TIP3   OH223650   3.498   0.261   6.755
  672TIP3    H123651   3.515   0.220   6.843
  672TIP3    H223652   3.433   0.198   6.716
  673TIP3   OH223653   2.042   0.348   7.213
  673TIP3    H123654   2.088   0.265   7.240
  673TIP3    H223655   2.100   0.413   7.253
  674TIP3   OH223656   1.873   0.645   7.318
  674TIP3    H123657   1.930   0.620   7.242
  674TIP3    H223658   1.920   0.725   7.345
  675TIP3   OH223659   3.681   0.275   7.942
  675TIP3    H123660   3.587   0.303   7.944
  675TIP3    H223661   3.680   0.219   7.863
  676TIP3   OH223662   3.684   0.274   6.420
  676TIP3    H123663   3.713   0.202   6.364
  676TIP3    H223664   3.751   0.342   6.416
  677TIP3   OH223665   1.915   0.266   6.725
  677TIP3    H123666   1.820   0.284   6.716
  677TIP3    H223667   1.950   0.321   6.654
  678TIP3   OH223668   3.384   1.765   6.917
  678TIP3    H123669   3.452   1.736   6.853
  678TIP3    H223670   3.435   1.816   6.981
  679TIP3   OH223671   1.905   0.139   7.555
  679TIP3    H123672   1.837   0.121   7.622
  679TIP3    H223673   1.858   0.203   7.497
  680TIP3   OH223674   2.129   1.460   7.971
  680TIP3    H123675   2.043   1.477   7.929
  680TIP3    H223676   2.102   1.450   8.064
  681TIP3   OH223677   2.418   1.557   7.599
  681TIP3    H123678   2.385   1.643   7.571
  681TIP3    H223679   2.511   1.566   7.568
  682TIP3   OH223680   2.851   1.697   7.888
  682TIP3    H123681   2.862   1.665   7.981
  682TIP3    H223682   2.940   1.732   7.868
  683TIP3   OH223683   3.079   1.823   7.822
  683TIP3    H123684   3.155   1.772   7.794
  683TIP3    H223685   3.115   1.872   7.900
  684TIP3   OH223686   3.582   0.089   7.729
  684TIP3    H123687   3.499   0.122   7.692
  684TIP3    H223688   3.598   0.007   7.679
  685TIP3   OH223689   2.161   1.883   7.598
  685TIP3    H123690   2.083   1.927   7.558
  685TIP3    H223691   2.130   1.864   7.688
  686TIP3   OH223692   2.410   1.838   7.507
  686TIP3    H123693   2.320   1.851   7.544
  686TIP3    H223694   2.403   1.894   7.427
  687TIP3   OH223695   2.879   1.829   7.422
  687TIP3    H123696   2.832   1.885   7.358
  687TIP3    H223697   2.892   1.892   7.496
  688TIP3   OH223698   3.106   1.710   7.530
  688TIP3    H123699   3.023   1.737   7.488
  688TIP3    H223700   3.156   1.792   7.515
  689TIP3   OH223701   3.365   1.866   7.549
  689TIP3    H123702   3.360   1.962   7.526
  689TIP3    H223703   3.388   1.830   7.460
  690TIP3   OH223704   2.109   1.749   7.293
  690TIP3    H123705   2.097   1.700   7.378
  690TIP3    H223706   2.187   1.706   7.253
  691TIP3   OH223707   2.313   1.616   7.159
  691TIP3    H123708   2.298   1.523   7.182
  691TIP3    H223709   2.399   1.633   7.203
  692TIP3   OH223710   2.577   1.665   7.247
  692TIP3    H123711   2.590   1.573   7.217
  692TIP3    H223712   2.580   1.657   7.343
  693TIP3   OH223713   2.917   0.240   7.158
  693TIP3    H123714   2.855   0.170   7.187
  693TIP3    H223715   2.979   0.185   7.108
  694TIP3   OH223716   3.432   0.036   7.166
  694TIP3    H123717   3.494   0.091   7.113
  694TIP3    H223718   3.345   0.071   7.143
  695TIP3   OH223719   3.601   0.162   6.995
  695TIP3    H123720   3.668   0.102   6.957
  695TIP3    H223721   3.653   0.245   7.003
  696TIP3   OH223722   2.163   0.096   6.925
  696TIP3    H123723   2.072   0.071   6.899
  696TIP3    H223724   2.197   0.008   6.947
  697TIP3   OH223725   2.010   0.133   6.468
  697TIP3    H123726   2.101   0.163   6.465
  697TIP3    H223727   1.980   0.148   6.559
  698TIP3   OH223728   2.631   0.128   6.957
  698TIP3    H123729   2.725   0.125   6.931
  698TIP3    H223730   2.621   0.061   7.025
  699TIP3   OH223731   3.155   0.112   7.089
  699TIP3    H123732   3.168   0.112   6.994
  699TIP3    H223733   3.146   0.014   7.102
  700TIP3   OH223734   3.302   0.090   6.657
  700TIP3    H123735   3.229   0.150   6.635
  700TIP3    H223736   3.258   0.004   6.669
  701TIP3   OH223737   2.715   0.284   6.610
  701TIP3    H123738   2.748   0.231   6.684
  701TIP3    H223739   2.722   0.373   6.652
  702TIP3   OH223740   2.917   1.791   6.451
  702TIP3    H123741   3.006   1.821   6.433
  702TIP3    H223742   2.887   1.746   6.372
  703TIP3   OH223743   3.585   1.747   6.719
  703TIP3    H123744   3.561   1.667   6.666
  703TIP3    H223745   3.571   1.817   6.655
  704TIP3   OH223746   2.147   0.131   7.870
  704TIP3    H123747   2.102   0.074   7.935
  704TIP3    H223748   2.226   0.149   7.927
  705TIP3   OH223749   2.331   0.097   8.034
  705TIP3    H123750   2.427   0.077   8.041
  705TIP3    H223751   2.309   0.023   8.095
  706TIP3   OH223752   3.182   7.384   8.063
  706TIP3    H123753   3.186   7.320   8.138
  706TIP3    H223754   3.269   7.361   8.025
  707TIP3   OH223755   3.499   1.617   7.938
  707TIP3    H123756   3.436   1.619   7.865
  707TIP3    H223757   3.502   1.714   7.955
  708TIP3   OH223758   4.840   0.932   7.275
  708TIP3    H123759   4.835   0.870   7.349
  708TIP3    H223760   4.796   0.882   7.205
  709TIP3   OH223761   4.072   0.899   7.433
  709TIP3    H123762   4.079   0.831   7.504
  709TIP3    H223763   4.146   0.957   7.458
  710TIP3   OH223764   5.204   1.226   7.108
  710TIP3    H123765   5.166   1.156   7.161
  710TIP3    H223766   5.209   1.298   7.174
  711TIP3   OH223767   4.164   1.348   7.278
  711TIP3    H123768   4.133   1.259   7.255
  711TIP3    H223769   4.259   1.328   7.295
  712TIP3   OH223770   3.826   0.698   6.835
  712TIP3    H123771   3.786   0.787   6.829
  712TIP3    H223772   3.773   0.645   6.775
  713TIP3   OH223773   3.904   0.925   7.050
  713TIP3    H123774   3.927   0.840   7.093
  713TIP3    H223775   3.970   0.932   6.980
  714TIP3   OH223776   4.917   1.742   7.132
  714TIP3    H123777   4.982   1.673   7.103
  714TIP3    H223778   4.896   1.709   7.219
  715TIP3   OH223779   4.675   1.171   7.323
  715TIP3    H123780   4.709   1.108   7.258
  715TIP3    H223781   4.755   1.187   7.378
  716TIP3   OH223782   5.538   0.336   7.400
  716TIP3    H123783   5.552   0.398   7.476
  716TIP3    H223784   5.589   0.382   7.332
  717TIP3   OH223785   4.992   0.621   7.354
  717TIP3    H123786   5.007   0.524   7.360
  717TIP3    H223787   4.981   0.633   7.260
  718TIP3   OH223788   4.302   0.430   7.079
  718TIP3    H123789   4.317   0.514   7.031
  718TIP3    H223790   4.262   0.373   7.010
  719TIP3   OH223791   3.967   0.671   7.154
  719TIP3    H123792   4.032   0.614   7.199
  719TIP3    H223793   3.976   0.638   7.063
  720TIP3   OH223794   5.598   0.491   7.622
  720TIP3    H123795   5.518   0.549   7.614
  720TIP3    H223796   5.581   0.467   7.715
  721TIP3   OH223797   4.195   0.322   7.485
  721TIP3    H123798   4.164   0.375   7.408
  721TIP3    H223799   4.124   0.341   7.551
  722TIP3   OH223800   4.446   1.080   7.507
  722TIP3    H123801   4.375   1.145   7.531
  722TIP3    H223802   4.515   1.143   7.480
  723TIP3   OH223803   5.258   0.370   7.119
  723TIP3    H123804   5.235   0.294   7.173
  723TIP3    H223805   5.325   0.415   7.172
  724TIP3   OH223806   4.152   0.503   7.286
  724TIP3    H123807   4.214   0.571   7.319
  724TIP3    H223808   4.204   0.462   7.213
  725TIP3   OH223809   4.283   1.276   7.561
  725TIP3    H123810   4.287   1.374   7.556
  725TIP3    H223811   4.213   1.271   7.631
  726TIP3   OH223812   3.896   1.247   6.670
  726TIP3    H123813   3.869   1.276   6.580
  726TIP3    H223814   3.901   1.331   6.719
  727TIP3   OH223815   5.258   1.410   7.345
  727TIP3    H123816   5.162   1.422   7.358
  727TIP3    H223817   5.285   1.502   7.324
  728TIP3   OH223818   5.294   0.238   7.489
  728TIP3    H123819   5.220   0.299   7.478
  728TIP3    H223820   5.362   0.279   7.431
  729TIP3   OH223821   4.616   0.070   7.229
  729TIP3    H123822   4.603  -0.026   7.226
  729TIP3    H223823   4.525   0.096   7.250
  730TIP3   OH223824   5.088   1.592   7.008
  730TIP3    H123825   5.126   1.519   6.955
  730TIP3    H223826   5.128   1.669   6.964
  731TIP3   OH223827   5.205   1.384   6.855
  731TIP3    H123828   5.180   1.314   6.789
  731TIP3    H223829   5.210   1.332   6.937
  732TIP3   OH223830   5.369   1.242   7.705
  732TIP3    H123831   5.382   1.176   7.633
  732TIP3    H223832   5.388   1.326   7.660
  733TIP3   OH223833   5.557   0.873   7.509
  733TIP3    H123834   5.489   0.944   7.513
  733TIP3    H223835   5.606   0.897   7.428
  734TIP3   OH223836   5.154   0.770   7.687
  734TIP3    H123837   5.155   0.852   7.738
  734TIP3    H223838   5.091   0.798   7.617
  735TIP3   OH223839   4.452   1.352   7.235
  735TIP3    H123840   4.453   1.304   7.152
  735TIP3    H223841   4.532   1.320   7.280
  736TIP3   OH223842   4.356   0.893   7.332
  736TIP3    H123843   4.414   0.903   7.256
  736TIP3    H223844   4.394   0.959   7.394
  737TIP3   OH223845   4.998   1.448   7.402
  737TIP3    H123846   4.968   1.512   7.468
  737TIP3    H223847   4.971   1.363   7.445
  738TIP3   OH223848   4.505   1.343   7.778
  738TIP3    H123849   4.445   1.389   7.844
  738TIP3    H223850   4.422   1.310   7.736
  739TIP3   OH223851   4.145   0.946   7.717
  739TIP3    H123852   4.153   1.015   7.787
  739TIP3    H223853   4.052   0.962   7.695
  740TIP3   OH223854   4.820   1.543   6.890
  740TIP3    H123855   4.865   1.573   6.969
  740TIP3    H223856   4.767   1.619   6.865
  741TIP3   OH223857   4.253   1.619   7.873
  741TIP3    H123858   4.281   1.557   7.803
  741TIP3    H223859   4.199   1.547   7.911
  742TIP3   OH223860   5.431   0.069   6.543
  742TIP3    H123861   5.335   0.051   6.547
  742TIP3    H223862   5.434   0.134   6.471
  743TIP3   OH223863   3.812   1.159   7.617
  743TIP3    H123864   3.784   1.152   7.525
  743TIP3    H223865   3.837   1.067   7.636
  744TIP3   OH223866   3.806   1.436   7.294
  744TIP3    H123867   3.902   1.424   7.291
  744TIP3    H223868   3.798   1.518   7.345
  745TIP3   OH223869   5.628   1.506   7.860
  745TIP3    H123870   5.617   1.410   7.861
  745TIP3    H223871   5.543   1.531   7.904
  746TIP3   OH223872   4.732   1.463   7.750
  746TIP3    H123873   4.729   1.545   7.803
  746TIP3    H223874   4.643   1.423   7.770
  747TIP3   OH223875   4.766   1.833   6.725
  747TIP3    H123876   4.763   1.831   6.629
  747TIP3    H223877   4.771   1.929   6.746
  748TIP3   OH223878   4.131   1.724   6.913
  748TIP3    H123879   4.148   1.680   7.000
  748TIP3    H223880   4.048   1.680   6.889
  749TIP3   OH223881   5.075   1.757   6.430
  749TIP3    H123882   5.116   1.681   6.382
  749TIP3    H223883   5.075   1.726   6.521
  750TIP3   OH223884   5.042   1.753   6.708
  750TIP3    H123885   4.946   1.756   6.722
  750TIP3    H223886   5.066   1.675   6.759
  751TIP3   OH223887   5.343   0.656   7.909
  751TIP3    H123888   5.294   0.697   7.836
  751TIP3    H223889   5.343   0.563   7.879
  752TIP3   OH223890   4.030   1.280   7.682
  752TIP3    H123891   4.071   1.269   7.772
  752TIP3    H223892   3.944   1.238   7.688
  753TIP3   OH223893   4.322   0.158   7.311
  753TIP3    H123894   4.235   0.139   7.271
  753TIP3    H223895   4.303   0.239   7.360
  754TIP3   OH223896   4.787   0.103   7.640
  754TIP3    H123897   4.829   0.074   7.722
  754TIP3    H223898   4.691   0.099   7.659
  755TIP3   OH223899   5.109   0.493   7.719
  755TIP3    H123900   5.069   0.471   7.807
  755TIP3    H223901   5.102   0.589   7.710
  756TIP3   OH223902   4.337   0.640   7.432
  756TIP3    H123903   4.262   0.639   7.494
  756TIP3    H223904   4.331   0.730   7.393
  757TIP3   OH223905   4.332   0.648   6.919
  757TIP3    H123906   4.238   0.627   6.902
  757TIP3    H223907   4.371   0.623   6.834
  758TIP3   OH223908   4.788   0.725   7.944
  758TIP3    H123909   4.738   0.642   7.966
  758TIP3    H223910   4.875   0.706   7.982
  759TIP3   OH223911   4.097   0.664   7.598
  759TIP3    H123912   4.107   0.704   7.686
  759TIP3    H223913   4.055   0.579   7.620
  760TIP3   OH223914   3.765   0.376   6.999
  760TIP3    H123915   3.834   0.372   7.067
  760TIP3    H223916   3.807   0.339   6.919
  761TIP3   OH223917   4.908   0.808   7.536
  761TIP3    H123918   4.945   0.739   7.477
  761TIP3    H223919   4.859   0.756   7.601
  762TIP3   OH223920   4.586   0.394   7.019
  762TIP3    H123921   4.493   0.405   7.048
  762TIP3    H223922   4.635   0.393   7.102
  763TIP3   OH223923   4.065   0.559   6.907
  763TIP3    H123924   3.979   0.574   6.864
  763TIP3    H223925   4.097   0.476   6.868
  764TIP3   OH223926   4.435   0.562   6.661
  764TIP3    H123927   4.524   0.584   6.691
  764TIP3    H223928   4.411   0.638   6.605
  765TIP3   OH223929   5.028   0.329   7.340
  765TIP3    H123930   4.961   0.333   7.413
  765TIP3    H223931   4.976   0.305   7.261
  766TIP3   OH223932   5.347   1.894   7.978
  766TIP3    H123933   5.375   1.930   7.892
  766TIP3    H223934   5.420   1.924   8.034
  767TIP3   OH223935   4.112   1.108   7.951
  767TIP3    H123936   4.183   1.169   7.982
  767TIP3    H223937   4.035   1.151   7.991
  768TIP3   OH223938   4.725   0.683   7.210
  768TIP3    H123939   4.767   0.619   7.152
  768TIP3    H223940   4.696   0.629   7.284
  769TIP3   OH223941   4.216   0.300   6.846
  769TIP3    H123942   4.182   0.208   6.849
  769TIP3    H223943   4.296   0.291   6.794
  770TIP3   OH223944   4.579   0.514   7.449
  770TIP3    H123945   4.496   0.566   7.457
  770TIP3    H223946   4.634   0.548   7.521
  771TIP3   OH223947   5.358   1.057   7.499
  771TIP3    H123948   5.413   1.105   7.435
  771TIP3    H223949   5.271   1.061   7.453
  772TIP3   OH223950   4.790   1.162   7.744
  772TIP3    H123951   4.751   1.121   7.821
  772TIP3    H223952   4.761   1.254   7.752
  773TIP3   OH223953   4.148   1.076   7.198
  773TIP3    H123954   4.218   1.069   7.131
  773TIP3    H223955   4.155   0.990   7.244
  774TIP3   OH223956   3.845   0.914   7.726
  774TIP3    H123957   3.865   0.870   7.811
  774TIP3    H223958   3.785   0.853   7.681
  775TIP3   OH223959   4.549   0.867   7.945
  775TIP3    H123960   4.516   0.844   7.857
  775TIP3    H223961   4.643   0.839   7.939
  776TIP3   OH223962   5.018   1.406   7.738
  776TIP3    H123963   4.925   1.424   7.715
  776TIP3    H223964   5.015   1.435   7.831
  777TIP3   OH223965   5.594   0.626   6.571
  777TIP3    H123966   5.529   0.591   6.509
  777TIP3    H223967   5.591   0.721   6.551
  778TIP3   OH223968   5.585   1.209   7.856
  778TIP3    H123969   5.496   1.232   7.821
  778TIP3    H223970   5.638   1.205   7.773
  779TIP3   OH223971   5.420   1.501   6.617
  779TIP3    H123972   5.370   1.424   6.650
  779TIP3    H223973   5.435   1.481   6.525
  780TIP3   OH223974   5.134   0.989   7.324
  780TIP3    H123975   5.040   0.966   7.318
  780TIP3    H223976   5.177   0.912   7.281
  781TIP3   OH223977   4.382   1.424   6.943
  781TIP3    H123978   4.437   1.499   6.917
  781TIP3    H223979   4.297   1.446   6.904
  782TIP3   OH223980   3.965   0.905   6.389
  782TIP3    H123981   4.024   0.970   6.433
  782TIP3    H223982   3.877   0.932   6.421
  783TIP3   OH223983   4.575   1.608   7.527
  783TIP3    H123984   4.621   1.689   7.501
  783TIP3    H223985   4.634   1.571   7.596
  784TIP3   OH223986   4.396   1.688   6.841
  784TIP3    H123987   4.301   1.700   6.861
  784TIP3    H223988   4.433   1.771   6.878
  785TIP3   OH223989   4.922   1.203   7.489
  785TIP3    H123990   4.893   1.188   7.581
  785TIP3    H223991   4.990   1.135   7.476
  786TIP3   OH223992   5.208   1.664   7.740
  786TIP3    H123993   5.138   1.615   7.693
  786TIP3    H223994   5.226   1.734   7.674
  787TIP3   OH223995   4.014   0.388   7.683
  787TIP3    H123996   3.923   0.423   7.678
  787TIP3    H223997   4.000   0.300   7.722
  788TIP3   OH223998   5.245   1.190   6.644
  788TIP3    H123999   5.212   1.103   6.671
  788TIP3    H224000   5.340   1.176   6.636
  789TIP3   OH224001   3.976   1.567   7.522
  789TIP3    H124002   4.007   1.475   7.524
  789TIP3    H224003   4.003   1.597   7.610
  790TIP3   OH224004   4.101   1.098   6.539
  790TIP3    H124005   4.034   1.134   6.600
  790TIP3    H224006   4.152   1.177   6.519
  791TIP3   OH224007   4.887   0.365   7.575
  791TIP3    H124008   4.960   0.375   7.639
  791TIP3    H224009   4.853   0.276   7.596
  792TIP3   OH224010   4.725   1.543   6.565
  792TIP3    H124011   4.651   1.600   6.576
  792TIP3    H224012   4.785   1.589   6.504
  793TIP3   OH224013   4.742   0.601   7.686
  793TIP3    H124014   4.748   0.656   7.766
  793TIP3    H224015   4.808   0.531   7.697
  794TIP3   OH224016   4.769   0.206   6.855
  794TIP3    H124017   4.734   0.269   6.923
  794TIP3    H224018   4.837   0.261   6.814
  795TIP3   OH224019   4.338   0.310   6.529
  795TIP3    H124020   4.327   0.401   6.560
  795TIP3    H224021   4.430   0.294   6.552
  796TIP3   OH224022   5.378   0.435   7.739
  796TIP3    H124023   5.284   0.414   7.762
  796TIP3    H224024   5.387   0.379   7.660
  797TIP3   OH224025   5.215   0.767   7.177
  797TIP3    H124026   5.140   0.720   7.141
  797TIP3    H224027   5.269   0.698   7.223
  798TIP3   OH224028   4.160   1.359   6.437
  798TIP3    H124029   4.220   1.429   6.459
  798TIP3    H224030   4.203   1.316   6.361
  799TIP3   OH224031   5.325   1.694   7.338
  799TIP3    H124032   5.316   1.762   7.268
  799TIP3    H224033   5.421   1.699   7.355
  800TIP3   OH224034   4.052   0.120   7.221
  800TIP3    H124035   4.056   0.111   7.123
  800TIP3    H224036   4.043   0.026   7.244
  801TIP3   OH224037   3.967   1.501   6.835
  801TIP3    H124038   3.881   1.544   6.828
  801TIP3    H224039   4.016   1.543   6.763
  802TIP3   OH224040   3.886   1.764   7.964
  802TIP3    H124041   3.953   1.742   8.033
  802TIP3    H224042   3.853   1.676   7.943
  803TIP3   OH224043   4.360   1.650   8.127
  803TIP3    H124044   4.438   1.601   8.154
  803TIP3    H224045   4.353   1.630   8.031
  804TIP3   OH224046   5.008   1.494   7.997
  804TIP3    H124047   4.977   1.405   8.023
  804TIP3    H224048   5.087   1.505   8.053
  805TIP3   OH224049   5.232   1.586   6.291
  805TIP3    H124050   5.252   1.497   6.324
  805TIP3    H224051   5.300   1.603   6.226
  806TIP3   OH224052   3.875   1.138   8.063
  806TIP3    H124053   3.902   1.051   8.027
  806TIP3    H224054   3.808   1.167   7.999
  807TIP3   OH224055   4.554   1.136   7.997
  807TIP3    H124056   4.517   1.171   7.913
  807TIP3    H224057   4.559   1.039   7.982
  808TIP3   OH224058   5.121   1.125   7.738
  808TIP3    H124059   5.201   1.183   7.733
  808TIP3    H224060   5.051   1.192   7.743
  809TIP3   OH224061   3.964   0.858   8.000
  809TIP3    H124062   4.015   0.777   7.992
  809TIP3    H224063   3.951   0.865   8.096
  810TIP3   OH224064   4.364   0.758   7.735
  810TIP3    H124065   4.304   0.831   7.760
  810TIP3    H224066   4.403   0.793   7.654
  811TIP3   OH224067   4.870   1.015   8.078
  811TIP3    H124068   4.964   1.012   8.053
  811TIP3    H224069   4.857   0.933   8.127
  812TIP3   OH224070   4.404   0.496   7.839
  812TIP3    H124071   4.416   0.424   7.774
  812TIP3    H224072   4.399   0.576   7.784
  813TIP3   OH224073   4.445   0.335   7.594
  813TIP3    H124074   4.495   0.382   7.523
  813TIP3    H224075   4.355   0.323   7.554
  814TIP3   OH224076   4.597   0.883   7.622
  814TIP3    H124077   4.673   0.865   7.564
  814TIP3    H224078   4.560   0.967   7.588
  815TIP3   OH224079   5.037   0.655   8.118
  815TIP3    H124080   5.061   0.561   8.103
  815TIP3    H224081   5.125   0.697   8.114
  816TIP3   OH224082   5.172   0.940   7.936
  816TIP3    H124083   5.146   1.009   7.872
  816TIP3    H224084   5.267   0.933   7.913
  817TIP3   OH224085   4.251   0.619   8.034
  817TIP3    H124086   4.173   0.564   8.014
  817TIP3    H224087   4.315   0.585   7.968
  818TIP3   OH224088   4.514   0.092   7.653
  818TIP3    H124089   4.505   0.188   7.630
  818TIP3    H224090   4.449   0.053   7.592
  819TIP3   OH224091   4.648   0.513   8.001
  819TIP3    H124092   4.616   0.480   8.087
  819TIP3    H224093   4.574   0.489   7.942
  820TIP3   OH224094   4.919   0.432   7.908
  820TIP3    H124095   4.824   0.426   7.921
  820TIP3    H224096   4.952   0.363   7.972
  821TIP3   OH224097   5.031   0.289   8.116
  821TIP3    H124098   5.075   0.202   8.100
  821TIP3    H224099   5.050   0.311   8.209
  822TIP3   OH224100   4.057   0.411   8.008
  822TIP3    H124101   4.085   0.338   7.950
  822TIP3    H224102   4.051   0.366   8.095
  823TIP3   OH224103   4.542   7.355   7.903
  823TIP3    H124104   4.610   7.288   7.912
  823TIP3    H224105   4.536   7.378   7.808
  824TIP3   OH224106   4.579   0.180   8.112
  824TIP3    H124107   4.564   0.125   8.032
  824TIP3    H224108   4.521   0.257   8.102
  825TIP3   OH224109   3.890   1.323   6.385
  825TIP3    H124110   3.984   1.339   6.397
  825TIP3    H224111   3.888   1.265   6.307
  826TIP3   OH224112   3.763   1.865   6.877
  826TIP3    H124113   3.690   1.818   6.832
  826TIP3    H224114   3.788   1.800   6.945
  827TIP3   OH224115   3.843   1.678   7.066
  827TIP3    H124116   3.808   1.590   7.085
  827TIP3    H224117   3.866   1.711   7.154
  828TIP3   OH224118   5.597   1.758   7.357
  828TIP3    H124119   5.600   1.774   7.453
  828TIP3    H224120   5.667   1.816   7.327
  829TIP3   OH224121   5.554   1.717   7.652
  829TIP3    H124122   5.507   1.640   7.614
  829TIP3    H224123   5.602   1.672   7.723
  830TIP3   OH224124   5.399   1.288   8.119
  830TIP3    H124125   5.309   1.287   8.157
  830TIP3    H224126   5.436   1.369   8.160
  831TIP3   OH224127   5.532   1.117   6.660
  831TIP3    H124128   5.617   1.159   6.683
  831TIP3    H224129   5.528   1.049   6.731
  832TIP3   OH224130   5.569   0.932   6.850
  832TIP3    H124131   5.492   0.880   6.885
  832TIP3    H224132   5.626   0.942   6.928
  833TIP3   OH224133   5.542   1.200   7.349
  833TIP3    H124134   5.623   1.162   7.312
  833TIP3    H224135   5.556   1.295   7.333
  834TIP3   OH224136   5.398   1.489   7.577
  834TIP3    H124137   5.329   1.524   7.635
  834TIP3    H224138   5.343   1.450   7.505
  835TIP3   OH224139   5.600   0.911   6.491
  835TIP3    H124140   5.546   0.950   6.420
  835TIP3    H224141   5.591   0.982   6.557
  836TIP3   OH224142   5.353   0.778   6.909
  836TIP3    H124143   5.330   0.684   6.899
  836TIP3    H224144   5.315   0.798   6.996
  837TIP3   OH224145   3.849   0.987   7.314
  837TIP3    H124146   3.868   0.978   7.218
  837TIP3    H224147   3.939   0.968   7.349
  838TIP3   OH224148   5.434   0.974   7.880
  838TIP3    H124149   5.495   0.898   7.889
  838TIP3    H224150   5.495   1.051   7.876
  839TIP3   OH224151   5.584   0.762   7.942
  839TIP3    H124152   5.496   0.721   7.925
  839TIP3    H224153   5.641   0.683   7.935
  840TIP3   OH224154   5.320   0.538   6.760
  840TIP3    H124155   5.345   0.444   6.766
  840TIP3    H224156   5.394   0.576   6.714
  841TIP3   OH224157   5.379   0.591   7.298
  841TIP3    H124158   5.475   0.613   7.297
  841TIP3    H224159   5.361   0.603   7.393
  842TIP3   OH224160   5.385   0.665   7.567
  842TIP3    H124161   5.299   0.689   7.609
  842TIP3    H224162   5.429   0.751   7.553
  843TIP3   OH224163   3.811   0.517   7.928
  843TIP3    H124164   3.904   0.493   7.947
  843TIP3    H224165   3.765   0.434   7.955
  844TIP3   OH224166   5.627   0.067   8.112
  844TIP3    H124167   5.645   0.001   8.044
  844TIP3    H224168   5.617   0.148   8.059
  845TIP3   OH224169   5.384   0.263   6.756
  845TIP3    H124170   5.401   0.219   6.841
  845TIP3    H224171   5.324   0.198   6.713
  846TIP3   OH224172   3.928   0.348   7.213
  846TIP3    H124173   3.973   0.265   7.239
  846TIP3    H224174   3.986   0.413   7.253
  847TIP3   OH224175   3.759   0.643   7.317
  847TIP3    H124176   3.816   0.619   7.241
  847TIP3    H224177   3.805   0.724   7.344
  848TIP3   OH224178   5.567   0.276   7.941
  848TIP3    H124179   5.472   0.301   7.944
  848TIP3    H224180   5.564   0.218   7.864
  849TIP3   OH224181   3.789   0.289   6.737
  849TIP3    H124182   3.696   0.290   6.711
  849TIP3    H224183   3.836   0.313   6.657
  850TIP3   OH224184   5.269   1.766   6.921
  850TIP3    H124185   5.336   1.735   6.857
  850TIP3    H224186   5.322   1.816   6.985
  851TIP3   OH224187   3.789   0.139   7.554
  851TIP3    H124188   3.725   0.120   7.623
  851TIP3    H224189   3.743   0.204   7.498
  852TIP3   OH224190   4.005   1.463   7.979
  852TIP3    H124191   3.925   1.478   7.930
  852TIP3    H224192   3.980   1.451   8.070
  853TIP3   OH224193   4.303   1.554   7.593
  853TIP3    H124194   4.271   1.644   7.575
  853TIP3    H224195   4.397   1.565   7.569
  854TIP3   OH224196   4.736   1.698   7.890
  854TIP3    H124197   4.750   1.665   7.982
  854TIP3    H224198   4.826   1.730   7.867
  855TIP3   OH224199   4.965   1.826   7.820
  855TIP3    H124200   5.038   1.768   7.797
  855TIP3    H224201   5.002   1.870   7.900
  856TIP3   OH224202   5.471   0.092   7.726
  856TIP3    H124203   5.383   0.123   7.698
  856TIP3    H224204   5.481   0.008   7.679
  857TIP3   OH224205   4.046   1.878   7.598
  857TIP3    H124206   3.973   1.930   7.560
  857TIP3    H224207   4.017   1.860   7.688
  858TIP3   OH224208   4.294   1.839   7.505
  858TIP3    H124209   4.205   1.851   7.546
  858TIP3    H224210   4.287   1.899   7.428
  859TIP3   OH224211   4.764   1.829   7.423
  859TIP3    H124212   4.718   1.885   7.358
  859TIP3    H224213   4.777   1.893   7.497
  860TIP3   OH224214   4.992   1.710   7.526
  860TIP3    H124215   4.908   1.738   7.488
  860TIP3    H224216   5.042   1.793   7.517
  861TIP3   OH224217   5.251   1.867   7.547
  861TIP3    H124218   5.246   1.963   7.524
  861TIP3    H224219   5.273   1.829   7.460
  862TIP3   OH224220   3.993   1.745   7.293
  862TIP3    H124221   3.985   1.698   7.378
  862TIP3    H224222   4.075   1.707   7.254
  863TIP3   OH224223   4.198   1.620   7.160
  863TIP3    H124224   4.183   1.526   7.181
  863TIP3    H224225   4.286   1.632   7.202
  864TIP3   OH224226   4.461   1.665   7.246
  864TIP3    H124227   4.476   1.572   7.218
  864TIP3    H224228   4.465   1.658   7.342
  865TIP3   OH224229   4.802   0.239   7.152
  865TIP3    H124230   4.741   0.170   7.188
  865TIP3    H224231   4.867   0.183   7.108
  866TIP3   OH224232   5.318   0.038   7.168
  866TIP3    H124233   5.379   0.092   7.113
  866TIP3    H224234   5.231   0.072   7.144
  867TIP3   OH224235   5.488   0.161   6.993
  867TIP3    H124236   5.556   0.102   6.957
  867TIP3    H224237   5.537   0.245   7.004
  868TIP3   OH224238   4.048   0.097   6.928
  868TIP3    H124239   3.959   0.073   6.898
  868TIP3    H224240   4.084   0.009   6.947
  869TIP3   OH224241   3.937   0.128   6.597
  869TIP3    H124242   3.966   0.140   6.506
  869TIP3    H224243   3.841   0.130   6.588
  870TIP3   OH224244   4.518   0.129   6.957
  870TIP3    H124245   4.611   0.125   6.932
  870TIP3    H224246   4.505   0.060   7.023
  871TIP3   OH224247   5.040   0.112   7.090
  871TIP3    H124248   5.057   0.111   6.995
  871TIP3    H224249   5.032   0.015   7.105
  872TIP3   OH224250   5.185   0.092   6.659
  872TIP3    H124251   5.115   0.154   6.635
  872TIP3    H224252   5.145   0.004   6.666
  873TIP3   OH224253   3.910   1.664   6.617
  873TIP3    H124254   3.846   1.662   6.544
  873TIP3    H224255   3.908   1.757   6.640
  874TIP3   OH224256   4.608   0.289   6.610
  874TIP3    H124257   4.634   0.230   6.682
  874TIP3    H224258   4.604   0.374   6.654
  875TIP3   OH224259   5.468   1.745   6.724
  875TIP3    H124260   5.446   1.667   6.668
  875TIP3    H224261   5.462   1.818   6.658
  876TIP3   OH224262   4.024   0.146   7.884
  876TIP3    H124263   3.990   0.068   7.930
  876TIP3    H224264   4.115   0.145   7.921
  877TIP3   OH224265   4.215   0.102   8.044
  877TIP3    H124266   4.309   0.077   8.034
  877TIP3    H224267   4.194   0.018   8.089
  878TIP3   OH224268   5.065   7.379   8.063
  878TIP3    H124269   5.076   7.320   8.139
  878TIP3    H224270   5.153   7.368   8.022
  879TIP3   OH224271   5.392   1.619   7.935
  879TIP3    H124272   5.313   1.605   7.878
  879TIP3    H224273   5.382   1.714   7.953
  880TIP3   OH224274   6.838   1.005   6.930
  880TIP3    H124275   6.837   1.103   6.926
  880TIP3    H224276   6.766   0.981   6.870
  881TIP3   OH224277   6.722   0.932   7.278
  881TIP3    H124278   6.721   0.868   7.351
  881TIP3    H224279   6.688   0.880   7.203
  882TIP3   OH224280   5.956   0.901   7.438
  882TIP3    H124281   5.966   0.830   7.503
  882TIP3    H224282   6.035   0.955   7.453
  883TIP3   OH224283   7.092   1.224   7.110
  883TIP3    H124284   7.050   1.154   7.161
  883TIP3    H224285   7.099   1.294   7.177
  884TIP3   OH224286   6.051   1.343   7.290
  884TIP3    H124287   6.020   1.258   7.253
  884TIP3    H224288   6.147   1.328   7.285
  885TIP3   OH224289   5.717   0.700   6.833
  885TIP3    H124290   5.674   0.787   6.829
  885TIP3    H224291   5.660   0.646   6.777
  886TIP3   OH224292   5.787   0.924   7.048
  886TIP3    H124293   5.814   0.841   7.093
  886TIP3    H224294   5.856   0.934   6.982
  887TIP3   OH224295   6.808   1.744   7.132
  887TIP3    H124296   6.870   1.673   7.102
  887TIP3    H224297   6.782   1.709   7.217
  888TIP3   OH224298   6.558   1.170   7.330
  888TIP3    H124299   6.593   1.109   7.262
  888TIP3    H224300   6.640   1.188   7.379
  889TIP3   OH224301   6.876   0.618   7.359
  889TIP3    H124302   6.896   0.522   7.358
  889TIP3    H224303   6.867   0.633   7.262
  890TIP3   OH224304   6.187   0.431   7.079
  890TIP3    H124305   6.200   0.514   7.028
  890TIP3    H224306   6.149   0.372   7.011
  891TIP3   OH224307   6.966   0.433   6.918
  891TIP3    H124308   7.030   0.408   6.989
  891TIP3    H224309   7.015   0.495   6.861
  892TIP3   OH224310   5.851   0.669   7.154
  892TIP3    H124311   5.917   0.614   7.198
  892TIP3    H224312   5.861   0.638   7.063
  893TIP3   OH224313   6.366   0.824   7.087
  893TIP3    H124314   6.434   0.766   7.125
  893TIP3    H224315   6.315   0.759   7.034
  894TIP3   OH224316   6.080   0.322   7.485
  894TIP3    H124317   6.049   0.374   7.408
  894TIP3    H224318   6.010   0.341   7.552
  895TIP3   OH224319   6.804   1.263   6.840
  895TIP3    H124320   6.781   1.242   6.750
  895TIP3    H224321   6.780   1.358   6.846
  896TIP3   OH224322   6.328   1.083   7.519
  896TIP3    H124323   6.260   1.152   7.520
  896TIP3    H224324   6.401   1.136   7.479
  897TIP3   OH224325   7.123   0.365   7.121
  897TIP3    H124326   7.115   0.289   7.178
  897TIP3    H224327   7.196   0.413   7.166
  898TIP3   OH224328   6.036   0.504   7.286
  898TIP3    H124329   6.098   0.571   7.319
  898TIP3    H224330   6.089   0.462   7.213
  899TIP3   OH224331   6.173   1.282   7.593
  899TIP3    H124332   6.174   1.372   7.554
  899TIP3    H224333   6.080   1.284   7.629
  900TIP3   OH224334   5.773   1.248   6.667
  900TIP3    H124335   5.753   1.276   6.578
  900TIP3    H224336   5.789   1.329   6.719
  901TIP3   OH224337   7.136   1.406   7.352
  901TIP3    H124338   7.039   1.420   7.358
  901TIP3    H224339   7.168   1.494   7.326
  902TIP3   OH224340   7.167   0.257   7.478
  902TIP3    H124341   7.092   0.317   7.470
  902TIP3    H224342   7.236   0.294   7.422
  903TIP3   OH224343   6.501   0.070   7.227
  903TIP3    H124344   6.490  -0.025   7.226
  903TIP3    H224345   6.410   0.096   7.250
  904TIP3   OH224346   6.968   1.585   7.008
  904TIP3    H124347   7.013   1.516   6.956
  904TIP3    H224348   7.011   1.664   6.968
  905TIP3   OH224349   7.090   1.379   6.854
  905TIP3    H124350   7.064   1.308   6.794
  905TIP3    H224351   7.095   1.330   6.939
  906TIP3   OH224352   7.232   1.251   7.712
  906TIP3    H124353   7.263   1.182   7.650
  906TIP3    H224354   7.272   1.330   7.670
  907TIP3   OH224355   6.706   0.941   6.686
  907TIP3    H124356   6.629   0.978   6.643
  907TIP3    H224357   6.770   0.932   6.612
  908TIP3   OH224358   7.047   0.954   6.772
  908TIP3    H124359   6.974   0.977   6.834
  908TIP3    H224360   7.094   0.888   6.828
  909TIP3   OH224361   7.035   0.765   7.684
  909TIP3    H124362   7.040   0.846   7.737
  909TIP3    H224363   6.976   0.797   7.613
  910TIP3   OH224364   6.208   1.018   6.967
  910TIP3    H124365   6.177   0.979   6.881
  910TIP3    H224366   6.271   0.950   6.998
  911TIP3   OH224367   6.340   1.355   7.235
  911TIP3    H124368   6.339   1.304   7.152
  911TIP3    H224369   6.420   1.321   7.277
  912TIP3   OH224370   6.241   0.893   7.334
  912TIP3    H124371   6.295   0.900   7.251
  912TIP3    H224372   6.283   0.959   7.392
  913TIP3   OH224373   6.879   1.450   7.401
  913TIP3    H124374   6.857   1.513   7.471
  913TIP3    H224375   6.859   1.364   7.444
  914TIP3   OH224376   6.329   1.327   7.804
  914TIP3    H124377   6.298   1.408   7.850
  914TIP3    H224378   6.271   1.326   7.725
  915TIP3   OH224379   6.935   0.872   6.546
  915TIP3    H124380   6.987   0.892   6.627
  915TIP3    H224381   6.976   0.921   6.475
  916TIP3   OH224382   6.015   0.935   7.719
  916TIP3    H124383   6.005   0.983   7.803
  916TIP3    H224384   5.922   0.949   7.689
  917TIP3   OH224385   6.707   1.543   6.885
  917TIP3    H124386   6.750   1.572   6.967
  917TIP3    H224387   6.651   1.619   6.866
  918TIP3   OH224388   6.162   1.534   7.876
  918TIP3    H124389   6.155   1.534   7.779
  918TIP3    H224390   6.068   1.528   7.903
  919TIP3   OH224391   6.104   0.925   6.731
  919TIP3    H124392   6.076   0.997   6.675
  919TIP3    H224393   6.043   0.855   6.704
  920TIP3   OH224394   5.718   1.161   7.616
  920TIP3    H124395   5.669   1.155   7.532
  920TIP3    H224396   5.719   1.065   7.638
  921TIP3   OH224397   5.691   1.437   7.293
  921TIP3    H124398   5.787   1.424   7.292
  921TIP3    H224399   5.683   1.518   7.345
  922TIP3   OH224400   6.609   1.460   7.750
  922TIP3    H124401   6.616   1.543   7.802
  922TIP3    H224402   6.523   1.424   7.776
  923TIP3   OH224403   6.657   1.833   6.728
  923TIP3    H124404   6.644   1.834   6.633
  923TIP3    H224405   6.657   1.929   6.748
  924TIP3   OH224406   6.017   1.724   6.914
  924TIP3    H124407   6.034   1.683   7.002
  924TIP3    H224408   5.933   1.682   6.891
  925TIP3   OH224409   6.929   1.751   6.710
  925TIP3    H124410   6.833   1.757   6.726
  925TIP3    H224411   6.955   1.674   6.761
  926TIP3   OH224412   7.194   0.663   7.916
  926TIP3    H124413   7.180   0.701   7.829
  926TIP3    H224414   7.237   0.578   7.892
  927TIP3   OH224415   5.947   1.285   7.710
  927TIP3    H124416   5.956   1.264   7.805
  927TIP3    H224417   5.855   1.257   7.689
  928TIP3   OH224418   6.207   0.158   7.311
  928TIP3    H124419   6.120   0.138   7.270
  928TIP3    H224420   6.189   0.238   7.360
  929TIP3   OH224421   6.673   0.105   7.642
  929TIP3    H124422   6.713   0.071   7.722
  929TIP3    H224423   6.577   0.100   7.659
  930TIP3   OH224424   7.001   0.489   7.729
  930TIP3    H124425   6.948   0.474   7.810
  930TIP3    H224426   6.988   0.584   7.710
  931TIP3   OH224427   6.222   0.640   7.434
  931TIP3    H124428   6.145   0.636   7.494
  931TIP3    H224429   6.216   0.729   7.392
  932TIP3   OH224430   6.218   0.651   6.917
  932TIP3    H124431   6.125   0.627   6.903
  932TIP3    H224432   6.257   0.622   6.831
  933TIP3   OH224433   6.772   0.700   6.792
  933TIP3    H124434   6.730   0.780   6.757
  933TIP3    H224435   6.838   0.682   6.723
  934TIP3   OH224436   6.675   0.722   7.938
  934TIP3    H124437   6.625   0.643   7.968
  934TIP3    H224438   6.759   0.711   7.985
  935TIP3   OH224439   6.875   0.652   7.077
  935TIP3    H124440   6.845   0.706   7.002
  935TIP3    H224441   6.881   0.565   7.033
  936TIP3   OH224442   5.984   0.663   7.598
  936TIP3    H124443   5.990   0.702   7.687
  936TIP3    H224444   5.938   0.579   7.618
  937TIP3   OH224445   6.322   0.395   6.279
  937TIP3    H124446   6.281   0.362   6.359
  937TIP3    H224447   6.256   0.450   6.236
  938TIP3   OH224448   5.650   0.379   6.999
  938TIP3    H124449   5.718   0.372   7.068
  938TIP3    H224450   5.692   0.339   6.920
  939TIP3   OH224451   6.793   0.807   7.533
  939TIP3    H124452   6.833   0.738   7.476
  939TIP3    H224453   6.746   0.755   7.601
  940TIP3   OH224454   6.472   0.406   7.018
  940TIP3    H124455   6.379   0.401   7.048
  940TIP3    H224456   6.521   0.390   7.100
  941TIP3   OH224457   5.951   0.555   6.909
  941TIP3    H124458   5.865   0.574   6.865
  941TIP3    H224459   5.983   0.474   6.864
  942TIP3   OH224460   6.315   0.573   6.676
  942TIP3    H124461   6.412   0.572   6.679
  942TIP3    H224462   6.297   0.627   6.596
  943TIP3   OH224463   6.910   0.329   7.340
  943TIP3    H124464   6.842   0.333   7.411
  943TIP3    H224465   6.859   0.306   7.261
  944TIP3   OH224466   7.230   1.894   7.978
  944TIP3    H124467   7.260   1.928   7.893
  944TIP3    H224468   7.303   1.924   8.034
  945TIP3   OH224469   6.009   1.137   7.930
  945TIP3    H124470   6.071   1.166   8.000
  945TIP3    H224471   5.926   1.146   7.985
  946TIP3   OH224472   6.603   0.679   7.207
  946TIP3    H124473   6.663   0.623   7.155
  946TIP3    H224474   6.587   0.626   7.286
  947TIP3   OH224475   6.102   0.300   6.843
  947TIP3    H124476   6.071   0.207   6.849
  947TIP3    H224477   6.181   0.290   6.789
  948TIP3   OH224478   6.464   0.513   7.449
  948TIP3    H124479   6.383   0.567   7.457
  948TIP3    H224480   6.521   0.549   7.520
  949TIP3   OH224481   7.228   1.063   7.499
  949TIP3    H124482   7.292   1.080   7.427
  949TIP3    H224483   7.145   1.059   7.447
  950TIP3   OH224484   6.912   0.421   6.435
  950TIP3    H124485   6.817   0.434   6.418
  950TIP3    H224486   6.931   0.509   6.471
  951TIP3   OH224487   6.666   1.163   7.740
  951TIP3    H124488   6.641   1.122   7.823
  951TIP3    H224489   6.655   1.257   7.755
  952TIP3   OH224490   6.982   0.608   6.604
  952TIP3    H124491   7.071   0.599   6.642
  952TIP3    H224492   6.980   0.691   6.552
  953TIP3   OH224493   6.037   1.076   7.200
  953TIP3    H124494   6.103   1.068   7.128
  953TIP3    H224495   6.041   0.988   7.241
  954TIP3   OH224496   5.734   0.917   7.726
  954TIP3    H124497   5.747   0.869   7.810
  954TIP3    H224498   5.671   0.857   7.679
  955TIP3   OH224499   6.435   0.874   7.940
  955TIP3    H124500   6.406   0.836   7.856
  955TIP3    H224501   6.527   0.840   7.944
  956TIP3   OH224502   6.901   1.404   7.737
  956TIP3    H124503   6.809   1.424   7.714
  956TIP3    H224504   6.902   1.434   7.830
  957TIP3   OH224505   7.292   1.506   6.620
  957TIP3    H124506   7.259   1.422   6.651
  957TIP3    H224507   7.325   1.488   6.530
  958TIP3   OH224508   7.014   0.985   7.329
  958TIP3    H124509   6.920   0.964   7.313
  958TIP3    H224510   7.061   0.913   7.284
  959TIP3   OH224511   6.269   1.423   6.939
  959TIP3    H124512   6.322   1.502   6.918
  959TIP3    H224513   6.182   1.447   6.907
  960TIP3   OH224514   6.458   1.607   7.530
  960TIP3    H124515   6.506   1.687   7.501
  960TIP3    H224516   6.520   1.572   7.597
  961TIP3   OH224517   6.283   1.685   6.849
  961TIP3    H124518   6.187   1.702   6.854
  961TIP3    H224519   6.318   1.772   6.876
  962TIP3   OH224520   6.812   1.205   7.491
  962TIP3    H124521   6.778   1.186   7.582
  962TIP3    H224522   6.875   1.134   7.475
  963TIP3   OH224523   7.044   1.293   6.398
  963TIP3    H124524   7.074   1.267   6.486
  963TIP3    H224525   6.949   1.303   6.410
  964TIP3   OH224526   7.089   1.667   7.740
  964TIP3    H124527   7.023   1.614   7.691
  964TIP3    H224528   7.112   1.734   7.672
  965TIP3   OH224529   5.899   0.388   7.682
  965TIP3    H124530   5.808   0.424   7.677
  965TIP3    H224531   5.885   0.300   7.723
  966TIP3   OH224532   7.121   1.172   6.627
  966TIP3    H124533   7.100   1.094   6.683
  966TIP3    H224534   7.216   1.182   6.646
  967TIP3   OH224535   5.860   1.569   7.521
  967TIP3    H124536   5.889   1.477   7.521
  967TIP3    H224537   5.885   1.600   7.609
  968TIP3   OH224538   6.770   0.363   7.578
  968TIP3    H124539   6.846   0.373   7.638
  968TIP3    H224540   6.736   0.274   7.596
  969TIP3   OH224541   6.856   0.324   6.685
  969TIP3    H124542   6.865   0.376   6.603
  969TIP3    H224543   6.902   0.375   6.752
  970TIP3   OH224544   6.610   1.540   6.568
  970TIP3    H124545   6.534   1.598   6.570
  970TIP3    H224546   6.668   1.583   6.503
  971TIP3   OH224547   6.569   0.496   6.769
  971TIP3    H124548   6.647   0.555   6.767
  971TIP3    H224549   6.544   0.489   6.863
  972TIP3   OH224550   6.626   0.600   7.685
  972TIP3    H124551   6.635   0.657   7.764
  972TIP3    H224552   6.692   0.530   7.694
  973TIP3   OH224553   6.656   0.202   6.861
  973TIP3    H124554   6.621   0.271   6.920
  973TIP3    H224555   6.719   0.257   6.808
  974TIP3   OH224556   7.240   0.378   7.762
  974TIP3    H124557   7.151   0.419   7.756
  974TIP3    H224558   7.272   0.388   7.672
  975TIP3   OH224559   7.106   0.769   7.176
  975TIP3    H124560   7.023   0.726   7.143
  975TIP3    H224561   7.145   0.694   7.224
  976TIP3   OH224562   7.215   1.694   7.339
  976TIP3    H124563   7.198   1.763   7.271
  976TIP3    H224564   7.309   1.703   7.356
  977TIP3   OH224565   5.938   0.120   7.220
  977TIP3    H124566   5.941   0.110   7.123
  977TIP3    H224567   5.929   0.027   7.244
  978TIP3   OH224568   5.849   1.495   6.823
  978TIP3    H124569   5.768   1.547   6.831
  978TIP3    H224570   5.909   1.547   6.769
  979TIP3   OH224571   5.774   1.763   7.962
  979TIP3    H124572   5.835   1.744   8.036
  979TIP3    H224573   5.734   1.677   7.945
  980TIP3   OH224574   6.244   1.651   8.122
  980TIP3    H124575   6.322   1.604   8.155
  980TIP3    H224576   6.242   1.625   8.028
  981TIP3   OH224577   6.895   1.493   7.997
  981TIP3    H124578   6.864   1.404   8.023
  981TIP3    H224579   6.972   1.505   8.055
  982TIP3   OH224580   5.770   1.139   8.056
  982TIP3    H124581   5.781   1.046   8.030
  982TIP3    H224582   5.692   1.165   8.004
  983TIP3   OH224583   6.436   1.138   7.997
  983TIP3    H124584   6.409   1.172   7.910
  983TIP3    H224585   6.448   1.041   7.986
  984TIP3   OH224586   7.005   1.121   7.734
  984TIP3    H124587   7.084   1.180   7.731
  984TIP3    H224588   6.938   1.190   7.742
  985TIP3   OH224589   5.866   0.866   8.001
  985TIP3    H124590   5.898   0.776   7.991
  985TIP3    H224591   5.835   0.864   8.094
  986TIP3   OH224592   6.251   0.759   7.736
  986TIP3    H124593   6.185   0.824   7.760
  986TIP3    H224594   6.289   0.791   7.652
  987TIP3   OH224595   6.753   1.016   8.080
  987TIP3    H124596   6.847   1.011   8.054
  987TIP3    H224597   6.740   0.934   8.129
  988TIP3   OH224598   6.291   0.495   7.839
  988TIP3    H124599   6.301   0.423   7.774
  988TIP3    H224600   6.286   0.574   7.784
  989TIP3   OH224601   6.330   0.335   7.594
  989TIP3    H124602   6.381   0.382   7.524
  989TIP3    H224603   6.240   0.323   7.554
  990TIP3   OH224604   6.481   0.883   7.619
  990TIP3    H124605   6.558   0.864   7.565
  990TIP3    H224606   6.452   0.968   7.584
  991TIP3   OH224607   6.924   0.657   8.118
  991TIP3    H124608   6.946   0.563   8.105
  991TIP3    H224609   7.012   0.698   8.114
  992TIP3   OH224610   7.052   0.939   7.933
  992TIP3    H124611   7.031   1.011   7.871
  992TIP3    H224612   7.148   0.933   7.915
  993TIP3   OH224613   6.136   0.620   8.033
  993TIP3    H124614   6.058   0.563   8.015
  993TIP3    H224615   6.200   0.583   7.969
  994TIP3   OH224616   6.400   0.092   7.652
  994TIP3    H124617   6.390   0.188   7.630
  994TIP3    H224618   6.335   0.053   7.592
  995TIP3   OH224619   6.535   0.510   7.999
  995TIP3    H124620   6.504   0.480   8.086
  995TIP3    H224621   6.458   0.490   7.942
  996TIP3   OH224622   6.805   0.430   7.909
  996TIP3    H124623   6.709   0.428   7.920
  996TIP3    H224624   6.835   0.363   7.974
  997TIP3   OH224625   6.974   0.294   8.102
  997TIP3    H124626   6.960   0.196   8.097
  997TIP3    H224627   6.940   0.317   8.191
  998TIP3   OH224628   5.943   0.410   8.009
  998TIP3    H124629   5.970   0.338   7.950
  998TIP3    H224630   5.937   0.365   8.096
  999TIP3   OH224631   6.427   7.355   7.903
  999TIP3    H124632   6.496   7.288   7.910
  999TIP3    H224633   6.422   7.379   7.808
 1000TIP3   OH224634   6.465   0.181   8.111
 1000TIP3    H124635   6.450   0.125   8.032
 1000TIP3    H224636   6.406   0.257   8.101
 1001TIP3   OH224637   5.647   1.867   6.877
 1001TIP3    H124638   5.576   1.818   6.830
 1001TIP3    H224639   5.674   1.800   6.944
 1002TIP3   OH224640   5.730   1.679   7.065
 1002TIP3    H124641   5.693   1.592   7.085
 1002TIP3    H224642   5.753   1.711   7.154
 1003TIP3   OH224643   7.264   1.303   8.104
 1003TIP3    H124644   7.189   1.285   8.163
 1003TIP3    H224645   7.318   1.363   8.159
 1004TIP3   OH224646   7.282   1.482   7.582
 1004TIP3    H124647   7.216   1.527   7.636
 1004TIP3    H224648   7.228   1.449   7.506
 1005TIP3   OH224649   7.196   0.780   6.909
 1005TIP3    H124650   7.213   0.686   6.918
 1005TIP3    H224651   7.194   0.807   7.002
 1006TIP3   OH224652   5.734   0.987   7.313
 1006TIP3    H124653   5.751   0.977   7.217
 1006TIP3    H224654   5.822   0.966   7.349
 1007TIP3   OH224655  -0.033   0.975   7.903
 1007TIP3    H124656   0.027   0.899   7.905
 1007TIP3    H224657   0.022   1.049   7.873
 1008TIP3   OH224658   7.202   0.525   6.740
 1008TIP3    H124659   7.237   0.447   6.783
 1008TIP3    H224660   7.279   0.574   6.711
 1009TIP3   OH224661   7.222   0.540   7.288
 1009TIP3    H124662   7.318   0.550   7.274
 1009TIP3    H224663   7.224   0.586   7.374
 1010TIP3   OH224664   7.269   0.663   7.589
 1010TIP3    H124665   7.179   0.693   7.610
 1010TIP3    H224666   7.310   0.740   7.547
 1011TIP3   OH224667   5.699   0.519   7.930
 1011TIP3    H124668   5.791   0.492   7.948
 1011TIP3    H224669   5.649   0.436   7.953
 1012TIP3   OH224670   5.813   0.348   7.213
 1012TIP3    H124671   5.859   0.265   7.239
 1012TIP3    H224672   5.871   0.413   7.253
 1013TIP3   OH224673   5.644   0.645   7.317
 1013TIP3    H124674   5.701   0.620   7.242
 1013TIP3    H224675   5.690   0.724   7.346
 1014TIP3   OH224676   5.685   0.274   6.729
 1014TIP3    H124677   5.588   0.284   6.716
 1014TIP3    H224678   5.720   0.317   6.651
 1015TIP3   OH224679   7.142   1.752   6.926
 1015TIP3    H124680   7.206   1.718   6.863
 1015TIP3    H224681   7.196   1.810   6.983
 1016TIP3   OH224682   5.675   0.140   7.553
 1016TIP3    H124683   5.610   0.121   7.623
 1016TIP3    H224684   5.628   0.204   7.498
 1017TIP3   OH224685   5.900   1.452   7.971
 1017TIP3    H124686   5.816   1.480   7.929
 1017TIP3    H224687   5.874   1.452   8.064
 1018TIP3   OH224688   6.190   1.556   7.599
 1018TIP3    H124689   6.157   1.643   7.572
 1018TIP3    H224690   6.283   1.567   7.568
 1019TIP3   OH224691   6.622   1.698   7.889
 1019TIP3    H124692   6.634   1.664   7.981
 1019TIP3    H224693   6.712   1.729   7.866
 1020TIP3   OH224694   6.853   1.827   7.820
 1020TIP3    H124695   6.927   1.769   7.797
 1020TIP3    H224696   6.889   1.871   7.900
 1021TIP3   OH224697   5.931   1.878   7.598
 1021TIP3    H124698   5.859   1.930   7.559
 1021TIP3    H224699   5.901   1.862   7.688
 1022TIP3   OH224700   6.179   1.838   7.505
 1022TIP3    H124701   6.090   1.855   7.544
 1022TIP3    H224702   6.174   1.897   7.427
 1023TIP3   OH224703   6.650   1.829   7.423
 1023TIP3    H124704   6.604   1.885   7.358
 1023TIP3    H224705   6.663   1.893   7.497
 1024TIP3   OH224706   6.880   1.709   7.525
 1024TIP3    H124707   6.794   1.737   7.489
 1024TIP3    H224708   6.925   1.795   7.518
 1025TIP3   OH224709   7.133   1.872   7.549
 1025TIP3    H124710   7.126   1.967   7.525
 1025TIP3    H224711   7.160   1.832   7.464
 1026TIP3   OH224712   5.879   1.746   7.293
 1026TIP3    H124713   5.870   1.699   7.379
 1026TIP3    H224714   5.960   1.707   7.254
 1027TIP3   OH224715   6.084   1.618   7.160
 1027TIP3    H124716   6.069   1.524   7.182
 1027TIP3    H224717   6.171   1.633   7.202
 1028TIP3   OH224718   6.343   1.664   7.246
 1028TIP3    H124719   6.361   1.572   7.219
 1028TIP3    H224720   6.351   1.658   7.342
 1029TIP3   OH224721   6.689   0.239   7.155
 1029TIP3    H124722   6.627   0.170   7.187
 1029TIP3    H224723   6.752   0.184   7.107
 1030TIP3   OH224724   7.194   0.045   7.179
 1030TIP3    H124725   7.259   0.086   7.121
 1030TIP3    H224726   7.110   0.073   7.142
 1031TIP3   OH224727   5.935   0.096   6.923
 1031TIP3    H124728   5.843   0.070   6.900
 1031TIP3    H224729   5.970   0.008   6.946
 1032TIP3   OH224730   5.768   0.159   6.474
 1032TIP3    H124731   5.864   0.145   6.470
 1032TIP3    H224732   5.742   0.137   6.565
 1033TIP3   OH224733   6.402   0.130   6.959
 1033TIP3    H124734   6.494   0.126   6.927
 1033TIP3    H224735   6.392   0.059   7.022
 1034TIP3   OH224736   6.927   0.109   7.092
 1034TIP3    H124737   6.939   0.114   6.997
 1034TIP3    H224738   6.917   0.012   7.104
 1035TIP3   OH224739   6.480   0.286   6.613
 1035TIP3    H124740   6.520   0.231   6.681
 1035TIP3    H224741   6.497   0.375   6.650
 1036TIP3   OH224742   5.909   0.146   7.884
 1036TIP3    H124743   5.876   0.068   7.930
 1036TIP3    H224744   6.001   0.145   7.921
 1037TIP3   OH224745   6.100   0.102   8.044
 1037TIP3    H124746   6.194   0.078   8.034
 1037TIP3    H224747   6.080   0.018   8.089
 1038TIP3   OH224748   6.956   7.384   8.063
 1038TIP3    H124749   6.958   7.320   8.137
 1038TIP3    H224750   7.040   7.359   8.023
 1039TIP3   OH224751   7.268   1.614   7.945
 1039TIP3    H124752   7.200   1.601   7.876
 1039TIP3    H224753   7.262   1.712   7.952
 1040TIP3   OH224754   1.177   2.891   6.935
 1040TIP3    H124755   1.184   2.989   6.924
 1040TIP3    H224756   1.109   2.872   6.871
 1041TIP3   OH224757   1.065   2.817   7.279
 1041TIP3    H124758   1.065   2.753   7.351
 1041TIP3    H224759   1.030   2.766   7.204
 1042TIP3   OH224760   0.305   2.784   7.432
 1042TIP3    H124761   0.310   2.716   7.502
 1042TIP3    H224762   0.378   2.843   7.457
 1043TIP3   OH224763   1.433   3.112   7.109
 1043TIP3    H124764   1.393   3.040   7.159
 1043TIP3    H224765   1.437   3.183   7.175
 1044TIP3   OH224766   0.389   3.230   7.286
 1044TIP3    H124767   0.359   3.143   7.254
 1044TIP3    H224768   0.485   3.212   7.289
 1045TIP3   OH224769   0.078   2.588   6.803
 1045TIP3    H124770   0.029   2.667   6.834
 1045TIP3    H224771   0.003   2.531   6.791
 1046TIP3   OH224772   0.126   2.803   7.044
 1046TIP3    H124773   0.154   2.726   7.096
 1046TIP3    H224774   0.200   2.817   6.983
 1047TIP3   OH224775   1.148   3.629   7.132
 1047TIP3    H124776   1.212   3.560   7.102
 1047TIP3    H224777   1.125   3.594   7.218
 1048TIP3   OH224778   0.903   3.057   7.328
 1048TIP3    H124779   0.937   2.995   7.261
 1048TIP3    H224780   0.985   3.073   7.379
 1049TIP3   OH224781   1.763   2.230   7.401
 1049TIP3    H124782   1.807   2.274   7.476
 1049TIP3    H224783   1.820   2.261   7.329
 1050TIP3   OH224784   1.223   2.504   7.358
 1050TIP3    H124785   1.236   2.408   7.358
 1050TIP3    H224786   1.208   2.519   7.263
 1051TIP3   OH224787   0.532   2.313   7.079
 1051TIP3    H124788   0.543   2.396   7.030
 1051TIP3    H224789   0.492   2.256   7.010
 1052TIP3   OH224790   1.306   2.322   6.914
 1052TIP3    H124791   1.369   2.290   6.984
 1052TIP3    H224792   1.365   2.380   6.864
 1053TIP3   OH224793   0.196   2.552   7.145
 1053TIP3    H124794   0.263   2.502   7.197
 1053TIP3    H224795   0.212   2.518   7.055
 1054TIP3   OH224796   0.711   2.710   7.085
 1054TIP3    H124797   0.776   2.651   7.126
 1054TIP3    H224798   0.658   2.644   7.035
 1055TIP3   OH224799   1.841   2.374   7.648
 1055TIP3    H124800   1.802   2.463   7.648
 1055TIP3    H224801   1.824   2.347   7.741
 1056TIP3   OH224802   0.423   2.203   7.484
 1056TIP3    H124803   0.395   2.260   7.409
 1056TIP3    H224804   0.354   2.226   7.551
 1057TIP3   OH224805   1.151   3.149   6.840
 1057TIP3    H124806   1.129   3.128   6.748
 1057TIP3    H224807   1.122   3.243   6.845
 1058TIP3   OH224808   0.676   2.968   7.507
 1058TIP3    H124809   0.603   3.031   7.530
 1058TIP3    H224810   0.745   3.029   7.478
 1059TIP3   OH224811   1.486   2.260   7.114
 1059TIP3    H124812   1.464   2.181   7.165
 1059TIP3    H224813   1.553   2.301   7.170
 1060TIP3   OH224814   0.378   2.385   7.287
 1060TIP3    H124815   0.438   2.456   7.320
 1060TIP3    H224816   0.433   2.348   7.213
 1061TIP3   OH224817   0.517   3.167   7.588
 1061TIP3    H124818   0.512   3.259   7.556
 1061TIP3    H224819   0.429   3.159   7.632
 1062TIP3   OH224820   0.119   3.137   6.667
 1062TIP3    H124821   0.107   3.162   6.575
 1062TIP3    H224822   0.134   3.216   6.722
 1063TIP3   OH224823   1.487   3.296   7.345
 1063TIP3    H124824   1.390   3.307   7.357
 1063TIP3    H224825   1.514   3.388   7.324
 1064TIP3   OH224826   1.524   2.154   7.499
 1064TIP3    H124827   1.438   2.184   7.466
 1064TIP3    H224828   1.584   2.157   7.421
 1065TIP3   OH224829   0.816   1.937   7.229
 1065TIP3    H124830   0.802   1.840   7.223
 1065TIP3    H224831   0.729   1.967   7.262
 1066TIP3   OH224832   1.314   3.473   7.004
 1066TIP3    H124833   1.356   3.402   6.952
 1066TIP3    H224834   1.357   3.552   6.964
 1067TIP3   OH224835   1.439   3.268   6.856
 1067TIP3    H124836   1.404   3.200   6.795
 1067TIP3    H224837   1.438   3.217   6.938
 1068TIP3   OH224838   1.596   3.127   7.705
 1068TIP3    H124839   1.611   3.062   7.633
 1068TIP3    H224840   1.617   3.211   7.660
 1069TIP3   OH224841   1.782   2.755   7.506
 1069TIP3    H124842   1.721   2.831   7.513
 1069TIP3    H224843   1.835   2.784   7.429
 1070TIP3   OH224844   1.387   2.830   6.773
 1070TIP3    H124845   1.321   2.865   6.835
 1070TIP3    H224846   1.442   2.772   6.827
 1071TIP3   OH224847   1.382   2.655   7.685
 1071TIP3    H124848   1.383   2.736   7.738
 1071TIP3    H224849   1.317   2.683   7.617
 1072TIP3   OH224850   0.555   2.904   6.966
 1072TIP3    H124851   0.517   2.863   6.884
 1072TIP3    H224852   0.614   2.833   6.999
 1073TIP3   OH224853   0.684   3.240   7.232
 1073TIP3    H124854   0.684   3.189   7.151
 1073TIP3    H224855   0.762   3.205   7.279
 1074TIP3   OH224856   0.586   2.778   7.332
 1074TIP3    H124857   0.640   2.788   7.251
 1074TIP3    H224858   0.624   2.845   7.392
 1075TIP3   OH224859   1.227   3.335   7.403
 1075TIP3    H124860   1.197   3.399   7.468
 1075TIP3    H224861   1.201   3.250   7.444
 1076TIP3   OH224862   0.680   3.220   7.801
 1076TIP3    H124863   0.638   3.294   7.850
 1076TIP3    H224864   0.613   3.200   7.731
 1077TIP3   OH224865   0.379   2.838   7.720
 1077TIP3    H124866   0.380   2.907   7.789
 1077TIP3    H224867   0.285   2.844   7.694
 1078TIP3   OH224868   1.050   3.431   6.884
 1078TIP3    H124869   1.094   3.460   6.965
 1078TIP3    H224870   0.993   3.505   6.864
 1079TIP3   OH224871   0.505   3.423   7.875
 1079TIP3    H124872   0.496   3.414   7.779
 1079TIP3    H224873   0.412   3.411   7.904
 1080TIP3   OH224874   0.452   2.802   6.730
 1080TIP3    H124875   0.426   2.880   6.676
 1080TIP3    H224876   0.384   2.741   6.704
 1081TIP3   OH224877   0.101   3.039   7.595
 1081TIP3    H124878   0.029   3.044   7.530
 1081TIP3    H224879   0.074   2.954   7.635
 1082TIP3   OH224880   0.051   3.338   7.275
 1082TIP3    H124881   0.139   3.304   7.296
 1082TIP3    H224882   0.032   3.396   7.349
 1083TIP3   OH224883   1.857   3.392   7.860
 1083TIP3    H124884   1.846   3.296   7.861
 1083TIP3    H224885   1.771   3.417   7.904
 1084TIP3   OH224886   0.953   3.346   7.750
 1084TIP3    H124887   0.959   3.429   7.802
 1084TIP3    H224888   0.866   3.310   7.774
 1085TIP3   OH224889   0.999   3.719   6.730
 1085TIP3    H124890   0.987   3.711   6.634
 1085TIP3    H224891   1.001   3.815   6.746
 1086TIP3   OH224892   0.363   3.607   6.911
 1086TIP3    H124893   0.379   3.567   7.000
 1086TIP3    H224894   0.278   3.567   6.889
 1087TIP3   OH224895   1.272   3.644   6.717
 1087TIP3    H124896   1.175   3.639   6.720
 1087TIP3    H224897   1.296   3.561   6.759
 1088TIP3   OH224898   1.575   2.539   7.906
 1088TIP3    H124899   1.522   2.584   7.839
 1088TIP3    H224900   1.567   2.446   7.881
 1089TIP3   OH224901   0.288   3.185   7.713
 1089TIP3    H124902   0.304   3.144   7.800
 1089TIP3    H224903   0.203   3.143   7.685
 1090TIP3   OH224904   0.556   2.029   7.304
 1090TIP3    H124905   0.466   2.016   7.268
 1090TIP3    H224906   0.541   2.110   7.354
 1091TIP3   OH224907   1.017   1.999   7.643
 1091TIP3    H124908   1.060   1.950   7.717
 1091TIP3    H224909   0.921   1.981   7.657
 1092TIP3   OH224910   1.351   2.381   7.733
 1092TIP3    H124911   1.292   2.356   7.808
 1092TIP3    H224912   1.326   2.472   7.710
 1093TIP3   OH224913   0.988   2.251   6.377
 1093TIP3    H124914   0.952   2.245   6.468
 1093TIP3    H224915   0.957   2.167   6.342
 1094TIP3   OH224916   0.565   2.525   7.431
 1094TIP3    H124917   0.491   2.523   7.495
 1094TIP3    H224918   0.558   2.615   7.395
 1095TIP3   OH224919   0.561   2.536   6.917
 1095TIP3    H124920   0.467   2.511   6.904
 1095TIP3    H224921   0.598   2.505   6.833
 1096TIP3   OH224922   1.107   2.584   6.787
 1096TIP3    H124923   1.074   2.671   6.760
 1096TIP3    H224924   1.184   2.571   6.731
 1097TIP3   OH224925   1.019   2.607   7.936
 1097TIP3    H124926   0.966   2.530   7.968
 1097TIP3    H224927   1.102   2.596   7.986
 1098TIP3   OH224928   1.217   2.536   7.077
 1098TIP3    H124929   1.189   2.592   7.004
 1098TIP3    H224930   1.226   2.449   7.033
 1099TIP3   OH224931   0.328   2.548   7.599
 1099TIP3    H124932   0.333   2.590   7.686
 1099TIP3    H224933   0.281   2.465   7.619
 1100TIP3   OH224934   0.664   2.295   6.286
 1100TIP3    H124935   0.620   2.244   6.357
 1100TIP3    H224936   0.591   2.329   6.233
 1101TIP3   OH224937   0.022   2.284   6.984
 1101TIP3    H124938   0.062   2.253   7.068
 1101TIP3    H224939   0.045   2.215   6.921
 1102TIP3   OH224940   0.118   2.344   6.529
 1102TIP3    H124941   0.170   2.401   6.471
 1102TIP3    H224942   0.048   2.403   6.557
 1103TIP3   OH224943   1.135   2.694   7.534
 1103TIP3    H124944   1.172   2.626   7.474
 1103TIP3    H224945   1.089   2.641   7.601
 1104TIP3   OH224946   0.815   2.292   7.018
 1104TIP3    H124947   0.722   2.292   7.048
 1104TIP3    H224948   0.864   2.274   7.100
 1105TIP3   OH224949   0.305   2.447   6.901
 1105TIP3    H124950   0.214   2.461   6.867
 1105TIP3    H224951   0.326   2.359   6.864
 1106TIP3   OH224952   0.656   2.454   6.671
 1106TIP3    H124953   0.753   2.457   6.686
 1106TIP3    H224954   0.640   2.520   6.603
 1107TIP3   OH224955   1.259   2.212   7.343
 1107TIP3    H124956   1.188   2.219   7.411
 1107TIP3    H224957   1.207   2.189   7.264
 1108TIP3   OH224958   1.576   3.779   7.976
 1108TIP3    H124959   1.605   3.816   7.891
 1108TIP3    H224960   1.647   3.808   8.035
 1109TIP3   OH224961   0.348   3.025   7.930
 1109TIP3    H124962   0.416   3.050   7.995
 1109TIP3    H224963   0.269   3.035   7.988
 1110TIP3   OH224964   0.944   2.567   7.205
 1110TIP3    H124965   1.005   2.513   7.155
 1110TIP3    H224966   0.929   2.513   7.285
 1111TIP3   OH224967   0.445   2.184   6.847
 1111TIP3    H124968   0.413   2.091   6.849
 1111TIP3    H224969   0.526   2.173   6.796
 1112TIP3   OH224970   0.809   2.401   7.447
 1112TIP3    H124971   0.726   2.452   7.457
 1112TIP3    H224972   0.864   2.435   7.520
 1113TIP3   OH224973   0.870   3.007   6.623
 1113TIP3    H124974   0.784   2.981   6.593
 1113TIP3    H224975   0.849   3.039   6.713
 1114TIP3   OH224976   1.588   2.938   7.498
 1114TIP3    H124977   1.642   2.990   7.436
 1114TIP3    H224978   1.501   2.945   7.454
 1115TIP3   OH224979   1.016   3.049   7.742
 1115TIP3    H124980   0.981   3.006   7.821
 1115TIP3    H224981   0.991   3.141   7.753
 1116TIP3   OH224982   0.381   2.963   7.198
 1116TIP3    H124983   0.445   2.953   7.126
 1116TIP3    H224984   0.385   2.878   7.244
 1117TIP3   OH224985   1.074   3.167   6.531
 1117TIP3    H124986   1.045   3.256   6.553
 1117TIP3    H224987   0.999   3.108   6.544
 1118TIP3   OH224988   0.101   2.779   7.698
 1118TIP3    H124989   0.110   2.757   7.792
 1118TIP3    H224990   0.016   2.739   7.676
 1119TIP3   OH224991   0.778   2.758   7.941
 1119TIP3    H124992   0.746   2.726   7.856
 1119TIP3    H224993   0.871   2.726   7.941
 1120TIP3   OH224994   1.247   3.291   7.738
 1120TIP3    H124995   1.155   3.309   7.714
 1120TIP3    H224996   1.244   3.321   7.831
 1121TIP3   OH224997   1.809   2.513   6.580
 1121TIP3    H124998   1.761   2.478   6.506
 1121TIP3    H224999   1.828   2.604   6.549
 1122TIP3   OH225000   1.813   3.094   7.856
 1122TIP3    H125001   1.724   3.118   7.820
 1122TIP3    H225002   1.867   3.091   7.775
 1123TIP3   OH225003   1.363   2.874   7.328
 1123TIP3    H125004   1.269   2.853   7.316
 1123TIP3    H225005   1.406   2.799   7.282
 1124TIP3   OH225006   0.615   3.307   6.936
 1124TIP3    H125007   0.665   3.388   6.917
 1124TIP3    H225008   0.528   3.330   6.902
 1125TIP3   OH225009   0.758   3.074   6.888
 1125TIP3    H125010   0.726   3.166   6.898
 1125TIP3    H225011   0.686   3.025   6.933
 1126TIP3   OH225012   0.803   3.492   7.530
 1126TIP3    H125013   0.848   3.572   7.500
 1126TIP3    H225014   0.865   3.457   7.596
 1127TIP3   OH225015   0.625   3.572   6.843
 1127TIP3    H125016   0.530   3.587   6.859
 1127TIP3    H225017   0.662   3.655   6.877
 1128TIP3   OH225018   1.153   3.091   7.491
 1128TIP3    H125019   1.122   3.072   7.582
 1128TIP3    H225020   1.218   3.021   7.475
 1129TIP3   OH225021   1.437   3.549   7.740
 1129TIP3    H125022   1.367   3.501   7.693
 1129TIP3    H225023   1.455   3.620   7.674
 1130TIP3   OH225024   0.241   2.272   7.672
 1130TIP3    H125025   0.153   2.311   7.680
 1130TIP3    H225026   0.231   2.191   7.725
 1131TIP3   OH225027   0.208   3.457   7.518
 1131TIP3    H125028   0.230   3.363   7.521
 1131TIP3    H225029   0.227   3.482   7.609
 1132TIP3   OH225030   0.344   2.985   6.562
 1132TIP3    H125031   0.261   3.023   6.595
 1132TIP3    H225032   0.378   3.057   6.504
 1133TIP3   OH225033   1.120   2.253   7.574
 1133TIP3    H125034   1.186   2.259   7.643
 1133TIP3    H225035   1.078   2.167   7.596
 1134TIP3   OH225036   1.192   2.212   6.681
 1134TIP3    H125037   1.210   2.261   6.602
 1134TIP3    H225038   1.247   2.253   6.750
 1135TIP3   OH225039   0.909   2.391   6.766
 1135TIP3    H125040   0.992   2.442   6.773
 1135TIP3    H225041   0.885   2.372   6.859
 1136TIP3   OH225042   0.969   2.488   7.685
 1136TIP3    H125043   0.976   2.542   7.766
 1136TIP3    H225044   1.035   2.418   7.695
 1137TIP3   OH225045   0.995   2.095   6.857
 1137TIP3    H125046   0.963   2.158   6.924
 1137TIP3    H225047   1.067   2.146   6.812
 1138TIP3   OH225048   0.687   3.531   6.569
 1138TIP3    H125049   0.714   3.608   6.515
 1138TIP3    H225050   0.671   3.565   6.659
 1139TIP3   OH225051   0.570   2.205   6.525
 1139TIP3    H125052   0.560   2.292   6.566
 1139TIP3    H225053   0.658   2.175   6.554
 1140TIP3   OH225054   1.588   2.279   7.769
 1140TIP3    H125055   1.492   2.303   7.762
 1140TIP3    H225056   1.608   2.249   7.681
 1141TIP3   OH225057   1.447   2.653   7.176
 1141TIP3    H125058   1.366   2.610   7.142
 1141TIP3    H225059   1.495   2.581   7.221
 1142TIP3   OH225060   1.554   3.579   7.337
 1142TIP3    H125061   1.545   3.648   7.268
 1142TIP3    H225062   1.650   3.584   7.355
 1143TIP3   OH225063   0.300   1.992   7.217
 1143TIP3    H125064   0.284   1.991   7.120
 1143TIP3    H225065   0.261   1.906   7.243
 1144TIP3   OH225066   0.197   3.385   6.833
 1144TIP3    H125067   0.112   3.430   6.833
 1144TIP3    H225068   0.252   3.432   6.771
 1145TIP3   OH225069   0.139   3.648   7.956
 1145TIP3    H125070   0.184   3.626   8.040
 1145TIP3    H225071   0.083   3.568   7.946
 1146TIP3   OH225072   0.587   3.532   8.128
 1146TIP3    H125073   0.670   3.489   8.150
 1146TIP3    H225074   0.583   3.513   8.031
 1147TIP3   OH225075   1.234   3.380   7.997
 1147TIP3    H125076   1.205   3.290   8.023
 1147TIP3    H225077   1.314   3.391   8.052
 1148TIP3   OH225078   0.125   3.024   8.058
 1148TIP3    H125079   0.128   2.931   8.031
 1148TIP3    H225080   0.042   3.055   8.017
 1149TIP3   OH225081   0.782   3.023   7.996
 1149TIP3    H125082   0.748   3.055   7.911
 1149TIP3    H225083   0.789   2.925   7.985
 1150TIP3   OH225084   1.351   3.011   7.739
 1150TIP3    H125085   1.430   3.068   7.733
 1150TIP3    H225086   1.281   3.078   7.743
 1151TIP3   OH225087   0.195   2.746   7.998
 1151TIP3    H125088   0.245   2.663   7.991
 1151TIP3    H225089   0.184   2.751   8.095
 1152TIP3   OH225090   0.591   2.643   7.735
 1152TIP3    H125091   0.529   2.714   7.760
 1152TIP3    H225092   0.631   2.679   7.654
 1153TIP3   OH225093   1.099   2.900   8.077
 1153TIP3    H125094   1.194   2.896   8.055
 1153TIP3    H225095   1.083   2.821   8.129
 1154TIP3   OH225096   0.637   2.381   7.838
 1154TIP3    H125097   0.644   2.310   7.773
 1154TIP3    H225098   0.625   2.462   7.785
 1155TIP3   OH225099   0.673   2.218   7.595
 1155TIP3    H125100   0.724   2.265   7.524
 1155TIP3    H225101   0.584   2.211   7.555
 1156TIP3   OH225102   0.826   2.768   7.620
 1156TIP3    H125103   0.902   2.751   7.562
 1156TIP3    H225104   0.790   2.851   7.586
 1157TIP3   OH225105   1.267   2.541   8.115
 1157TIP3    H125106   1.288   2.447   8.106
 1157TIP3    H225107   1.354   2.584   8.115
 1158TIP3   OH225108   1.402   2.825   7.936
 1158TIP3    H125109   1.375   2.894   7.872
 1158TIP3    H225110   1.497   2.819   7.912
 1159TIP3   OH225111   0.477   2.506   8.033
 1159TIP3    H125112   0.399   2.448   8.015
 1159TIP3    H225113   0.541   2.470   7.969
 1160TIP3   OH225114   0.751   1.961   7.636
 1160TIP3    H125115   0.736   2.057   7.625
 1160TIP3    H225116   0.677   1.925   7.584
 1161TIP3   OH225117   0.879   2.395   7.999
 1161TIP3    H125118   0.846   2.373   8.088
 1161TIP3    H225119   0.802   2.376   7.943
 1162TIP3   OH225120   1.151   2.308   7.903
 1162TIP3    H125121   1.055   2.315   7.918
 1162TIP3    H225122   1.178   2.246   7.973
 1163TIP3   OH225123   1.305   2.172   8.096
 1163TIP3    H125124   1.304   2.074   8.100
 1163TIP3    H225125   1.283   2.201   8.188
 1164TIP3   OH225126   0.295   2.299   8.008
 1164TIP3    H125127   0.312   2.224   7.949
 1164TIP3    H225128   0.279   2.254   8.095
 1165TIP3   OH225129   0.771   1.901   7.906
 1165TIP3    H125130   0.839   1.830   7.905
 1165TIP3    H225131   0.762   1.916   7.810
 1166TIP3   OH225132   0.808   2.061   8.115
 1166TIP3    H125133   0.791   2.011   8.031
 1166TIP3    H225134   0.751   2.140   8.104
 1167TIP3   OH225135   0.760   3.752   6.433
 1167TIP3    H125136   0.855   3.763   6.435
 1167TIP3    H225137   0.732   3.815   6.366
 1168TIP3   OH225138   7.360   3.756   6.865
 1168TIP3    H125139   7.271   3.737   6.830
 1168TIP3    H225140   7.370   3.694   6.941
 1169TIP3   OH225141   0.067   3.567   7.060
 1169TIP3    H125142   0.037   3.477   7.085
 1169TIP3    H225143   0.096   3.598   7.148
 1170TIP3   OH225144   1.826   3.643   7.357
 1170TIP3    H125145   1.829   3.659   7.453
 1170TIP3    H225146   1.896   3.702   7.327
 1171TIP3   OH225147   1.783   3.603   7.653
 1171TIP3    H125148   1.736   3.526   7.614
 1171TIP3    H225149   1.832   3.557   7.724
 1172TIP3   OH225150   1.628   3.174   8.119
 1172TIP3    H125151   1.538   3.173   8.157
 1172TIP3    H225152   1.664   3.256   8.161
 1173TIP3   OH225153   1.771   3.004   6.661
 1173TIP3    H125154   1.852   3.042   6.692
 1173TIP3    H225155   1.753   2.937   6.730
 1174TIP3   OH225156   1.799   2.813   6.851
 1174TIP3    H125157   1.719   2.767   6.888
 1174TIP3    H225158   1.855   2.827   6.930
 1175TIP3   OH225159   1.771   3.087   7.348
 1175TIP3    H125160   1.852   3.048   7.311
 1175TIP3    H225161   1.786   3.182   7.332
 1176TIP3   OH225162   1.627   3.375   7.577
 1176TIP3    H125163   1.558   3.410   7.635
 1176TIP3    H225164   1.572   3.336   7.505
 1177TIP3   OH225165   1.834   2.804   6.488
 1177TIP3    H125166   1.769   2.833   6.423
 1177TIP3    H225167   1.812   2.865   6.560
 1178TIP3   OH225168   1.576   2.662   6.907
 1178TIP3    H125169   1.559   2.567   6.904
 1178TIP3    H225170   1.546   2.685   6.997
 1179TIP3   OH225171   0.075   2.869   7.312
 1179TIP3    H125172   0.094   2.866   7.216
 1179TIP3    H225173   0.164   2.856   7.350
 1180TIP3   OH225174   1.664   2.859   7.878
 1180TIP3    H125175   1.726   2.784   7.890
 1180TIP3    H225176   1.723   2.937   7.876
 1181TIP3   OH225177   1.813   2.648   7.938
 1181TIP3    H125178   1.725   2.607   7.928
 1181TIP3    H225179   1.871   2.570   7.937
 1182TIP3   OH225180   1.543   2.414   6.751
 1182TIP3    H125181   1.579   2.327   6.773
 1182TIP3    H225182   1.621   2.464   6.721
 1183TIP3   OH225183   1.611   2.467   7.305
 1183TIP3    H125184   1.703   2.502   7.294
 1183TIP3    H225185   1.583   2.506   7.388
 1184TIP3   OH225186   1.607   2.561   7.579
 1184TIP3    H125187   1.518   2.592   7.611
 1184TIP3    H225188   1.653   2.647   7.557
 1185TIP3   OH225189   0.060   2.394   7.930
 1185TIP3    H125190   0.150   2.370   7.956
 1185TIP3    H225191   0.003   2.322   7.965
 1186TIP3   OH225192   1.842   1.954   8.110
 1186TIP3    H125193   1.877   1.887   8.050
 1186TIP3    H225194   1.852   2.035   8.057
 1187TIP3   OH225195   0.154   2.225   7.218
 1187TIP3    H125196   0.208   2.147   7.240
 1187TIP3    H225197   0.210   2.296   7.254
 1188TIP3   OH225198   0.059   2.582   7.359
 1188TIP3    H125199   0.067   2.547   7.269
 1188TIP3    H225200   0.038   2.672   7.335
 1189TIP3   OH225201   1.794   2.167   7.944
 1189TIP3    H125202   1.699   2.190   7.945
 1189TIP3    H225203   1.796   2.106   7.868
 1190TIP3   OH225204   7.406   2.156   6.696
 1190TIP3    H125205   7.311   2.175   6.703
 1190TIP3    H225206   7.435   2.223   6.631
 1191TIP3   OH225207   1.497   3.651   6.920
 1191TIP3    H125208   1.565   3.621   6.857
 1191TIP3    H225209   1.549   3.703   6.983
 1192TIP3   OH225210   7.378   2.018   7.567
 1192TIP3    H125211   7.304   1.997   7.625
 1192TIP3    H225212   7.328   2.075   7.506
 1193TIP3   OH225213   0.244   3.347   7.973
 1193TIP3    H125214   0.160   3.363   7.929
 1193TIP3    H225215   0.215   3.332   8.063
 1194TIP3   OH225216   0.534   3.444   7.600
 1194TIP3    H125217   0.497   3.529   7.572
 1194TIP3    H225218   0.626   3.453   7.567
 1195TIP3   OH225219   0.964   3.585   7.889
 1195TIP3    H125220   0.977   3.550   7.981
 1195TIP3    H225221   1.055   3.615   7.867
 1196TIP3   OH225222   1.194   3.712   7.820
 1196TIP3    H125223   1.266   3.652   7.797
 1196TIP3    H225224   1.231   3.755   7.900
 1197TIP3   OH225225   1.698   1.978   7.728
 1197TIP3    H125226   1.610   1.997   7.689
 1197TIP3    H225227   1.712   1.891   7.682
 1198TIP3   OH225228   0.278   3.768   7.602
 1198TIP3    H125229   0.202   3.813   7.560
 1198TIP3    H225230   0.241   3.746   7.689
 1199TIP3   OH225231   0.523   3.725   7.505
 1199TIP3    H125232   0.435   3.740   7.545
 1199TIP3    H225233   0.518   3.784   7.428
 1200TIP3   OH225234   0.996   3.717   7.421
 1200TIP3    H125235   0.945   3.771   7.358
 1200TIP3    H225236   1.006   3.778   7.497
 1201TIP3   OH225237   1.221   3.595   7.526
 1201TIP3    H125238   1.137   3.624   7.488
 1201TIP3    H225239   1.270   3.679   7.517
 1202TIP3   OH225240   1.481   3.752   7.548
 1202TIP3    H125241   1.476   3.848   7.525
 1202TIP3    H225242   1.502   3.715   7.460
 1203TIP3   OH225243   0.220   3.631   7.290
 1203TIP3    H125244   0.215   3.588   7.378
 1203TIP3    H225245   0.301   3.592   7.253
 1204TIP3   OH225246   0.429   3.500   7.155
 1204TIP3    H125247   0.411   3.408   7.182
 1204TIP3    H225248   0.514   3.517   7.202
 1205TIP3   OH225249   0.690   3.550   7.246
 1205TIP3    H125250   0.705   3.458   7.219
 1205TIP3    H225251   0.692   3.542   7.343
 1206TIP3   OH225252   1.035   2.117   7.158
 1206TIP3    H125253   0.968   2.052   7.187
 1206TIP3    H225254   1.090   2.063   7.100
 1207TIP3   OH225255   1.545   1.934   7.173
 1207TIP3    H125256   1.608   1.980   7.114
 1207TIP3    H225257   1.456   1.957   7.139
 1208TIP3   OH225258   1.715   2.047   6.990
 1208TIP3    H125259   1.784   1.986   6.956
 1208TIP3    H225260   1.766   2.129   7.006
 1209TIP3   OH225261   0.268   1.976   6.947
 1209TIP3    H125262   0.193   1.957   6.888
 1209TIP3    H225263   0.320   1.894   6.935
 1210TIP3   OH225264   0.200   1.973   6.538
 1210TIP3    H125265   0.202   2.016   6.452
 1210TIP3    H225266   0.108   1.989   6.568
 1211TIP3   OH225267   0.716   1.975   6.924
 1211TIP3    H125268   0.807   2.006   6.914
 1211TIP3    H225269   0.717   1.947   7.016
 1212TIP3   OH225270   1.289   1.974   7.084
 1212TIP3    H125271   1.284   1.982   6.988
 1212TIP3    H225272   1.254   1.882   7.098
 1213TIP3   OH225273   0.832   2.177   6.608
 1213TIP3    H125274   0.858   2.115   6.679
 1213TIP3    H225275   0.840   2.261   6.657
 1214TIP3   OH225276   1.698   3.626   6.719
 1214TIP3    H125277   1.670   3.556   6.660
 1214TIP3    H225278   1.688   3.704   6.659
 1215TIP3   OH225279   0.253   2.036   7.895
 1215TIP3    H125280   0.219   1.951   7.929
 1215TIP3    H225281   0.346   2.029   7.926
 1216TIP3   OH225282   0.460   1.971   8.055
 1216TIP3    H125283   0.548   1.936   8.030
 1216TIP3    H225284   0.420   1.892   8.095
 1217TIP3   OH225285   1.301   1.900   8.070
 1217TIP3    H125286   1.311   1.851   8.154
 1217TIP3    H225287   1.392   1.896   8.034
 1218TIP3   OH225288   1.621   3.505   7.936
 1218TIP3    H125289   1.542   3.491   7.879
 1218TIP3    H225290   1.610   3.600   7.953
 1219TIP3   OH225291   3.067   2.893   6.930
 1219TIP3    H125292   3.064   2.991   6.925
 1219TIP3    H225293   2.994   2.869   6.871
 1220TIP3   OH225294   2.954   2.818   7.279
 1220TIP3    H125295   2.951   2.753   7.351
 1220TIP3    H225296   2.917   2.767   7.205
 1221TIP3   OH225297   2.191   2.782   7.431
 1221TIP3    H125298   2.192   2.720   7.506
 1221TIP3    H225299   2.260   2.845   7.457
 1222TIP3   OH225300   3.320   3.113   7.108
 1222TIP3    H125301   3.280   3.041   7.158
 1222TIP3    H225302   3.323   3.184   7.176
 1223TIP3   OH225303   2.279   3.229   7.286
 1223TIP3    H125304   2.248   3.143   7.252
 1223TIP3    H225305   2.374   3.212   7.289
 1224TIP3   OH225306   1.943   2.586   6.833
 1224TIP3    H125307   1.899   2.674   6.830
 1224TIP3    H225308   1.887   2.532   6.776
 1225TIP3   OH225309   2.014   2.808   7.050
 1225TIP3    H125310   2.042   2.726   7.095
 1225TIP3    H225311   2.083   2.819   6.983
 1226TIP3   OH225312   3.037   3.631   7.134
 1226TIP3    H125313   3.095   3.558   7.104
 1226TIP3    H225314   3.008   3.595   7.218
 1227TIP3   OH225315   2.789   3.057   7.328
 1227TIP3    H125316   2.823   2.995   7.261
 1227TIP3    H225317   2.870   3.073   7.379
 1228TIP3   OH225318   3.648   2.224   7.398
 1228TIP3    H125319   3.667   2.280   7.476
 1228TIP3    H225320   3.706   2.266   7.333
 1229TIP3   OH225321   3.109   2.506   7.360
 1229TIP3    H125322   3.123   2.409   7.360
 1229TIP3    H225323   3.096   2.519   7.264
 1230TIP3   OH225324   2.414   2.314   7.082
 1230TIP3    H125325   2.429   2.396   7.031
 1230TIP3    H225326   2.379   2.256   7.012
 1231TIP3   OH225327   3.190   2.323   6.919
 1231TIP3    H125328   3.257   2.289   6.984
 1231TIP3    H225329   3.246   2.378   6.862
 1232TIP3   OH225330   2.080   2.554   7.155
 1232TIP3    H125331   2.146   2.498   7.199
 1232TIP3    H225332   2.090   2.524   7.063
 1233TIP3   OH225333   2.596   2.711   7.083
 1233TIP3    H125334   2.663   2.653   7.124
 1233TIP3    H225335   2.543   2.643   7.036
 1234TIP3   OH225336   3.693   2.362   7.627
 1234TIP3    H125337   3.631   2.438   7.617
 1234TIP3    H225338   3.697   2.353   7.723
 1235TIP3   OH225339   2.313   2.217   7.490
 1235TIP3    H125340   2.277   2.255   7.406
 1235TIP3    H225341   2.234   2.220   7.550
 1236TIP3   OH225342   3.035   3.150   6.837
 1236TIP3    H125343   3.005   3.127   6.748
 1236TIP3    H225344   3.006   3.244   6.845
 1237TIP3   OH225345   2.558   2.966   7.508
 1237TIP3    H125346   2.488   3.031   7.530
 1237TIP3    H225347   2.629   3.025   7.479
 1238TIP3   OH225348   3.373   2.257   7.117
 1238TIP3    H125349   3.350   2.179   7.169
 1238TIP3    H225350   3.440   2.300   7.172
 1239TIP3   OH225351   2.268   2.387   7.290
 1239TIP3    H125352   2.327   2.461   7.312
 1239TIP3    H225353   2.315   2.349   7.211
 1240TIP3   OH225354   2.405   3.168   7.590
 1240TIP3    H125355   2.400   3.259   7.556
 1240TIP3    H225356   2.316   3.160   7.634
 1241TIP3   OH225357   3.372   3.295   7.346
 1241TIP3    H125358   3.276   3.307   7.357
 1241TIP3    H225359   3.399   3.387   7.326
 1242TIP3   OH225360   3.405   2.124   7.484
 1242TIP3    H125361   3.333   2.188   7.474
 1242TIP3    H225362   3.477   2.166   7.432
 1243TIP3   OH225363   2.701   1.937   7.231
 1243TIP3    H125364   2.686   1.840   7.223
 1243TIP3    H225365   2.614   1.967   7.261
 1244TIP3   OH225366   3.200   3.474   7.006
 1244TIP3    H125367   3.240   3.400   6.954
 1244TIP3    H225368   3.238   3.552   6.961
 1245TIP3   OH225369   3.317   3.269   6.858
 1245TIP3    H125370   3.293   3.199   6.795
 1245TIP3    H225371   3.323   3.217   6.940
 1246TIP3   OH225372   3.482   3.124   7.704
 1246TIP3    H125373   3.497   3.065   7.629
 1246TIP3    H225374   3.500   3.211   7.663
 1247TIP3   OH225375   2.930   2.812   6.680
 1247TIP3    H125376   2.864   2.876   6.648
 1247TIP3    H225377   3.004   2.824   6.616
 1248TIP3   OH225378   3.668   2.760   7.506
 1248TIP3    H125379   3.614   2.840   7.499
 1248TIP3    H225380   3.725   2.777   7.428
 1249TIP3   OH225381   3.278   2.835   6.774
 1249TIP3    H125382   3.204   2.862   6.835
 1249TIP3    H225383   3.325   2.771   6.829
 1250TIP3   OH225384   3.280   2.665   7.680
 1250TIP3    H125385   3.258   2.736   7.742
 1250TIP3    H225386   3.205   2.680   7.618
 1251TIP3   OH225387   2.435   2.902   6.964
 1251TIP3    H125388   2.405   2.864   6.881
 1251TIP3    H225389   2.499   2.835   6.999
 1252TIP3   OH225390   2.569   3.240   7.233
 1252TIP3    H125391   2.569   3.189   7.151
 1252TIP3    H225392   2.648   3.205   7.279
 1253TIP3   OH225393   2.472   2.776   7.333
 1253TIP3    H125394   2.524   2.788   7.251
 1253TIP3    H225395   2.510   2.846   7.391
 1254TIP3   OH225396   3.113   3.335   7.403
 1254TIP3    H125397   3.082   3.400   7.467
 1254TIP3    H225398   3.088   3.250   7.445
 1255TIP3   OH225399   2.566   3.220   7.801
 1255TIP3    H125400   2.524   3.294   7.850
 1255TIP3    H225401   2.499   3.200   7.731
 1256TIP3   OH225402   3.161   2.763   6.543
 1256TIP3    H125403   3.220   2.773   6.622
 1256TIP3    H225404   3.210   2.805   6.472
 1257TIP3   OH225405   2.259   2.833   7.717
 1257TIP3    H125406   2.266   2.903   7.785
 1257TIP3    H225407   2.165   2.844   7.697
 1258TIP3   OH225408   2.939   3.429   6.887
 1258TIP3    H125409   2.980   3.459   6.970
 1258TIP3    H225410   2.878   3.502   6.866
 1259TIP3   OH225411   2.391   3.424   7.875
 1259TIP3    H125412   2.384   3.414   7.779
 1259TIP3    H225413   2.298   3.410   7.902
 1260TIP3   OH225414   2.345   2.797   6.707
 1260TIP3    H125415   2.308   2.885   6.680
 1260TIP3    H225416   2.263   2.746   6.712
 1261TIP3   OH225417   3.652   3.365   6.379
 1261TIP3    H125418   3.657   3.461   6.377
 1261TIP3    H225419   3.739   3.335   6.353
 1262TIP3   OH225420   1.943   3.048   7.618
 1262TIP3    H125421   1.899   3.040   7.531
 1262TIP3    H225422   1.952   2.953   7.638
 1263TIP3   OH225423   1.919   3.322   7.295
 1263TIP3    H125424   2.015   3.310   7.291
 1263TIP3    H225425   1.912   3.404   7.345
 1264TIP3   OH225426   3.742   3.392   7.860
 1264TIP3    H125427   3.731   3.296   7.861
 1264TIP3    H225428   3.657   3.417   7.904
 1265TIP3   OH225429   2.839   3.346   7.750
 1265TIP3    H125430   2.845   3.430   7.802
 1265TIP3    H225431   2.752   3.310   7.774
 1266TIP3   OH225432   2.888   3.720   6.730
 1266TIP3    H125433   2.867   3.712   6.637
 1266TIP3    H225434   2.884   3.817   6.747
 1267TIP3   OH225435   2.244   3.610   6.914
 1267TIP3    H125436   2.262   3.567   7.000
 1267TIP3    H225437   2.163   3.565   6.887
 1268TIP3   OH225438   3.187   3.639   6.427
 1268TIP3    H125439   3.230   3.563   6.386
 1268TIP3    H225440   3.193   3.614   6.520
 1269TIP3   OH225441   3.158   3.639   6.712
 1269TIP3    H125442   3.061   3.644   6.723
 1269TIP3    H225443   3.179   3.558   6.760
 1270TIP3   OH225444   3.461   2.540   7.904
 1270TIP3    H125445   3.402   2.579   7.838
 1270TIP3    H225446   3.456   2.446   7.882
 1271TIP3   OH225447   2.172   3.179   7.711
 1271TIP3    H125448   2.194   3.143   7.799
 1271TIP3    H225449   2.086   3.138   7.689
 1272TIP3   OH225450   2.439   2.027   7.307
 1272TIP3    H125451   2.350   2.013   7.268
 1272TIP3    H225452   2.427   2.111   7.352
 1273TIP3   OH225453   2.904   1.994   7.641
 1273TIP3    H125454   2.943   1.952   7.720
 1273TIP3    H225455   2.807   1.982   7.656
 1274TIP3   OH225456   3.236   2.382   7.733
 1274TIP3    H125457   3.177   2.355   7.808
 1274TIP3    H225458   3.210   2.471   7.708
 1275TIP3   OH225459   2.453   2.532   7.426
 1275TIP3    H125460   2.366   2.543   7.464
 1275TIP3    H225461   2.458   2.621   7.382
 1276TIP3   OH225462   2.445   2.540   6.913
 1276TIP3    H125463   2.352   2.510   6.904
 1276TIP3    H225464   2.486   2.499   6.834
 1277TIP3   OH225465   2.993   2.582   6.789
 1277TIP3    H125466   2.960   2.670   6.760
 1277TIP3    H225467   3.068   2.569   6.729
 1278TIP3   OH225468   2.904   2.607   7.937
 1278TIP3    H125469   2.852   2.530   7.968
 1278TIP3    H225470   2.987   2.596   7.986
 1279TIP3   OH225471   3.102   2.536   7.079
 1279TIP3    H125472   3.073   2.592   7.004
 1279TIP3    H225473   3.111   2.451   7.032
 1280TIP3   OH225474   2.198   2.554   7.604
 1280TIP3    H125475   2.207   2.597   7.692
 1280TIP3    H225476   2.153   2.471   7.624
 1281TIP3   OH225477   2.554   2.303   6.290
 1281TIP3    H125478   2.513   2.244   6.356
 1281TIP3    H225479   2.479   2.323   6.234
 1282TIP3   OH225480   1.880   2.258   6.993
 1282TIP3    H125481   1.947   2.256   7.064
 1282TIP3    H225482   1.928   2.222   6.919
 1283TIP3   OH225483   2.011   2.344   6.543
 1283TIP3    H125484   2.055   2.393   6.473
 1283TIP3    H225485   1.937   2.402   6.566
 1284TIP3   OH225486   3.026   2.692   7.538
 1284TIP3    H125487   3.057   2.624   7.474
 1284TIP3    H225488   2.972   2.641   7.600
 1285TIP3   OH225489   2.701   2.292   7.020
 1285TIP3    H125490   2.608   2.292   7.049
 1285TIP3    H225491   2.750   2.274   7.101
 1286TIP3   OH225492   2.186   2.450   6.899
 1286TIP3    H125493   2.095   2.461   6.865
 1286TIP3    H225494   2.212   2.362   6.867
 1287TIP3   OH225495   2.544   2.456   6.683
 1287TIP3    H125496   2.643   2.448   6.690
 1287TIP3    H225497   2.528   2.483   6.595
 1288TIP3   OH225498   3.143   2.215   7.341
 1288TIP3    H125499   3.074   2.220   7.411
 1288TIP3    H225500   3.092   2.189   7.263
 1289TIP3   OH225501   3.462   3.779   7.979
 1289TIP3    H125502   3.489   3.815   7.892
 1289TIP3    H225503   3.535   3.809   8.035
 1290TIP3   OH225504   2.231   3.025   7.933
 1290TIP3    H125505   2.301   3.051   7.996
 1290TIP3    H225506   2.152   3.033   7.990
 1291TIP3   OH225507   2.830   2.568   7.207
 1291TIP3    H125508   2.889   2.514   7.153
 1291TIP3    H225509   2.817   2.512   7.285
 1292TIP3   OH225510   2.332   2.186   6.845
 1292TIP3    H125511   2.302   2.093   6.851
 1292TIP3    H225512   2.413   2.171   6.794
 1293TIP3   OH225513   2.692   2.398   7.452
 1293TIP3    H125514   2.615   2.457   7.453
 1293TIP3    H225515   2.752   2.435   7.519
 1294TIP3   OH225516   2.753   3.016   6.616
 1294TIP3    H125517   2.670   2.975   6.588
 1294TIP3    H225518   2.732   3.039   6.710
 1295TIP3   OH225519   3.473   2.936   7.499
 1295TIP3    H125520   3.527   2.991   7.437
 1295TIP3    H225521   3.386   2.947   7.453
 1296TIP3   OH225522   3.136   2.305   6.434
 1296TIP3    H125523   3.042   2.319   6.424
 1296TIP3    H225524   3.169   2.390   6.469
 1297TIP3   OH225525   2.901   3.048   7.742
 1297TIP3    H125526   2.867   3.006   7.821
 1297TIP3    H225527   2.876   3.141   7.753
 1298TIP3   OH225528   3.212   2.494   6.606
 1298TIP3    H125529   3.302   2.481   6.642
 1298TIP3    H225530   3.216   2.574   6.550
 1299TIP3   OH225531   2.265   2.963   7.200
 1299TIP3    H125532   2.333   2.953   7.130
 1299TIP3    H225533   2.269   2.877   7.244
 1300TIP3   OH225534   2.965   3.166   6.523
 1300TIP3    H125535   2.931   3.251   6.557
 1300TIP3    H225536   2.890   3.107   6.545
 1301TIP3   OH225537   1.963   2.799   7.723
 1301TIP3    H125538   1.978   2.759   7.811
 1301TIP3    H225539   1.898   2.741   7.681
 1302TIP3   OH225540   2.662   2.755   7.941
 1302TIP3    H125541   2.634   2.728   7.853
 1302TIP3    H225542   2.756   2.727   7.943
 1303TIP3   OH225543   3.133   3.291   7.738
 1303TIP3    H125544   3.041   3.309   7.714
 1303TIP3    H225545   3.129   3.321   7.831
 1304TIP3   OH225546   3.697   2.512   6.578
 1304TIP3    H125547   3.643   2.480   6.504
 1304TIP3    H225548   3.707   2.605   6.548
 1305TIP3   OH225549   3.697   3.090   7.856
 1305TIP3    H125550   3.610   3.121   7.821
 1305TIP3    H225551   3.754   3.095   7.777
 1306TIP3   OH225552   3.533   3.391   6.621
 1306TIP3    H125553   3.489   3.310   6.648
 1306TIP3    H225554   3.554   3.373   6.526
 1307TIP3   OH225555   3.250   2.872   7.331
 1307TIP3    H125556   3.155   2.856   7.313
 1307TIP3    H225557   3.291   2.799   7.280
 1308TIP3   OH225558   2.502   3.307   6.934
 1308TIP3    H125559   2.550   3.389   6.913
 1308TIP3    H225560   2.414   3.330   6.904
 1309TIP3   OH225561   2.083   2.792   6.391
 1309TIP3    H125562   2.137   2.859   6.434
 1309TIP3    H225563   1.993   2.815   6.420
 1310TIP3   OH225564   2.641   3.074   6.886
 1310TIP3    H125565   2.611   3.166   6.896
 1310TIP3    H225566   2.571   3.026   6.934
 1311TIP3   OH225567   2.687   3.492   7.530
 1311TIP3    H125568   2.734   3.572   7.501
 1311TIP3    H225569   2.749   3.458   7.597
 1312TIP3   OH225570   2.511   3.569   6.853
 1312TIP3    H125571   2.414   3.585   6.853
 1312TIP3    H225572   2.546   3.658   6.873
 1313TIP3   OH225573   3.040   3.092   7.492
 1313TIP3    H125574   3.006   3.073   7.582
 1313TIP3    H225575   3.102   3.020   7.474
 1314TIP3   OH225576   3.270   3.192   6.401
 1314TIP3    H125577   3.302   3.149   6.483
 1314TIP3    H225578   3.175   3.185   6.411
 1315TIP3   OH225579   3.323   3.550   7.740
 1315TIP3    H125580   3.253   3.501   7.693
 1315TIP3    H225581   3.340   3.620   7.674
 1316TIP3   OH225582   2.127   2.278   7.679
 1316TIP3    H125583   2.036   2.311   7.679
 1316TIP3    H225584   2.117   2.193   7.726
 1317TIP3   OH225585   3.351   3.062   6.629
 1317TIP3    H125586   3.327   2.982   6.680
 1317TIP3    H225587   3.447   3.066   6.643
 1318TIP3   OH225588   2.089   3.453   7.522
 1318TIP3    H125589   2.120   3.362   7.523
 1318TIP3    H225590   2.115   3.483   7.610
 1319TIP3   OH225591   2.217   2.983   6.542
 1319TIP3    H125592   2.149   3.021   6.599
 1319TIP3    H225593   2.266   3.064   6.519
 1320TIP3   OH225594   3.002   2.253   7.576
 1320TIP3    H125595   3.073   2.259   7.640
 1320TIP3    H225596   2.963   2.166   7.596
 1321TIP3   OH225597   3.077   2.209   6.682
 1321TIP3    H125598   3.099   2.259   6.602
 1321TIP3    H225599   3.132   2.253   6.748
 1322TIP3   OH225600   2.791   2.394   6.763
 1322TIP3    H125601   2.877   2.441   6.770
 1322TIP3    H225602   2.773   2.369   6.856
 1323TIP3   OH225603   2.852   2.486   7.687
 1323TIP3    H125604   2.864   2.543   7.765
 1323TIP3    H225605   2.921   2.418   7.694
 1324TIP3   OH225606   2.886   2.094   6.858
 1324TIP3    H125607   2.851   2.159   6.922
 1324TIP3    H225608   2.955   2.146   6.812
 1325TIP3   OH225609   2.450   2.201   6.523
 1325TIP3    H125610   2.442   2.287   6.566
 1325TIP3    H225611   2.539   2.171   6.552
 1326TIP3   OH225612   3.472   2.273   7.769
 1326TIP3    H125613   3.378   2.303   7.757
 1326TIP3    H225614   3.501   2.270   7.677
 1327TIP3   OH225615   3.333   2.654   7.174
 1327TIP3    H125616   3.251   2.609   7.144
 1327TIP3    H225617   3.381   2.583   7.222
 1328TIP3   OH225618   2.275   3.242   6.440
 1328TIP3    H125619   2.335   3.315   6.464
 1328TIP3    H225620   2.318   3.205   6.364
 1329TIP3   OH225621   3.439   3.577   7.335
 1329TIP3    H125622   3.429   3.650   7.273
 1329TIP3    H225623   3.535   3.583   7.358
 1330TIP3   OH225624   2.185   1.992   7.217
 1330TIP3    H125625   2.170   1.991   7.120
 1330TIP3    H225626   2.145   1.906   7.243
 1331TIP3   OH225627   2.080   3.382   6.830
 1331TIP3    H125628   1.998   3.432   6.829
 1331TIP3    H225629   2.134   3.429   6.764
 1332TIP3   OH225630   2.007   3.648   7.958
 1332TIP3    H125631   2.064   3.629   8.035
 1332TIP3    H225632   1.961   3.562   7.946
 1333TIP3   OH225633   2.474   3.537   8.122
 1333TIP3    H125634   2.551   3.489   8.155
 1333TIP3    H225635   2.471   3.511   8.028
 1334TIP3   OH225636   3.120   3.379   7.996
 1334TIP3    H125637   3.091   3.290   8.023
 1334TIP3    H225638   3.200   3.391   8.052
 1335TIP3   OH225639   1.994   3.022   8.061
 1335TIP3    H125640   2.013   2.933   8.027
 1335TIP3    H225641   1.922   3.051   8.001
 1336TIP3   OH225642   2.668   3.023   7.996
 1336TIP3    H125643   2.633   3.056   7.911
 1336TIP3    H225644   2.674   2.925   7.985
 1337TIP3   OH225645   2.967   3.166   6.238
 1337TIP3    H125646   2.951   3.181   6.332
 1337TIP3    H225647   2.957   3.072   6.227
 1338TIP3   OH225648   3.239   3.009   7.737
 1338TIP3    H125649   3.314   3.071   7.733
 1338TIP3    H225650   3.167   3.074   7.743
 1339TIP3   OH225651   2.090   2.748   7.999
 1339TIP3    H125652   2.128   2.660   7.993
 1339TIP3    H225653   2.066   2.751   8.094
 1340TIP3   OH225654   2.558   2.864   6.500
 1340TIP3    H125655   2.501   2.826   6.569
 1340TIP3    H225656   2.585   2.798   6.433
 1341TIP3   OH225657   2.467   2.637   7.721
 1341TIP3    H125658   2.422   2.713   7.762
 1341TIP3    H225659   2.522   2.685   7.656
 1342TIP3   OH225660   2.986   2.900   8.076
 1342TIP3    H125661   3.080   2.896   8.057
 1342TIP3    H225662   2.969   2.820   8.129
 1343TIP3   OH225663   2.508   2.381   7.833
 1343TIP3    H125664   2.537   2.308   7.775
 1343TIP3    H225665   2.525   2.465   7.788
 1344TIP3   OH225666   2.553   2.231   7.598
 1344TIP3    H125667   2.612   2.261   7.524
 1344TIP3    H225668   2.471   2.202   7.551
 1345TIP3   OH225669   2.708   2.764   7.616
 1345TIP3    H125670   2.788   2.752   7.564
 1345TIP3    H225671   2.677   2.852   7.587
 1346TIP3   OH225672   3.151   2.541   8.115
 1346TIP3    H125673   3.174   2.447   8.108
 1346TIP3    H225674   3.238   2.583   8.118
 1347TIP3   OH225675   3.287   2.821   7.931
 1347TIP3    H125676   3.259   2.896   7.874
 1347TIP3    H225677   3.383   2.822   7.917
 1348TIP3   OH225678   2.363   2.505   8.034
 1348TIP3    H125679   2.285   2.448   8.016
 1348TIP3    H225680   2.428   2.468   7.971
 1349TIP3   OH225681   2.636   1.963   7.636
 1349TIP3    H125682   2.620   2.059   7.625
 1349TIP3    H225683   2.563   1.924   7.584
 1350TIP3   OH225684   2.764   2.396   7.998
 1350TIP3    H125685   2.733   2.373   8.088
 1350TIP3    H225686   2.687   2.374   7.944
 1351TIP3   OH225687   3.037   2.308   7.904
 1351TIP3    H125688   2.941   2.315   7.918
 1351TIP3    H225689   3.063   2.246   7.975
 1352TIP3   OH225690   3.191   2.171   8.096
 1352TIP3    H125691   3.190   2.074   8.100
 1352TIP3    H225692   3.168   2.201   8.187
 1353TIP3   OH225693   2.173   2.300   8.007
 1353TIP3    H125694   2.195   2.223   7.951
 1353TIP3    H225695   2.163   2.257   8.095
 1354TIP3   OH225696   2.659   1.901   7.905
 1354TIP3    H125697   2.726   1.829   7.903
 1354TIP3    H225698   2.648   1.916   7.809
 1355TIP3   OH225699   2.693   2.061   8.115
 1355TIP3    H125700   2.677   2.011   8.031
 1355TIP3    H225701   2.636   2.140   8.104
 1356TIP3   OH225702   1.875   3.750   6.877
 1356TIP3    H125703   1.804   3.700   6.830
 1356TIP3    H225704   1.904   3.684   6.944
 1357TIP3   OH225705   1.957   3.560   7.062
 1357TIP3    H125706   1.922   3.474   7.087
 1357TIP3    H225707   1.980   3.596   7.150
 1358TIP3   OH225708   3.707   3.650   7.356
 1358TIP3    H125709   3.715   3.658   7.453
 1358TIP3    H225710   3.785   3.700   7.329
 1359TIP3   OH225711   3.669   3.602   7.652
 1359TIP3    H125712   3.621   3.526   7.614
 1359TIP3    H225713   3.717   3.557   7.724
 1360TIP3   OH225714   3.514   3.173   8.119
 1360TIP3    H125715   3.424   3.173   8.157
 1360TIP3    H225716   3.551   3.255   8.160
 1361TIP3   OH225717   3.645   3.004   6.663
 1361TIP3    H125718   3.728   3.047   6.683
 1361TIP3    H225719   3.643   2.933   6.731
 1362TIP3   OH225720   3.681   2.816   6.849
 1362TIP3    H125721   3.606   2.766   6.887
 1362TIP3    H225722   3.740   2.828   6.926
 1363TIP3   OH225723   3.656   3.083   7.353
 1363TIP3    H125724   3.737   3.047   7.310
 1363TIP3    H225725   3.669   3.179   7.333
 1364TIP3   OH225726   3.512   3.376   7.576
 1364TIP3    H125727   3.443   3.410   7.635
 1364TIP3    H225728   3.457   3.338   7.504
 1365TIP3   OH225729   3.715   2.799   6.491
 1365TIP3    H125730   3.658   2.827   6.418
 1365TIP3    H225731   3.702   2.872   6.554
 1366TIP3   OH225732   3.461   2.663   6.907
 1366TIP3    H125733   3.449   2.567   6.905
 1366TIP3    H225734   3.430   2.684   6.997
 1367TIP3   OH225735   1.963   2.872   7.314
 1367TIP3    H125736   1.980   2.863   7.218
 1367TIP3    H225737   2.053   2.854   7.349
 1368TIP3   OH225738   3.551   2.858   7.869
 1368TIP3    H125739   3.612   2.785   7.897
 1368TIP3    H225740   3.608   2.938   7.880
 1369TIP3   OH225741   3.697   2.649   7.936
 1369TIP3    H125742   3.610   2.603   7.930
 1369TIP3    H225743   3.757   2.571   7.937
 1370TIP3   OH225744   3.430   2.420   6.756
 1370TIP3    H125745   3.460   2.327   6.766
 1370TIP3    H225746   3.510   2.460   6.717
 1371TIP3   OH225747   3.493   2.477   7.299
 1371TIP3    H125748   3.590   2.497   7.296
 1371TIP3    H225749   3.475   2.486   7.393
 1372TIP3   OH225750   3.502   2.547   7.586
 1372TIP3    H125751   3.407   2.570   7.602
 1372TIP3    H225752   3.543   2.621   7.536
 1373TIP3   OH225753   1.926   2.399   7.925
 1373TIP3    H125754   2.018   2.382   7.951
 1373TIP3    H225755   1.881   2.319   7.960
 1374TIP3   OH225756   3.729   1.953   8.109
 1374TIP3    H125757   3.764   1.885   8.049
 1374TIP3    H225758   3.738   2.034   8.056
 1375TIP3   OH225759   3.498   2.150   6.757
 1375TIP3    H125760   3.517   2.106   6.843
 1375TIP3    H225761   3.434   2.086   6.716
 1376TIP3   OH225762   2.044   2.231   7.220
 1376TIP3    H125763   2.092   2.147   7.239
 1376TIP3    H225764   2.104   2.300   7.253
 1377TIP3   OH225765   1.876   2.527   7.323
 1377TIP3    H125766   1.927   2.505   7.242
 1377TIP3    H225767   1.919   2.612   7.342
 1378TIP3   OH225768   3.679   2.164   7.946
 1378TIP3    H125769   3.585   2.192   7.943
 1378TIP3    H225770   3.682   2.109   7.866
 1379TIP3   OH225771   3.372   3.643   6.904
 1379TIP3    H125772   3.445   3.612   6.847
 1379TIP3    H225773   3.405   3.668   6.988
 1380TIP3   OH225774   1.905   2.023   7.556
 1380TIP3    H125775   1.837   1.997   7.622
 1380TIP3    H225776   1.859   2.086   7.499
 1381TIP3   OH225777   2.129   3.343   7.972
 1381TIP3    H125778   2.045   3.364   7.928
 1381TIP3    H225779   2.102   3.336   8.064
 1382TIP3   OH225780   2.418   3.443   7.599
 1382TIP3    H125781   2.386   3.530   7.572
 1382TIP3    H225782   2.511   3.451   7.568
 1383TIP3   OH225783   2.850   3.584   7.889
 1383TIP3    H125784   2.863   3.550   7.981
 1383TIP3    H225785   2.941   3.615   7.867
 1384TIP3   OH225786   3.079   3.712   7.820
 1384TIP3    H125787   3.152   3.653   7.797
 1384TIP3    H225788   3.117   3.756   7.900
 1385TIP3   OH225789   3.579   1.971   7.733
 1385TIP3    H125790   3.499   2.005   7.689
 1385TIP3    H225791   3.599   1.892   7.678
 1386TIP3   OH225792   2.161   3.766   7.598
 1386TIP3    H125793   2.088   3.816   7.558
 1386TIP3    H225794   2.130   3.747   7.688
 1387TIP3   OH225795   2.408   3.724   7.505
 1387TIP3    H125796   2.319   3.739   7.545
 1387TIP3    H225797   2.402   3.783   7.428
 1388TIP3   OH225798   2.879   3.715   7.422
 1388TIP3    H125799   2.832   3.771   7.358
 1388TIP3    H225800   2.892   3.778   7.496
 1389TIP3   OH225801   3.107   3.595   7.527
 1389TIP3    H125802   3.022   3.624   7.488
 1389TIP3    H225803   3.156   3.679   7.518
 1390TIP3   OH225804   3.365   3.752   7.547
 1390TIP3    H125805   3.360   3.849   7.526
 1390TIP3    H225806   3.387   3.715   7.460
 1391TIP3   OH225807   2.107   3.631   7.293
 1391TIP3    H125808   2.099   3.585   7.379
 1391TIP3    H225809   2.189   3.593   7.254
 1392TIP3   OH225810   2.313   3.502   7.159
 1392TIP3    H125811   2.298   3.408   7.181
 1392TIP3    H225812   2.400   3.518   7.202
 1393TIP3   OH225813   2.575   3.550   7.246
 1393TIP3    H125814   2.590   3.458   7.219
 1393TIP3    H225815   2.580   3.544   7.342
 1394TIP3   OH225816   2.920   2.115   7.160
 1394TIP3    H125817   2.852   2.051   7.187
 1394TIP3    H225818   2.975   2.062   7.101
 1395TIP3   OH225819   3.434   1.919   7.166
 1395TIP3    H125820   3.495   1.979   7.116
 1395TIP3    H225821   3.345   1.955   7.142
 1396TIP3   OH225822   3.600   2.044   6.993
 1396TIP3    H125823   3.670   1.987   6.953
 1396TIP3    H225824   3.650   2.128   7.007
 1397TIP3   OH225825   2.157   1.979   6.948
 1397TIP3    H125826   2.081   1.956   6.891
 1397TIP3    H225827   2.205   1.893   6.939
 1398TIP3   OH225828   2.602   1.973   6.925
 1398TIP3    H125829   2.693   2.005   6.914
 1398TIP3    H225830   2.602   1.947   7.016
 1399TIP3   OH225831   3.175   1.972   7.086
 1399TIP3    H125832   3.171   1.983   6.990
 1399TIP3    H225833   3.137   1.882   7.098
 1400TIP3   OH225834   3.302   1.980   6.663
 1400TIP3    H125835   3.227   2.033   6.634
 1400TIP3    H225836   3.262   1.889   6.671
 1401TIP3   OH225837   2.014   3.548   6.618
 1401TIP3    H125838   1.964   3.556   6.536
 1401TIP3    H225839   2.035   3.642   6.633
 1402TIP3   OH225840   2.710   2.176   6.612
 1402TIP3    H125841   2.744   2.114   6.679
 1402TIP3    H225842   2.731   2.260   6.656
 1403TIP3   OH225843   3.579   3.633   6.726
 1403TIP3    H125844   3.560   3.553   6.670
 1403TIP3    H225845   3.577   3.703   6.656
 1404TIP3   OH225846   2.146   2.034   7.886
 1404TIP3    H125847   2.106   1.956   7.928
 1404TIP3    H225848   2.236   2.028   7.927
 1405TIP3   OH225849   2.345   1.972   8.055
 1405TIP3    H125850   2.433   1.937   8.030
 1405TIP3    H225851   2.308   1.891   8.096
 1406TIP3   OH225852   2.212   3.647   6.316
 1406TIP3    H125853   2.177   3.673   6.402
 1406TIP3    H225854   2.288   3.593   6.335
 1407TIP3   OH225855   3.187   1.895   8.067
 1407TIP3    H125856   3.196   1.854   8.155
 1407TIP3    H225857   3.279   1.898   8.035
 1408TIP3   OH225858   3.507   3.504   7.935
 1408TIP3    H125859   3.428   3.491   7.878
 1408TIP3    H225860   3.496   3.600   7.953
 1409TIP3   OH225861   4.953   2.893   6.930
 1409TIP3    H125862   4.950   2.991   6.927
 1409TIP3    H225863   4.879   2.869   6.872
 1410TIP3   OH225864   4.837   2.817   7.279
 1410TIP3    H125865   4.836   2.753   7.351
 1410TIP3    H225866   4.802   2.766   7.205
 1411TIP3   OH225867   4.072   2.786   7.436
 1411TIP3    H125868   4.082   2.716   7.504
 1411TIP3    H225869   4.147   2.843   7.457
 1412TIP3   OH225870   5.205   3.114   7.109
 1412TIP3    H125871   5.165   3.041   7.157
 1412TIP3    H225872   5.208   3.183   7.177
 1413TIP3   OH225873   4.165   3.230   7.284
 1413TIP3    H125874   4.134   3.143   7.252
 1413TIP3    H225875   4.260   3.211   7.291
 1414TIP3   OH225876   3.831   2.588   6.827
 1414TIP3    H125877   3.784   2.673   6.829
 1414TIP3    H225878   3.771   2.533   6.775
 1415TIP3   OH225879   3.899   2.807   7.049
 1415TIP3    H125880   3.927   2.725   7.095
 1415TIP3    H225881   3.970   2.817   6.984
 1416TIP3   OH225882   4.918   3.629   7.132
 1416TIP3    H125883   4.982   3.560   7.102
 1416TIP3    H225884   4.896   3.594   7.219
 1417TIP3   OH225885   4.675   3.057   7.328
 1417TIP3    H125886   4.708   2.995   7.261
 1417TIP3    H225887   4.756   3.073   7.379
 1418TIP3   OH225888   5.534   2.224   7.399
 1418TIP3    H125889   5.552   2.282   7.476
 1418TIP3    H225890   5.591   2.266   7.333
 1419TIP3   OH225891   4.991   2.504   7.359
 1419TIP3    H125892   5.008   2.408   7.359
 1419TIP3    H225893   4.981   2.518   7.263
 1420TIP3   OH225894   4.301   2.314   7.080
 1420TIP3    H125895   4.314   2.397   7.030
 1420TIP3    H225896   4.263   2.257   7.010
 1421TIP3   OH225897   5.075   2.322   6.920
 1421TIP3    H125898   5.142   2.289   6.984
 1421TIP3    H225899   5.131   2.378   6.863
 1422TIP3   OH225900   3.965   2.554   7.154
 1422TIP3    H125901   4.032   2.500   7.199
 1422TIP3    H225902   3.976   2.523   7.063
 1423TIP3   OH225903   4.480   2.710   7.086
 1423TIP3    H125904   4.548   2.652   7.125
 1423TIP3    H225905   4.430   2.645   7.033
 1424TIP3   OH225906   5.579   2.363   7.627
 1424TIP3    H125907   5.518   2.440   7.616
 1424TIP3    H225908   5.582   2.356   7.724
 1425TIP3   OH225909   4.194   2.203   7.484
 1425TIP3    H125910   4.165   2.261   7.409
 1425TIP3    H225911   4.126   2.226   7.552
 1426TIP3   OH225912   4.922   3.151   6.840
 1426TIP3    H125913   4.891   3.126   6.752
 1426TIP3    H225914   4.892   3.245   6.844
 1427TIP3   OH225915   4.445   2.967   7.507
 1427TIP3    H125916   4.375   3.032   7.530
 1427TIP3    H225917   4.516   3.027   7.479
 1428TIP3   OH225918   5.259   2.256   7.116
 1428TIP3    H125919   5.236   2.179   7.168
 1428TIP3    H225920   5.324   2.300   7.173
 1429TIP3   OH225921   4.151   2.389   7.287
 1429TIP3    H125922   4.214   2.457   7.319
 1429TIP3    H225923   4.202   2.348   7.213
 1430TIP3   OH225924   4.290   3.168   7.590
 1430TIP3    H125925   4.285   3.259   7.556
 1430TIP3    H225926   4.202   3.160   7.634
 1431TIP3   OH225927   5.258   3.296   7.345
 1431TIP3    H125928   5.161   3.308   7.357
 1431TIP3    H225929   5.285   3.388   7.324
 1432TIP3   OH225930   5.291   2.124   7.484
 1432TIP3    H125931   5.219   2.188   7.474
 1432TIP3    H225932   5.363   2.166   7.432
 1433TIP3   OH225933   4.587   1.937   7.229
 1433TIP3    H125934   4.573   1.841   7.222
 1433TIP3    H225935   4.500   1.968   7.261
 1434TIP3   OH225936   5.085   3.473   7.004
 1434TIP3    H125937   5.127   3.403   6.951
 1434TIP3    H225938   5.128   3.553   6.965
 1435TIP3   OH225939   5.212   3.266   6.854
 1435TIP3    H125940   5.174   3.197   6.798
 1435TIP3    H225941   5.210   3.219   6.940
 1436TIP3   OH225942   5.367   3.127   7.705
 1436TIP3    H125943   5.381   3.062   7.633
 1436TIP3    H225944   5.388   3.211   7.660
 1437TIP3   OH225945   4.817   2.814   6.679
 1437TIP3    H125946   4.747   2.876   6.649
 1437TIP3    H225947   4.888   2.826   6.615
 1438TIP3   OH225948   5.556   2.758   7.509
 1438TIP3    H125949   5.490   2.831   7.513
 1438TIP3    H225950   5.606   2.782   7.429
 1439TIP3   OH225951   5.159   2.828   6.768
 1439TIP3    H125952   5.092   2.862   6.833
 1439TIP3    H225953   5.211   2.772   6.828
 1440TIP3   OH225954   5.155   2.654   7.686
 1440TIP3    H125955   5.156   2.735   7.738
 1440TIP3    H225956   5.092   2.683   7.617
 1441TIP3   OH225957   4.322   2.903   6.966
 1441TIP3    H125958   4.293   2.863   6.882
 1441TIP3    H225959   4.385   2.835   6.999
 1442TIP3   OH225960   4.455   3.241   7.233
 1442TIP3    H125961   4.454   3.189   7.151
 1442TIP3    H225962   4.533   3.205   7.279
 1443TIP3   OH225963   4.356   2.778   7.332
 1443TIP3    H125964   4.411   2.787   7.251
 1443TIP3    H225965   4.395   2.844   7.393
 1444TIP3   OH225966   4.998   3.335   7.401
 1444TIP3    H125967   4.969   3.398   7.468
 1444TIP3    H225968   4.973   3.250   7.445
 1445TIP3   OH225969   4.452   3.221   7.801
 1445TIP3    H125970   4.410   3.294   7.851
 1445TIP3    H225971   4.385   3.200   7.732
 1446TIP3   OH225972   5.046   2.761   6.538
 1446TIP3    H125973   5.098   2.772   6.623
 1446TIP3    H225974   5.099   2.804   6.472
 1447TIP3   OH225975   4.147   2.836   7.716
 1447TIP3    H125976   4.152   2.903   7.787
 1447TIP3    H225977   4.053   2.846   7.695
 1448TIP3   OH225978   4.820   3.429   6.890
 1448TIP3    H125979   4.865   3.461   6.968
 1448TIP3    H225980   4.766   3.504   6.861
 1449TIP3   OH225981   4.276   3.424   7.875
 1449TIP3    H125982   4.270   3.414   7.779
 1449TIP3    H225983   4.183   3.410   7.903
 1450TIP3   OH225984   5.420   1.927   6.534
 1450TIP3    H125985   5.324   1.940   6.555
 1450TIP3    H225986   5.438   2.008   6.486
 1451TIP3   OH225987   4.223   2.804   6.720
 1451TIP3    H125988   4.192   2.885   6.675
 1451TIP3    H225989   4.150   2.743   6.712
 1452TIP3   OH225990   3.826   3.048   7.619
 1452TIP3    H125991   3.786   3.041   7.530
 1452TIP3    H225992   3.840   2.954   7.638
 1453TIP3   OH225993   3.805   3.321   7.297
 1453TIP3    H125994   3.901   3.311   7.291
 1453TIP3    H225995   3.797   3.402   7.348
 1454TIP3   OH225996   5.628   3.391   7.860
 1454TIP3    H125997   5.615   3.295   7.862
 1454TIP3    H225998   5.543   3.417   7.903
 1455TIP3   OH225999   4.723   3.348   7.746
 1455TIP3    H126000   4.731   3.428   7.803
 1455TIP3    H226001   4.638   3.309   7.777
 1456TIP3   OH226002   4.767   3.721   6.731
 1456TIP3    H126003   4.758   3.715   6.636
 1456TIP3    H226004   4.772   3.817   6.750
 1457TIP3   OH226005   4.133   3.605   6.913
 1457TIP3    H126006   4.147   3.567   7.002
 1457TIP3    H226007   4.048   3.568   6.887
 1458TIP3   OH226008   5.039   3.639   6.711
 1458TIP3    H126009   4.943   3.640   6.728
 1458TIP3    H226010   5.067   3.563   6.764
 1459TIP3   OH226011   5.342   2.540   7.909
 1459TIP3    H126012   5.295   2.584   7.837
 1459TIP3    H226013   5.342   2.448   7.880
 1460TIP3   OH226014   4.058   3.180   7.710
 1460TIP3    H126015   4.079   3.143   7.798
 1460TIP3    H226016   3.971   3.141   7.689
 1461TIP3   OH226017   4.326   2.028   7.304
 1461TIP3    H126018   4.235   2.014   7.269
 1461TIP3    H226019   4.312   2.110   7.354
 1462TIP3   OH226020   4.790   1.993   7.641
 1462TIP3    H126021   4.829   1.951   7.720
 1462TIP3    H226022   4.693   1.982   7.656
 1463TIP3   OH226023   5.119   2.379   7.730
 1463TIP3    H126024   5.063   2.357   7.808
 1463TIP3    H226025   5.100   2.472   7.709
 1464TIP3   OH226026   4.336   2.525   7.431
 1464TIP3    H126027   4.262   2.524   7.495
 1464TIP3    H226028   4.331   2.615   7.394
 1465TIP3   OH226029   4.332   2.537   6.917
 1465TIP3    H126030   4.238   2.510   6.904
 1465TIP3    H226031   4.372   2.504   6.834
 1466TIP3   OH226032   4.881   2.584   6.793
 1466TIP3    H126033   4.844   2.668   6.759
 1466TIP3    H226034   4.953   2.567   6.730
 1467TIP3   OH226035   4.790   2.607   7.937
 1467TIP3    H126036   4.737   2.529   7.968
 1467TIP3    H226037   4.873   2.596   7.986
 1468TIP3   OH226038   4.988   2.537   7.078
 1468TIP3    H126039   4.960   2.592   7.004
 1468TIP3    H226040   4.997   2.451   7.032
 1469TIP3   OH226041   4.098   2.549   7.599
 1469TIP3    H126042   4.107   2.590   7.686
 1469TIP3    H226043   4.054   2.465   7.620
 1470TIP3   OH226044   4.440   2.296   6.291
 1470TIP3    H126045   4.394   2.243   6.357
 1470TIP3    H226046   4.368   2.316   6.230
 1471TIP3   OH226047   3.764   2.259   6.997
 1471TIP3    H126048   3.832   2.255   7.068
 1471TIP3    H226049   3.809   2.222   6.919
 1472TIP3   OH226050   4.907   2.694   7.534
 1472TIP3    H126051   4.945   2.625   7.476
 1472TIP3    H226052   4.860   2.641   7.601
 1473TIP3   OH226053   4.587   2.292   7.019
 1473TIP3    H126054   4.494   2.292   7.047
 1473TIP3    H226055   4.635   2.274   7.100
 1474TIP3   OH226056   4.070   2.449   6.897
 1474TIP3    H126057   3.977   2.458   6.867
 1474TIP3    H226058   4.096   2.360   6.867
 1475TIP3   OH226059   4.428   2.461   6.673
 1475TIP3    H126060   4.525   2.454   6.683
 1475TIP3    H226061   4.417   2.517   6.596
 1476TIP3   OH226062   5.027   2.215   7.342
 1476TIP3    H126063   4.959   2.220   7.413
 1476TIP3    H226064   4.977   2.189   7.264
 1477TIP3   OH226065   5.346   3.779   7.978
 1477TIP3    H126066   5.374   3.815   7.892
 1477TIP3    H226067   5.420   3.809   8.034
 1478TIP3   OH226068   4.117   3.025   7.932
 1478TIP3    H126069   4.187   3.050   7.995
 1478TIP3    H226070   4.038   3.033   7.990
 1479TIP3   OH226071   4.715   2.567   7.207
 1479TIP3    H126072   4.776   2.514   7.154
 1479TIP3    H226073   4.701   2.512   7.285
 1480TIP3   OH226074   4.216   2.185   6.849
 1480TIP3    H126075   4.184   2.092   6.850
 1480TIP3    H226076   4.298   2.175   6.798
 1481TIP3   OH226077   4.579   2.400   7.449
 1481TIP3    H126078   4.497   2.452   7.457
 1481TIP3    H226079   4.635   2.435   7.521
 1482TIP3   OH226080   4.640   3.017   6.619
 1482TIP3    H126081   4.557   2.977   6.586
 1482TIP3    H226082   4.617   3.037   6.712
 1483TIP3   OH226083   5.357   2.943   7.499
 1483TIP3    H126084   5.413   2.991   7.435
 1483TIP3    H226085   5.271   2.947   7.453
 1484TIP3   OH226086   5.022   2.302   6.441
 1484TIP3    H126087   4.930   2.317   6.415
 1484TIP3    H226088   5.051   2.389   6.472
 1485TIP3   OH226089   4.786   3.049   7.742
 1485TIP3    H126090   4.753   3.008   7.823
 1485TIP3    H226091   4.763   3.142   7.755
 1486TIP3   OH226092   5.096   2.499   6.604
 1486TIP3    H126093   5.185   2.481   6.641
 1486TIP3    H226094   5.105   2.577   6.548
 1487TIP3   OH226095   4.150   2.962   7.198
 1487TIP3    H126096   4.219   2.952   7.129
 1487TIP3    H226097   4.155   2.877   7.244
 1488TIP3   OH226098   4.854   3.164   6.534
 1488TIP3    H126099   4.817   3.253   6.553
 1488TIP3    H226100   4.773   3.110   6.542
 1489TIP3   OH226101   3.842   2.804   7.727
 1489TIP3    H126102   3.868   2.759   7.810
 1489TIP3    H226103   3.794   2.735   7.680
 1490TIP3   OH226104   4.549   2.757   7.942
 1490TIP3    H126105   4.518   2.728   7.856
 1490TIP3    H226106   4.642   2.726   7.942
 1491TIP3   OH226107   5.014   3.285   7.726
 1491TIP3    H126108   4.922   3.310   7.713
 1491TIP3    H226109   5.020   3.315   7.820
 1492TIP3   OH226110   5.583   3.093   7.857
 1492TIP3    H126111   5.495   3.118   7.819
 1492TIP3    H226112   5.639   3.090   7.776
 1493TIP3   OH226113   5.423   3.391   6.617
 1493TIP3    H126114   5.377   3.314   6.655
 1493TIP3    H226115   5.435   3.371   6.524
 1494TIP3   OH226116   5.135   2.874   7.327
 1494TIP3    H126117   5.041   2.854   7.317
 1494TIP3    H226118   5.178   2.798   7.283
 1495TIP3   OH226119   4.385   3.305   6.934
 1495TIP3    H126120   4.437   3.386   6.919
 1495TIP3    H226121   4.299   3.333   6.903
 1496TIP3   OH226122   4.528   3.073   6.889
 1496TIP3    H126123   4.499   3.165   6.898
 1496TIP3    H226124   4.457   3.024   6.935
 1497TIP3   OH226125   4.573   3.492   7.530
 1497TIP3    H126126   4.619   3.572   7.501
 1497TIP3    H226127   4.635   3.458   7.597
 1498TIP3   OH226128   4.396   3.572   6.843
 1498TIP3    H126129   4.300   3.584   6.859
 1498TIP3    H226130   4.432   3.656   6.877
 1499TIP3   OH226131   4.924   3.090   7.490
 1499TIP3    H126132   4.893   3.072   7.581
 1499TIP3    H226133   4.989   3.020   7.474
 1500TIP3   OH226134   5.208   3.551   7.739
 1500TIP3    H126135   5.137   3.502   7.694
 1500TIP3    H226136   5.225   3.620   7.672
 1501TIP3   OH226137   4.013   2.276   7.680
 1501TIP3    H126138   3.923   2.311   7.678
 1501TIP3    H226139   4.002   2.191   7.726
 1502TIP3   OH226140   3.974   3.453   7.522
 1502TIP3    H126141   4.006   3.362   7.523
 1502TIP3    H226142   4.001   3.483   7.610
 1503TIP3   OH226143   4.101   2.978   6.549
 1503TIP3    H126144   4.029   3.018   6.598
 1503TIP3    H226145   4.156   3.052   6.525
 1504TIP3   OH226146   4.887   2.253   7.576
 1504TIP3    H126147   4.958   2.259   7.640
 1504TIP3    H226148   4.848   2.165   7.597
 1505TIP3   OH226149   4.964   2.212   6.688
 1505TIP3    H126150   4.984   2.254   6.602
 1505TIP3    H226151   5.022   2.258   6.749
 1506TIP3   OH226152   4.735   3.434   6.572
 1506TIP3    H126153   4.646   3.474   6.570
 1506TIP3    H226154   4.783   3.470   6.497
 1507TIP3   OH226155   4.680   2.389   6.766
 1507TIP3    H126156   4.762   2.442   6.771
 1507TIP3    H226157   4.657   2.370   6.859
 1508TIP3   OH226158   4.740   2.488   7.686
 1508TIP3    H126159   4.747   2.542   7.766
 1508TIP3    H226160   4.805   2.417   7.695
 1509TIP3   OH226161   4.769   2.090   6.854
 1509TIP3    H126162   4.736   2.156   6.918
 1509TIP3    H226163   4.838   2.144   6.809
 1510TIP3   OH226164   4.462   3.531   6.568
 1510TIP3    H126165   4.482   3.612   6.518
 1510TIP3    H226166   4.442   3.564   6.658
 1511TIP3   OH226167   5.357   2.276   7.770
 1511TIP3    H126168   5.264   2.306   7.757
 1511TIP3    H226169   5.387   2.272   7.677
 1512TIP3   OH226170   5.219   2.652   7.172
 1512TIP3    H126171   5.136   2.608   7.143
 1512TIP3    H226172   5.265   2.584   7.224
 1513TIP3   OH226173   5.325   3.579   7.338
 1513TIP3    H126174   5.316   3.647   7.268
 1513TIP3    H226175   5.421   3.584   7.355
 1514TIP3   OH226176   4.074   1.991   7.219
 1514TIP3    H126177   4.055   1.993   7.122
 1514TIP3    H226178   4.033   1.905   7.244
 1515TIP3   OH226179   3.888   3.648   7.961
 1515TIP3    H126180   3.949   3.629   8.036
 1515TIP3    H226181   3.848   3.561   7.945
 1516TIP3   OH226182   4.359   3.537   8.123
 1516TIP3    H126183   4.437   3.490   8.155
 1516TIP3    H226184   4.358   3.510   8.029
 1517TIP3   OH226185   5.037   3.380   7.961
 1517TIP3    H126186   4.982   3.310   8.001
 1517TIP3    H226187   5.082   3.402   8.044
 1518TIP3   OH226188   3.881   3.024   8.062
 1518TIP3    H126189   3.899   2.934   8.029
 1518TIP3    H226190   3.809   3.052   8.002
 1519TIP3   OH226191   4.551   3.023   7.995
 1519TIP3    H126192   4.517   3.055   7.909
 1519TIP3    H226193   4.560   2.926   7.985
 1520TIP3   OH226194   5.122   3.010   7.739
 1520TIP3    H126195   5.201   3.068   7.733
 1520TIP3    H226196   5.052   3.078   7.743
 1521TIP3   OH226197   3.968   2.747   7.998
 1521TIP3    H126198   4.014   2.663   7.990
 1521TIP3    H226199   3.951   2.751   8.094
 1522TIP3   OH226200   4.438   2.857   6.504
 1522TIP3    H126201   4.394   2.805   6.572
 1522TIP3    H226202   4.468   2.794   6.437
 1523TIP3   OH226203   4.363   2.642   7.734
 1523TIP3    H126204   4.303   2.715   7.760
 1523TIP3    H226205   4.403   2.679   7.654
 1524TIP3   OH226206   4.872   2.892   8.073
 1524TIP3    H126207   4.967   2.894   8.057
 1524TIP3    H226208   4.854   2.817   8.132
 1525TIP3   OH226209   4.404   2.381   7.838
 1525TIP3    H126210   4.415   2.310   7.773
 1525TIP3    H226211   4.399   2.462   7.783
 1526TIP3   OH226212   4.444   2.218   7.596
 1526TIP3    H126213   4.495   2.265   7.525
 1526TIP3    H226214   4.355   2.211   7.555
 1527TIP3   OH226215   4.597   2.768   7.620
 1527TIP3    H126216   4.673   2.751   7.563
 1527TIP3    H226217   4.561   2.851   7.586
 1528TIP3   OH226218   5.038   2.543   8.116
 1528TIP3    H126219   5.060   2.449   8.108
 1528TIP3    H226220   5.126   2.584   8.115
 1529TIP3   OH226221   5.175   2.828   7.940
 1529TIP3    H126222   5.145   2.892   7.872
 1529TIP3    H226223   5.268   2.816   7.910
 1530TIP3   OH226224   4.252   2.504   8.035
 1530TIP3    H126225   4.173   2.449   8.015
 1530TIP3    H226226   4.314   2.469   7.968
 1531TIP3   OH226227   4.521   1.961   7.636
 1531TIP3    H126228   4.504   2.057   7.626
 1531TIP3    H226229   4.448   1.925   7.584
 1532TIP3   OH226230   4.650   2.395   7.999
 1532TIP3    H126231   4.617   2.373   8.088
 1532TIP3    H226232   4.573   2.376   7.943
 1533TIP3   OH226233   4.922   2.309   7.905
 1533TIP3    H126234   4.826   2.317   7.919
 1533TIP3    H226235   4.949   2.246   7.974
 1534TIP3   OH226236   5.077   2.172   8.096
 1534TIP3    H126237   5.075   2.074   8.100
 1534TIP3    H226238   5.054   2.201   8.187
 1535TIP3   OH226239   4.058   2.299   8.007
 1535TIP3    H126240   4.083   2.225   7.950
 1535TIP3    H226241   4.049   2.256   8.094
 1536TIP3   OH226242   4.545   1.901   7.904
 1536TIP3    H126243   4.613   1.831   7.902
 1536TIP3    H226244   4.533   1.916   7.809
 1537TIP3   OH226245   4.579   2.062   8.115
 1537TIP3    H126246   4.563   2.012   8.031
 1537TIP3    H226247   4.522   2.140   8.104
 1538TIP3   OH226248   4.531   3.755   6.436
 1538TIP3    H126249   4.625   3.769   6.441
 1538TIP3    H226250   4.502   3.816   6.367
 1539TIP3   OH226251   3.745   3.750   6.889
 1539TIP3    H126252   3.698   3.697   6.820
 1539TIP3    H226253   3.796   3.683   6.938
 1540TIP3   OH226254   3.839   3.564   7.066
 1540TIP3    H126255   3.808   3.475   7.087
 1540TIP3    H226256   3.871   3.594   7.153
 1541TIP3   OH226257   5.597   3.643   7.357
 1541TIP3    H126258   5.600   3.659   7.453
 1541TIP3    H226259   5.667   3.702   7.327
 1542TIP3   OH226260   5.554   3.603   7.652
 1542TIP3    H126261   5.507   3.526   7.614
 1542TIP3    H226262   5.603   3.558   7.723
 1543TIP3   OH226263   5.401   3.166   8.133
 1543TIP3    H126264   5.306   3.178   8.154
 1543TIP3    H226265   5.437   3.255   8.158
 1544TIP3   OH226266   5.532   3.003   6.658
 1544TIP3    H126267   5.616   3.044   6.682
 1544TIP3    H226268   5.529   2.935   6.728
 1545TIP3   OH226269   5.566   2.814   6.850
 1545TIP3    H126270   5.490   2.767   6.891
 1545TIP3    H226271   5.625   2.830   6.927
 1546TIP3   OH226272   5.542   3.084   7.350
 1546TIP3    H126273   5.623   3.047   7.311
 1546TIP3    H226274   5.556   3.180   7.333
 1547TIP3   OH226275   5.398   3.375   7.577
 1547TIP3    H126276   5.328   3.410   7.635
 1547TIP3    H226277   5.343   3.336   7.506
 1548TIP3   OH226278   5.348   2.662   6.907
 1548TIP3    H126279   5.332   2.567   6.906
 1548TIP3    H226280   5.316   2.685   6.996
 1549TIP3   OH226281   3.849   2.869   7.315
 1549TIP3    H126282   3.866   2.864   7.218
 1549TIP3    H226283   3.940   2.854   7.348
 1550TIP3   OH226284   5.434   2.860   7.884
 1550TIP3    H126285   5.495   2.783   7.887
 1550TIP3    H226286   5.495   2.936   7.873
 1551TIP3   OH226287   5.582   2.648   7.945
 1551TIP3    H126288   5.496   2.606   7.924
 1551TIP3    H226289   5.641   2.571   7.935
 1552TIP3   OH226290   5.360   2.262   6.262
 1552TIP3    H126291   5.413   2.219   6.327
 1552TIP3    H226292   5.271   2.227   6.274
 1553TIP3   OH226293   5.314   2.418   6.754
 1553TIP3    H126294   5.344   2.325   6.768
 1553TIP3    H226295   5.393   2.461   6.719
 1554TIP3   OH226296   5.379   2.475   7.298
 1554TIP3    H126297   5.475   2.498   7.297
 1554TIP3    H226298   5.360   2.489   7.392
 1555TIP3   OH226299   5.386   2.548   7.578
 1555TIP3    H126300   5.297   2.576   7.608
 1555TIP3    H226301   5.429   2.633   7.554
 1556TIP3   OH226302   3.810   2.401   7.927
 1556TIP3    H126303   3.903   2.382   7.948
 1556TIP3    H226304   3.766   2.319   7.958
 1557TIP3   OH226305   5.614   1.954   8.110
 1557TIP3    H126306   5.648   1.886   8.049
 1557TIP3    H226307   5.623   2.035   8.056
 1558TIP3   OH226308   5.379   2.150   6.759
 1558TIP3    H126309   5.402   2.107   6.844
 1558TIP3    H226310   5.319   2.084   6.717
 1559TIP3   OH226311   3.931   2.231   7.215
 1559TIP3    H126312   3.977   2.148   7.240
 1559TIP3    H226313   3.986   2.300   7.253
 1560TIP3   OH226314   3.758   2.533   7.319
 1560TIP3    H126315   3.814   2.504   7.243
 1560TIP3    H226316   3.809   2.611   7.343
 1561TIP3   OH226317   5.565   2.164   7.946
 1561TIP3    H126318   5.471   2.191   7.943
 1561TIP3    H226319   5.567   2.109   7.866
 1562TIP3   OH226320   3.794   2.161   6.726
 1562TIP3    H126321   3.699   2.175   6.715
 1562TIP3    H226322   3.835   2.202   6.650
 1563TIP3   OH226323   5.269   3.651   6.918
 1563TIP3    H126324   5.337   3.621   6.857
 1563TIP3    H226325   5.320   3.701   6.984
 1564TIP3   OH226326   3.790   2.022   7.554
 1564TIP3    H126327   3.724   2.003   7.623
 1564TIP3    H226328   3.744   2.089   7.500
 1565TIP3   OH226329   4.014   3.344   7.971
 1565TIP3    H126330   3.930   3.364   7.929
 1565TIP3    H226331   3.988   3.336   8.064
 1566TIP3   OH226332   4.304   3.443   7.599
 1566TIP3    H126333   4.272   3.530   7.572
 1566TIP3    H226334   4.397   3.451   7.568
 1567TIP3   OH226335   4.735   3.585   7.886
 1567TIP3    H126336   4.746   3.550   7.978
 1567TIP3    H226337   4.827   3.613   7.867
 1568TIP3   OH226338   4.966   3.715   7.818
 1568TIP3    H126339   5.036   3.652   7.798
 1568TIP3    H226340   5.002   3.754   7.901
 1569TIP3   OH226341   5.467   1.973   7.732
 1569TIP3    H126342   5.384   2.003   7.690
 1569TIP3    H226343   5.483   1.891   7.680
 1570TIP3   OH226344   4.046   3.766   7.597
 1570TIP3    H126345   3.973   3.816   7.559
 1570TIP3    H226346   4.016   3.747   7.688
 1571TIP3   OH226347   4.293   3.724   7.505
 1571TIP3    H126348   4.204   3.739   7.545
 1571TIP3    H226349   4.288   3.783   7.428
 1572TIP3   OH226350   4.764   3.715   7.422
 1572TIP3    H126351   4.718   3.771   7.358
 1572TIP3    H226352   4.777   3.778   7.496
 1573TIP3   OH226353   4.992   3.595   7.526
 1573TIP3    H126354   4.907   3.624   7.488
 1573TIP3    H226355   5.042   3.679   7.517
 1574TIP3   OH226356   5.251   3.753   7.546
 1574TIP3    H126357   5.246   3.849   7.524
 1574TIP3    H226358   5.273   3.715   7.459
 1575TIP3   OH226359   3.989   3.630   7.290
 1575TIP3    H126360   3.984   3.587   7.379
 1575TIP3    H226361   4.073   3.594   7.254
 1576TIP3   OH226362   4.200   3.501   7.157
 1576TIP3    H126363   4.184   3.408   7.182
 1576TIP3    H226364   4.285   3.518   7.202
 1577TIP3   OH226365   4.460   3.550   7.246
 1577TIP3    H126366   4.476   3.458   7.220
 1577TIP3    H226367   4.465   3.545   7.342
 1578TIP3   OH226368   4.806   2.115   7.160
 1578TIP3    H126369   4.738   2.051   7.188
 1578TIP3    H226370   4.860   2.062   7.101
 1579TIP3   OH226371   5.318   1.920   7.167
 1579TIP3    H126372   5.380   1.979   7.116
 1579TIP3    H226373   5.231   1.956   7.143
 1580TIP3   OH226374   5.485   2.045   6.994
 1580TIP3    H126375   5.554   1.987   6.954
 1580TIP3    H226376   5.536   2.127   7.010
 1581TIP3   OH226377   4.043   1.980   6.943
 1581TIP3    H126378   3.961   1.958   6.895
 1581TIP3    H226379   4.088   1.893   6.938
 1582TIP3   OH226380   4.491   1.967   6.923
 1582TIP3    H126381   4.579   2.008   6.916
 1582TIP3    H226382   4.487   1.949   7.017
 1583TIP3   OH226383   5.061   1.972   7.085
 1583TIP3    H126384   5.056   1.984   6.989
 1583TIP3    H226385   5.024   1.881   7.097
 1584TIP3   OH226386   5.188   1.977   6.655
 1584TIP3    H126387   5.112   2.034   6.633
 1584TIP3    H226388   5.144   1.891   6.673
 1585TIP3   OH226389   4.601   2.169   6.607
 1585TIP3    H126390   4.628   2.114   6.680
 1585TIP3    H226391   4.610   2.257   6.648
 1586TIP3   OH226392   5.474   3.633   6.715
 1586TIP3    H126393   5.440   3.554   6.667
 1586TIP3    H226394   5.458   3.706   6.654
 1587TIP3   OH226395   4.031   2.032   7.889
 1587TIP3    H126396   3.992   1.952   7.930
 1587TIP3    H226397   4.122   2.027   7.927
 1588TIP3   OH226398   4.231   1.972   8.056
 1588TIP3    H126399   4.318   1.937   8.029
 1588TIP3    H226400   4.193   1.891   8.094
 1589TIP3   OH226401   5.072   1.900   8.069
 1589TIP3    H126402   5.081   1.851   8.153
 1589TIP3    H226403   5.163   1.896   8.034
 1590TIP3   OH226404   5.395   3.506   7.930
 1590TIP3    H126405   5.312   3.489   7.880
 1590TIP3    H226406   5.380   3.599   7.954
 1591TIP3   OH226407   6.837   2.891   6.931
 1591TIP3    H126408   6.837   2.989   6.925
 1591TIP3    H226409   6.765   2.868   6.871
 1592TIP3   OH226410   6.723   2.817   7.280
 1592TIP3    H126411   6.721   2.753   7.352
 1592TIP3    H226412   6.688   2.766   7.205
 1593TIP3   OH226413   5.958   2.785   7.435
 1593TIP3    H126414   5.966   2.717   7.504
 1593TIP3    H226415   6.033   2.842   7.457
 1594TIP3   OH226416   7.092   3.109   7.112
 1594TIP3    H126417   7.050   3.039   7.161
 1594TIP3    H226418   7.099   3.179   7.178
 1595TIP3   OH226419   6.050   3.230   7.284
 1595TIP3    H126420   6.019   3.143   7.253
 1595TIP3    H226421   6.146   3.212   7.289
 1596TIP3   OH226422   5.717   2.588   6.826
 1596TIP3    H126423   5.671   2.674   6.831
 1596TIP3    H226424   5.653   2.531   6.784
 1597TIP3   OH226425   5.784   2.806   7.045
 1597TIP3    H126426   5.813   2.726   7.093
 1597TIP3    H226427   5.857   2.821   6.983
 1598TIP3   OH226428   6.807   3.630   7.135
 1598TIP3    H126429   6.869   3.560   7.102
 1598TIP3    H226430   6.781   3.592   7.218
 1599TIP3   OH226431   6.560   3.057   7.328
 1599TIP3    H126432   6.593   2.995   7.262
 1599TIP3    H226433   6.641   3.073   7.379
 1600TIP3   OH226434   6.875   2.504   7.358
 1600TIP3    H126435   6.894   2.409   7.359
 1600TIP3    H226436   6.866   2.518   7.262
 1601TIP3   OH226437   6.187   2.314   7.080
 1601TIP3    H126438   6.200   2.397   7.031
 1601TIP3    H226439   6.150   2.256   7.011
 1602TIP3   OH226440   6.963   2.324   6.921
 1602TIP3    H126441   7.031   2.291   6.985
 1602TIP3    H226442   7.015   2.378   6.859
 1603TIP3   OH226443   5.851   2.556   7.155
 1603TIP3    H126444   5.917   2.501   7.200
 1603TIP3    H226445   5.862   2.525   7.064
 1604TIP3   OH226446   6.365   2.709   7.087
 1604TIP3    H126447   6.434   2.651   7.125
 1604TIP3    H226448   6.316   2.644   7.034
 1605TIP3   OH226449   6.079   2.203   7.484
 1605TIP3    H126450   6.051   2.261   7.409
 1605TIP3    H226451   6.012   2.226   7.552
 1606TIP3   OH226452   6.805   3.151   6.840
 1606TIP3    H126453   6.783   3.126   6.749
 1606TIP3    H226454   6.777   3.245   6.844
 1607TIP3   OH226455   6.330   2.968   7.507
 1607TIP3    H126456   6.260   3.032   7.530
 1607TIP3    H226457   6.402   3.028   7.479
 1608TIP3   OH226458   7.125   2.253   7.122
 1608TIP3    H126459   7.117   2.174   7.175
 1608TIP3    H226460   7.197   2.302   7.167
 1609TIP3   OH226461   6.037   2.388   7.288
 1609TIP3    H126462   6.099   2.458   7.319
 1609TIP3    H226463   6.088   2.349   7.213
 1610TIP3   OH226464   6.175   3.168   7.590
 1610TIP3    H126465   6.171   3.259   7.556
 1610TIP3    H226466   6.087   3.160   7.634
 1611TIP3   OH226467   5.781   3.133   6.668
 1611TIP3    H126468   5.761   3.161   6.578
 1611TIP3    H226469   5.791   3.213   6.724
 1612TIP3   OH226470   7.135   3.292   7.353
 1612TIP3    H126471   7.039   3.306   7.358
 1612TIP3    H226472   7.168   3.380   7.326
 1613TIP3   OH226473   7.169   2.136   7.470
 1613TIP3    H126474   7.093   2.197   7.473
 1613TIP3    H226475   7.237   2.184   7.424
 1614TIP3   OH226476   6.473   1.937   7.232
 1614TIP3    H126477   6.459   1.840   7.223
 1614TIP3    H226478   6.385   1.967   7.261
 1615TIP3   OH226479   6.967   3.471   7.004
 1615TIP3    H126480   7.014   3.401   6.953
 1615TIP3    H226481   7.013   3.551   6.969
 1616TIP3   OH226482   7.093   3.264   6.852
 1616TIP3    H126483   7.059   3.194   6.794
 1616TIP3    H226484   7.095   3.216   6.937
 1617TIP3   OH226485   7.232   3.136   7.713
 1617TIP3    H126486   7.262   3.068   7.650
 1617TIP3    H226487   7.272   3.215   7.671
 1618TIP3   OH226488   6.703   2.820   6.683
 1618TIP3    H126489   6.633   2.876   6.644
 1618TIP3    H226490   6.773   2.822   6.614
 1619TIP3   OH226491   7.046   2.839   6.775
 1619TIP3    H126492   6.973   2.863   6.836
 1619TIP3    H226493   7.095   2.772   6.828
 1620TIP3   OH226494   7.034   2.651   7.684
 1620TIP3    H126495   7.040   2.732   7.737
 1620TIP3    H226496   6.976   2.684   7.613
 1621TIP3   OH226497   6.209   2.903   6.966
 1621TIP3    H126498   6.177   2.864   6.880
 1621TIP3    H226499   6.270   2.833   6.999
 1622TIP3   OH226500   6.341   3.242   7.233
 1622TIP3    H126501   6.340   3.189   7.152
 1622TIP3    H226502   6.419   3.205   7.279
 1623TIP3   OH226503   6.241   2.777   7.332
 1623TIP3    H126504   6.296   2.787   7.251
 1623TIP3    H226505   6.281   2.844   7.392
 1624TIP3   OH226506   6.877   3.337   7.401
 1624TIP3    H126507   6.858   3.396   7.474
 1624TIP3    H226508   6.860   3.248   7.443
 1625TIP3   OH226509   6.339   3.223   7.799
 1625TIP3    H126510   6.294   3.293   7.851
 1625TIP3    H226511   6.270   3.201   7.731
 1626TIP3   OH226512   6.932   2.761   6.541
 1626TIP3    H126513   6.987   2.775   6.621
 1626TIP3    H226514   6.978   2.808   6.471
 1627TIP3   OH226515   6.032   2.837   7.716
 1627TIP3    H126516   6.037   2.903   7.787
 1627TIP3    H226517   5.937   2.845   7.695
 1628TIP3   OH226518   6.708   3.428   6.884
 1628TIP3    H126519   6.751   3.459   6.964
 1628TIP3    H226520   6.650   3.502   6.863
 1629TIP3   OH226521   6.162   3.424   7.875
 1629TIP3    H126522   6.154   3.413   7.779
 1629TIP3    H226523   6.069   3.411   7.903
 1630TIP3   OH226524   7.286   1.924   6.526
 1630TIP3    H126525   7.195   1.945   6.557
 1630TIP3    H226526   7.312   2.004   6.481
 1631TIP3   OH226527   6.105   2.807   6.731
 1631TIP3    H126528   6.079   2.883   6.674
 1631TIP3    H226529   6.040   2.742   6.706
 1632TIP3   OH226530   5.716   3.048   7.615
 1632TIP3    H126531   5.670   3.039   7.529
 1632TIP3    H226532   5.723   2.953   7.638
 1633TIP3   OH226533   5.691   3.321   7.296
 1633TIP3    H126534   5.787   3.310   7.293
 1633TIP3    H226535   5.683   3.403   7.345
 1634TIP3   OH226536   6.608   3.351   7.746
 1634TIP3    H126537   6.615   3.428   7.808
 1634TIP3    H226538   6.525   3.308   7.774
 1635TIP3   OH226539   6.654   3.721   6.729
 1635TIP3    H126540   6.646   3.713   6.632
 1635TIP3    H226541   6.658   3.817   6.747
 1636TIP3   OH226542   6.019   3.606   6.912
 1636TIP3    H126543   6.035   3.567   7.001
 1636TIP3    H226544   5.932   3.570   6.892
 1637TIP3   OH226545   6.960   3.643   6.429
 1637TIP3    H126546   7.001   3.566   6.384
 1637TIP3    H226547   6.963   3.614   6.522
 1638TIP3   OH226548   6.929   3.633   6.706
 1638TIP3    H126549   6.834   3.640   6.723
 1638TIP3    H226550   6.954   3.559   6.764
 1639TIP3   OH226551   7.193   2.547   7.915
 1639TIP3    H126552   7.180   2.586   7.828
 1639TIP3    H226553   7.236   2.462   7.890
 1640TIP3   OH226554   5.943   3.180   7.710
 1640TIP3    H126555   5.965   3.143   7.798
 1640TIP3    H226556   5.856   3.140   7.689
 1641TIP3   OH226557   6.211   2.028   7.304
 1641TIP3    H126558   6.121   2.014   7.269
 1641TIP3    H226559   6.197   2.110   7.354
 1642TIP3   OH226560   6.675   1.993   7.641
 1642TIP3    H126561   6.715   1.951   7.720
 1642TIP3    H226562   6.578   1.982   7.656
 1643TIP3   OH226563   7.001   2.378   7.729
 1643TIP3    H126564   6.949   2.358   7.810
 1643TIP3    H226565   6.986   2.472   7.711
 1644TIP3   OH226566   6.222   2.525   7.432
 1644TIP3    H126567   6.148   2.524   7.495
 1644TIP3    H226568   6.217   2.615   7.394
 1645TIP3   OH226569   6.217   2.535   6.918
 1645TIP3    H126570   6.124   2.512   6.903
 1645TIP3    H226571   6.257   2.507   6.833
 1646TIP3   OH226572   6.770   2.584   6.791
 1646TIP3    H126573   6.732   2.669   6.759
 1646TIP3    H226574   6.842   2.568   6.727
 1647TIP3   OH226575   6.675   2.608   7.937
 1647TIP3    H126576   6.625   2.529   7.968
 1647TIP3    H226577   6.759   2.596   7.985
 1648TIP3   OH226578   6.873   2.538   7.078
 1648TIP3    H126579   6.844   2.592   7.002
 1648TIP3    H226580   6.882   2.452   7.033
 1649TIP3   OH226581   5.984   2.549   7.598
 1649TIP3    H126582   5.993   2.590   7.686
 1649TIP3    H226583   5.940   2.465   7.620
 1650TIP3   OH226584   5.651   2.258   6.996
 1650TIP3    H126585   5.716   2.254   7.070
 1650TIP3    H226586   5.699   2.221   6.921
 1651TIP3   OH226587   6.793   2.693   7.533
 1651TIP3    H126588   6.832   2.623   7.476
 1651TIP3    H226589   6.746   2.641   7.601
 1652TIP3   OH226590   6.471   2.294   7.021
 1652TIP3    H126591   6.378   2.292   7.050
 1652TIP3    H226592   6.521   2.273   7.102
 1653TIP3   OH226593   5.953   2.446   6.904
 1653TIP3    H126594   5.864   2.460   6.866
 1653TIP3    H226595   5.983   2.361   6.868
 1654TIP3   OH226596   6.313   2.458   6.673
 1654TIP3    H126597   6.411   2.451   6.687
 1654TIP3    H226598   6.301   2.522   6.602
 1655TIP3   OH226599   6.910   2.212   7.341
 1655TIP3    H126600   6.842   2.219   7.411
 1655TIP3    H226601   6.860   2.191   7.261
 1656TIP3   OH226602   7.232   3.780   7.979
 1656TIP3    H126603   7.261   3.814   7.893
 1656TIP3    H226604   7.304   3.810   8.035
 1657TIP3   OH226605   6.002   3.025   7.933
 1657TIP3    H126606   6.073   3.050   7.995
 1657TIP3    H226607   5.923   3.033   7.991
 1658TIP3   OH226608   6.601   2.567   7.207
 1658TIP3    H126609   6.662   2.513   7.154
 1658TIP3    H226610   6.586   2.512   7.285
 1659TIP3   OH226611   6.098   2.183   6.843
 1659TIP3    H126612   6.073   2.089   6.848
 1659TIP3    H226613   6.183   2.174   6.797
 1660TIP3   OH226614   6.465   2.399   7.449
 1660TIP3    H126615   6.383   2.452   7.457
 1660TIP3    H226616   6.521   2.435   7.521
 1661TIP3   OH226617   6.522   3.017   6.617
 1661TIP3    H126618   6.440   2.976   6.587
 1661TIP3    H226619   6.502   3.036   6.711
 1662TIP3   OH226620   7.228   2.948   7.499
 1662TIP3    H126621   7.292   2.966   7.427
 1662TIP3    H226622   7.145   2.945   7.447
 1663TIP3   OH226623   6.674   3.047   7.741
 1663TIP3    H126624   6.638   3.006   7.820
 1663TIP3    H226625   6.652   3.140   7.754
 1664TIP3   OH226626   6.977   2.493   6.601
 1664TIP3    H126627   7.067   2.483   6.638
 1664TIP3    H226628   6.983   2.573   6.547
 1665TIP3   OH226629   6.035   2.962   7.198
 1665TIP3    H126630   6.102   2.953   7.128
 1665TIP3    H226631   6.041   2.876   7.244
 1666TIP3   OH226632   6.735   3.167   6.527
 1666TIP3    H126633   6.701   3.254   6.557
 1666TIP3    H226634   6.658   3.108   6.541
 1667TIP3   OH226635   5.733   2.802   7.726
 1667TIP3    H126636   5.751   2.757   7.811
 1667TIP3    H226637   5.672   2.741   7.681
 1668TIP3   OH226638   6.435   2.757   7.942
 1668TIP3    H126639   6.403   2.726   7.856
 1668TIP3    H226640   6.527   2.726   7.941
 1669TIP3   OH226641   6.902   3.291   7.735
 1669TIP3    H126642   6.809   3.304   7.716
 1669TIP3    H226643   6.904   3.318   7.829
 1670TIP3   OH226644   7.242   3.375   6.610
 1670TIP3    H126645   7.256   3.294   6.660
 1670TIP3    H226646   7.311   3.373   6.543
 1671TIP3   OH226647   7.014   2.871   7.329
 1671TIP3    H126648   6.920   2.850   7.313
 1671TIP3    H226649   7.061   2.798   7.284
 1672TIP3   OH226650   6.273   3.306   6.936
 1672TIP3    H126651   6.323   3.388   6.917
 1672TIP3    H226652   6.185   3.330   6.905
 1673TIP3   OH226653   6.415   3.073   6.890
 1673TIP3    H126654   6.383   3.165   6.898
 1673TIP3    H226655   6.342   3.024   6.933
 1674TIP3   OH226656   6.458   3.495   7.536
 1674TIP3    H126657   6.503   3.567   7.491
 1674TIP3    H226658   6.520   3.451   7.597
 1675TIP3   OH226659   6.282   3.572   6.842
 1675TIP3    H126660   6.186   3.587   6.857
 1675TIP3    H226661   6.320   3.654   6.878
 1676TIP3   OH226662   6.812   3.091   7.491
 1676TIP3    H126663   6.779   3.072   7.582
 1676TIP3    H226664   6.875   3.019   7.475
 1677TIP3   OH226665   7.042   3.197   6.403
 1677TIP3    H126666   7.071   3.150   6.484
 1677TIP3    H226667   6.946   3.185   6.410
 1678TIP3   OH226668   7.085   3.555   7.740
 1678TIP3    H126669   7.025   3.498   7.691
 1678TIP3    H226670   7.114   3.619   7.672
 1679TIP3   OH226671   5.899   2.276   7.681
 1679TIP3    H126672   5.808   2.311   7.678
 1679TIP3    H226673   5.888   2.191   7.726
 1680TIP3   OH226674   7.122   3.058   6.625
 1680TIP3    H126675   7.097   2.980   6.679
 1680TIP3    H226676   7.216   3.065   6.647
 1681TIP3   OH226677   5.860   3.453   7.522
 1681TIP3    H126678   5.891   3.361   7.523
 1681TIP3    H226679   5.886   3.483   7.610
 1682TIP3   OH226680   6.337   3.259   6.493
 1682TIP3    H126681   6.360   3.209   6.571
 1682TIP3    H226682   6.342   3.352   6.523
 1683TIP3   OH226683   5.992   2.984   6.550
 1683TIP3    H126684   5.916   3.023   6.598
 1683TIP3    H226685   6.039   3.059   6.512
 1684TIP3   OH226686   6.770   2.252   7.577
 1684TIP3    H126687   6.845   2.259   7.638
 1684TIP3    H226688   6.734   2.164   7.598
 1685TIP3   OH226689   6.865   2.205   6.678
 1685TIP3    H126690   6.862   2.267   6.604
 1685TIP3    H226691   6.903   2.256   6.750
 1686TIP3   OH226692   6.616   3.423   6.563
 1686TIP3    H126693   6.533   3.474   6.575
 1686TIP3    H226694   6.670   3.479   6.506
 1687TIP3   OH226695   6.562   2.396   6.764
 1687TIP3    H126696   6.649   2.440   6.769
 1687TIP3    H226697   6.542   2.367   6.854
 1688TIP3   OH226698   6.626   2.486   7.685
 1688TIP3    H126699   6.635   2.543   7.764
 1688TIP3    H226700   6.692   2.417   7.694
 1689TIP3   OH226701   6.659   2.089   6.863
 1689TIP3    H126702   6.619   2.159   6.915
 1689TIP3    H226703   6.720   2.144   6.808
 1690TIP3   OH226704   6.359   3.535   6.570
 1690TIP3    H126705   6.363   3.615   6.516
 1690TIP3    H226706   6.328   3.564   6.658
 1691TIP3   OH226707   7.239   2.268   7.761
 1691TIP3    H126708   7.149   2.307   7.756
 1691TIP3    H226709   7.272   2.278   7.671
 1692TIP3   OH226710   7.106   2.654   7.176
 1692TIP3    H126711   7.023   2.612   7.143
 1692TIP3    H226712   7.145   2.579   7.224
 1693TIP3   OH226713   7.215   3.579   7.339
 1693TIP3    H126714   7.198   3.648   7.272
 1693TIP3    H226715   7.309   3.589   7.357
 1694TIP3   OH226716   5.958   1.992   7.217
 1694TIP3    H126717   5.939   1.992   7.120
 1694TIP3    H226718   5.918   1.906   7.243
 1695TIP3   OH226719   5.848   3.379   6.820
 1695TIP3    H126720   5.770   3.433   6.835
 1695TIP3    H226721   5.910   3.433   6.770
 1696TIP3   OH226722   5.775   3.649   7.961
 1696TIP3    H126723   5.835   3.629   8.036
 1696TIP3    H226724   5.734   3.562   7.944
 1697TIP3   OH226725   6.244   3.536   8.123
 1697TIP3    H126726   6.324   3.491   8.155
 1697TIP3    H226727   6.242   3.511   8.029
 1698TIP3   OH226728   6.895   3.378   7.992
 1698TIP3    H126729   6.863   3.292   8.024
 1698TIP3    H226730   6.972   3.393   8.052
 1699TIP3   OH226731   7.110   3.473   6.285
 1699TIP3    H126732   7.126   3.385   6.324
 1699TIP3    H226733   7.183   3.488   6.225
 1700TIP3   OH226734   5.762   3.021   8.062
 1700TIP3    H126735   5.786   2.934   8.026
 1700TIP3    H226736   5.695   3.051   7.998
 1701TIP3   OH226737   6.440   3.024   7.996
 1701TIP3    H126738   6.404   3.056   7.911
 1701TIP3    H226739   6.446   2.926   7.985
 1702TIP3   OH226740   7.005   3.007   7.734
 1702TIP3    H126741   7.084   3.066   7.731
 1702TIP3    H226742   6.939   3.077   7.744
 1703TIP3   OH226743   5.858   2.748   7.999
 1703TIP3    H126744   5.900   2.662   7.990
 1703TIP3    H226745   5.838   2.750   8.094
 1704TIP3   OH226746   6.248   2.642   7.734
 1704TIP3    H126747   6.189   2.715   7.759
 1704TIP3    H226748   6.289   2.679   7.654
 1705TIP3   OH226749   6.753   2.901   8.080
 1705TIP3    H126750   6.847   2.896   8.054
 1705TIP3    H226751   6.740   2.819   8.130
 1706TIP3   OH226752   6.290   2.381   7.838
 1706TIP3    H126753   6.301   2.310   7.773
 1706TIP3    H226754   6.285   2.462   7.783
 1707TIP3   OH226755   6.330   2.218   7.595
 1707TIP3    H126756   6.380   2.265   7.525
 1707TIP3    H226757   6.240   2.211   7.555
 1708TIP3   OH226758   6.483   2.768   7.619
 1708TIP3    H126759   6.559   2.751   7.562
 1708TIP3    H226760   6.448   2.852   7.586
 1709TIP3   OH226761   6.924   2.542   8.118
 1709TIP3    H126762   6.946   2.449   8.105
 1709TIP3    H226763   7.011   2.584   8.115
 1710TIP3   OH226764   7.052   2.824   7.933
 1710TIP3    H126765   7.031   2.896   7.871
 1710TIP3    H226766   7.148   2.819   7.915
 1711TIP3   OH226767   6.138   2.504   8.035
 1711TIP3    H126768   6.059   2.449   8.015
 1711TIP3    H226769   6.200   2.469   7.968
 1712TIP3   OH226770   6.408   1.962   7.635
 1712TIP3    H126771   6.391   2.058   7.625
 1712TIP3    H226772   6.334   1.925   7.584
 1713TIP3   OH226773   6.536   2.395   7.999
 1713TIP3    H126774   6.503   2.373   8.088
 1713TIP3    H226775   6.459   2.376   7.943
 1714TIP3   OH226776   6.806   2.310   7.906
 1714TIP3    H126777   6.709   2.314   7.920
 1714TIP3    H226778   6.836   2.247   7.973
 1715TIP3   OH226779   6.971   2.171   8.099
 1715TIP3    H126780   6.959   2.074   8.100
 1715TIP3    H226781   6.941   2.202   8.188
 1716TIP3   OH226782   5.943   2.300   8.007
 1716TIP3    H126783   5.968   2.225   7.950
 1716TIP3    H226784   5.935   2.256   8.095
 1717TIP3   OH226785   6.430   1.901   7.904
 1717TIP3    H126786   6.498   1.831   7.902
 1717TIP3    H226787   6.419   1.916   7.809
 1718TIP3   OH226788   6.464   2.061   8.115
 1718TIP3    H126789   6.448   2.011   8.031
 1718TIP3    H226790   6.407   2.140   8.104
 1719TIP3   OH226791   5.646   3.749   6.879
 1719TIP3    H126792   5.573   3.702   6.832
 1719TIP3    H226793   5.673   3.685   6.947
 1720TIP3   OH226794   5.730   3.562   7.063
 1720TIP3    H126795   5.692   3.476   7.086
 1720TIP3    H226796   5.751   3.597   7.152
 1721TIP3   OH226797   7.264   3.189   8.104
 1721TIP3    H126798   7.188   3.171   8.163
 1721TIP3    H226799   7.318   3.249   8.159
 1722TIP3   OH226800   7.281   3.367   7.581
 1722TIP3    H126801   7.215   3.412   7.636
 1722TIP3    H226802   7.228   3.334   7.506
 1723TIP3   OH226803   7.198   2.669   6.912
 1723TIP3    H126804   7.212   2.573   6.913
 1723TIP3    H226805   7.196   2.689   7.007
 1724TIP3   OH226806   5.734   2.871   7.314
 1724TIP3    H126807   5.752   2.863   7.218
 1724TIP3    H226808   5.824   2.853   7.349
 1725TIP3   OH226809  -0.033   2.862   7.903
 1725TIP3    H126810   0.026   2.785   7.905
 1725TIP3    H226811   0.023   2.935   7.873
 1726TIP3   OH226812   7.238   2.275   6.260
 1726TIP3    H126813   7.302   2.227   6.314
 1726TIP3    H226814   7.160   2.219   6.270
 1727TIP3   OH226815   7.198   2.419   6.746
 1727TIP3    H126816   7.226   2.331   6.777
 1727TIP3    H226817   7.277   2.454   6.707
 1728TIP3   OH226818   7.224   2.424   7.293
 1728TIP3    H126819   7.318   2.436   7.275
 1728TIP3    H226820   7.225   2.474   7.376
 1729TIP3   OH226821   7.269   2.549   7.590
 1729TIP3    H126822   7.179   2.579   7.610
 1729TIP3    H226823   7.310   2.626   7.546
 1730TIP3   OH226824   5.697   2.400   7.928
 1730TIP3    H126825   5.790   2.380   7.949
 1730TIP3    H226826   5.651   2.318   7.957
 1731TIP3   OH226827   7.188   2.129   6.810
 1731TIP3    H126828   7.275   2.102   6.844
 1731TIP3    H226829   7.182   2.073   6.730
 1732TIP3   OH226830   5.816   2.231   7.214
 1732TIP3    H126831   5.862   2.148   7.241
 1732TIP3    H226832   5.871   2.300   7.254
 1733TIP3   OH226833   5.644   2.531   7.318
 1733TIP3    H126834   5.701   2.506   7.242
 1733TIP3    H226835   5.691   2.611   7.345
 1734TIP3   OH226836   7.141   3.641   6.926
 1734TIP3    H126837   7.206   3.605   6.865
 1734TIP3    H226838   7.196   3.697   6.985
 1735TIP3   OH226839   5.676   2.021   7.555
 1735TIP3    H126840   5.609   2.002   7.623
 1735TIP3    H226841   5.630   2.089   7.501
 1736TIP3   OH226842   5.899   3.343   7.972
 1736TIP3    H126843   5.814   3.363   7.929
 1736TIP3    H226844   5.873   3.336   8.065
 1737TIP3   OH226845   6.189   3.442   7.601
 1737TIP3    H126846   6.156   3.528   7.572
 1737TIP3    H226847   6.280   3.448   7.567
 1738TIP3   OH226848   6.624   3.585   7.885
 1738TIP3    H126849   6.630   3.551   7.979
 1738TIP3    H226850   6.717   3.613   7.874
 1739TIP3   OH226851   6.850   3.712   7.818
 1739TIP3    H126852   6.927   3.656   7.797
 1739TIP3    H226853   6.885   3.755   7.901
 1740TIP3   OH226854   5.932   3.766   7.597
 1740TIP3    H126855   5.859   3.817   7.559
 1740TIP3    H226856   5.901   3.747   7.688
 1741TIP3   OH226857   6.180   3.725   7.505
 1741TIP3    H126858   6.090   3.738   7.544
 1741TIP3    H226859   6.172   3.783   7.428
 1742TIP3   OH226860   6.654   3.719   7.402
 1742TIP3    H126861   6.598   3.768   7.337
 1742TIP3    H226862   6.687   3.795   7.451
 1743TIP3   OH226863   6.869   3.601   7.535
 1743TIP3    H126864   6.800   3.619   7.471
 1743TIP3    H226865   6.929   3.677   7.517
 1744TIP3   OH226866   7.129   3.758   7.547
 1744TIP3    H126867   7.130   3.853   7.525
 1744TIP3    H226868   7.163   3.718   7.464
 1745TIP3   OH226869   5.879   3.631   7.292
 1745TIP3    H126870   5.870   3.585   7.378
 1745TIP3    H226871   5.960   3.593   7.254
 1746TIP3   OH226872   6.086   3.502   7.157
 1746TIP3    H126873   6.070   3.409   7.181
 1746TIP3    H226874   6.171   3.518   7.203
 1747TIP3   OH226875   6.347   3.551   7.246
 1747TIP3    H126876   6.360   3.459   7.217
 1747TIP3    H226877   6.346   3.540   7.342
 1748TIP3   OH226878   6.692   2.115   7.158
 1748TIP3    H126879   6.624   2.052   7.185
 1748TIP3    H226880   6.747   2.062   7.100
 1749TIP3   OH226881   7.207   1.919   7.168
 1749TIP3    H126882   7.261   1.984   7.121
 1749TIP3    H226883   7.117   1.953   7.146
 1750TIP3   OH226884   5.926   1.980   6.945
 1750TIP3    H126885   5.847   1.955   6.893
 1750TIP3    H226886   5.974   1.894   6.938
 1751TIP3   OH226887   6.374   1.967   6.922
 1751TIP3    H126888   6.462   2.008   6.912
 1751TIP3    H226889   6.374   1.949   7.016
 1752TIP3   OH226890   6.952   1.969   7.082
 1752TIP3    H126891   6.943   1.984   6.987
 1752TIP3    H226892   6.908   1.882   7.096
 1753TIP3   OH226893   7.065   1.969   6.644
 1753TIP3    H126894   6.994   2.036   6.640
 1753TIP3    H226895   7.019   1.886   6.674
 1754TIP3   OH226896   6.686   3.676   6.454
 1754TIP3    H126897   6.776   3.707   6.432
 1754TIP3    H226898   6.661   3.634   6.371
 1755TIP3   OH226899   5.916   2.032   7.889
 1755TIP3    H126900   5.877   1.952   7.930
 1755TIP3    H226901   6.007   2.027   7.927
 1756TIP3   OH226902   6.116   1.972   8.055
 1756TIP3    H126903   6.204   1.937   8.030
 1756TIP3    H226904   6.079   1.891   8.096
 1757TIP3   OH226905   6.959   1.901   8.068
 1757TIP3    H126906   6.966   1.852   8.152
 1757TIP3    H226907   7.050   1.896   8.031
 1758TIP3   OH226908   7.270   3.501   7.943
 1758TIP3    H126909   7.200   3.487   7.877
 1758TIP3    H226910   7.261   3.598   7.952
 1759TIP3   OH226911   1.182   4.778   6.931
 1759TIP3    H126912   1.181   4.876   6.928
 1759TIP3    H226913   1.107   4.756   6.876
 1760TIP3   OH226914   1.068   4.701   7.278
 1760TIP3    H126915   1.063   4.640   7.353
 1760TIP3    H226916   1.028   4.653   7.204
 1761TIP3   OH226917   0.305   4.670   7.432
 1761TIP3    H126918   0.310   4.602   7.503
 1761TIP3    H226919   0.378   4.728   7.457
 1762TIP3   OH226920   1.434   4.998   7.108
 1762TIP3    H126921   1.394   4.926   7.157
 1762TIP3    H226922   1.437   5.069   7.176
 1763TIP3   OH226923   0.389   5.116   7.286
 1763TIP3    H126924   0.359   5.029   7.254
 1763TIP3    H226925   0.485   5.098   7.289
 1764TIP3   OH226926   0.080   4.475   6.803
 1764TIP3    H126927   0.028   4.552   6.838
 1764TIP3    H226928   0.006   4.418   6.790
 1765TIP3   OH226929   0.127   4.688   7.042
 1765TIP3    H126930   0.155   4.612   7.096
 1765TIP3    H226931   0.201   4.703   6.983
 1766TIP3   OH226932   1.147   5.514   7.132
 1766TIP3    H126933   1.211   5.446   7.103
 1766TIP3    H226934   1.125   5.480   7.219
 1767TIP3   OH226935   0.903   4.943   7.328
 1767TIP3    H126936   0.937   4.881   7.261
 1767TIP3    H226937   0.984   4.959   7.379
 1768TIP3   OH226938   1.763   4.110   7.400
 1768TIP3    H126939   1.781   4.168   7.476
 1768TIP3    H226940   1.820   4.150   7.333
 1769TIP3   OH226941   1.234   4.412   7.371
 1769TIP3    H126942   1.263   4.322   7.389
 1769TIP3    H226943   1.226   4.427   7.275
 1770TIP3   OH226944   0.533   4.198   7.079
 1770TIP3    H126945   0.543   4.282   7.031
 1770TIP3    H226946   0.492   4.142   7.010
 1771TIP3   OH226947   1.303   4.209   6.922
 1771TIP3    H126948   1.371   4.173   6.984
 1771TIP3    H226949   1.357   4.264   6.865
 1772TIP3   OH226950   0.197   4.439   7.146
 1772TIP3    H126951   0.263   4.388   7.198
 1772TIP3    H226952   0.211   4.403   7.057
 1773TIP3   OH226953   0.713   4.596   7.084
 1773TIP3    H126954   0.776   4.537   7.127
 1773TIP3    H226955   0.658   4.530   7.035
 1774TIP3   OH226956   1.807   4.250   7.628
 1774TIP3    H126957   1.746   4.326   7.615
 1774TIP3    H226958   1.810   4.242   7.724
 1775TIP3   OH226959   0.423   4.089   7.483
 1775TIP3    H126960   0.395   4.146   7.409
 1775TIP3    H226961   0.354   4.111   7.551
 1776TIP3   OH226962   1.150   5.037   6.842
 1776TIP3    H126963   1.127   5.013   6.753
 1776TIP3    H226964   1.121   5.132   6.845
 1777TIP3   OH226965   0.675   4.853   7.508
 1777TIP3    H126966   0.603   4.916   7.530
 1777TIP3    H226967   0.745   4.914   7.478
 1778TIP3   OH226968   1.477   4.147   7.124
 1778TIP3    H126969   1.469   4.062   7.169
 1778TIP3    H226970   1.557   4.183   7.169
 1779TIP3   OH226971   0.380   4.271   7.287
 1779TIP3    H126972   0.439   4.342   7.320
 1779TIP3    H226973   0.433   4.234   7.212
 1780TIP3   OH226974   0.517   5.053   7.588
 1780TIP3    H126975   0.512   5.145   7.556
 1780TIP3    H226976   0.429   5.045   7.632
 1781TIP3   OH226977   0.119   5.022   6.670
 1781TIP3    H126978   0.099   5.047   6.578
 1781TIP3    H226979   0.134   5.104   6.719
 1782TIP3   OH226980   1.487   5.182   7.345
 1782TIP3    H126981   1.390   5.193   7.357
 1782TIP3    H226982   1.514   5.273   7.325
 1783TIP3   OH226983   1.518   4.009   7.480
 1783TIP3    H126984   1.448   4.075   7.475
 1783TIP3    H226985   1.593   4.051   7.432
 1784TIP3   OH226986   0.817   3.825   7.231
 1784TIP3    H126987   0.804   3.728   7.222
 1784TIP3    H226988   0.727   3.852   7.261
 1785TIP3   OH226989   1.315   5.361   7.007
 1785TIP3    H126990   1.357   5.289   6.955
 1785TIP3    H226991   1.356   5.439   6.964
 1786TIP3   OH226992   1.437   5.154   6.856
 1786TIP3    H126993   1.407   5.084   6.795
 1786TIP3    H226994   1.438   5.104   6.940
 1787TIP3   OH226995   1.602   5.012   7.706
 1787TIP3    H126996   1.609   4.947   7.633
 1787TIP3    H226997   1.616   5.096   7.660
 1788TIP3   OH226998   1.785   4.644   7.510
 1788TIP3    H126999   1.718   4.715   7.512
 1788TIP3    H227000   1.835   4.667   7.429
 1789TIP3   OH227001   1.389   4.721   6.773
 1789TIP3    H127002   1.319   4.748   6.836
 1789TIP3    H227003   1.440   4.659   6.828
 1790TIP3   OH227004   1.382   4.538   7.684
 1790TIP3    H127005   1.384   4.619   7.737
 1790TIP3    H227006   1.321   4.570   7.616
 1791TIP3   OH227007   0.556   4.789   6.965
 1791TIP3    H127008   0.518   4.748   6.884
 1791TIP3    H227009   0.614   4.719   7.001
 1792TIP3   OH227010   0.683   5.126   7.234
 1792TIP3    H127011   0.683   5.075   7.153
 1792TIP3    H227012   0.762   5.091   7.279
 1793TIP3   OH227013   0.586   4.663   7.331
 1793TIP3    H127014   0.641   4.673   7.251
 1793TIP3    H227015   0.623   4.730   7.393
 1794TIP3   OH227016   1.227   5.221   7.402
 1794TIP3    H127017   1.198   5.284   7.469
 1794TIP3    H227018   1.201   5.135   7.444
 1795TIP3   OH227019   0.680   5.106   7.801
 1795TIP3    H127020   0.638   5.180   7.850
 1795TIP3    H227021   0.613   5.086   7.731
 1796TIP3   OH227022   0.379   4.721   7.724
 1796TIP3    H127023   0.380   4.794   7.788
 1796TIP3    H227024   0.286   4.729   7.694
 1797TIP3   OH227025   1.049   5.315   6.884
 1797TIP3    H127026   1.092   5.344   6.965
 1797TIP3    H227027   0.994   5.391   6.863
 1798TIP3   OH227028   0.505   5.308   7.875
 1798TIP3    H127029   0.496   5.300   7.779
 1798TIP3    H227030   0.412   5.297   7.904
 1799TIP3   OH227031   1.653   3.816   6.542
 1799TIP3    H127032   1.554   3.819   6.551
 1799TIP3    H227033   1.669   3.889   6.483
 1800TIP3   OH227034   0.455   4.688   6.714
 1800TIP3    H127035   0.421   4.774   6.685
 1800TIP3    H227036   0.380   4.628   6.713
 1801TIP3   OH227037   0.101   4.924   7.594
 1801TIP3    H127038   0.029   4.929   7.529
 1801TIP3    H227039   0.074   4.840   7.635
 1802TIP3   OH227040   0.051   5.223   7.275
 1802TIP3    H127041   0.139   5.190   7.296
 1802TIP3    H227042   0.032   5.281   7.349
 1803TIP3   OH227043   1.863   5.272   7.868
 1803TIP3    H127044   1.836   5.180   7.858
 1803TIP3    H227045   1.776   5.305   7.902
 1804TIP3   OH227046   0.954   5.232   7.750
 1804TIP3    H127047   0.959   5.315   7.802
 1804TIP3    H227048   0.866   5.197   7.774
 1805TIP3   OH227049   0.996   5.605   6.725
 1805TIP3    H127050   0.986   5.600   6.628
 1805TIP3    H227051   0.997   5.701   6.742
 1806TIP3   OH227052   0.361   5.495   6.910
 1806TIP3    H127053   0.376   5.451   6.996
 1806TIP3    H227054   0.278   5.452   6.885
 1807TIP3   OH227055   1.271   5.523   6.707
 1807TIP3    H127056   1.175   5.527   6.724
 1807TIP3    H227057   1.298   5.446   6.758
 1808TIP3   OH227058   1.572   4.424   7.908
 1808TIP3    H127059   1.524   4.469   7.836
 1808TIP3    H227060   1.571   4.332   7.879
 1809TIP3   OH227061   0.288   5.071   7.713
 1809TIP3    H127062   0.304   5.030   7.800
 1809TIP3    H227063   0.203   5.028   7.685
 1810TIP3   OH227064   0.556   3.915   7.304
 1810TIP3    H127065   0.466   3.901   7.268
 1810TIP3    H227066   0.541   3.996   7.354
 1811TIP3   OH227067   1.019   3.882   7.640
 1811TIP3    H127068   1.059   3.838   7.718
 1811TIP3    H227069   0.922   3.868   7.656
 1812TIP3   OH227070   1.343   4.263   7.725
 1812TIP3    H127071   1.294   4.243   7.809
 1812TIP3    H227072   1.332   4.359   7.712
 1813TIP3   OH227073   0.987   4.138   6.381
 1813TIP3    H127074   0.952   4.130   6.471
 1813TIP3    H227075   0.955   4.054   6.346
 1814TIP3   OH227076   0.566   4.410   7.433
 1814TIP3    H127077   0.490   4.408   7.493
 1814TIP3    H227078   0.559   4.501   7.395
 1815TIP3   OH227079   0.559   4.422   6.918
 1815TIP3    H127080   0.466   4.395   6.903
 1815TIP3    H227081   0.599   4.392   6.834
 1816TIP3   OH227082   1.114   4.472   6.793
 1816TIP3    H127083   1.071   4.552   6.761
 1816TIP3    H227084   1.183   4.455   6.726
 1817TIP3   OH227085   1.017   4.494   7.939
 1817TIP3    H127086   0.970   4.413   7.969
 1817TIP3    H227087   1.102   4.483   7.984
 1818TIP3   OH227088   1.210   4.414   7.082
 1818TIP3    H127089   1.190   4.478   7.010
 1818TIP3    H227090   1.229   4.336   7.025
 1819TIP3   OH227091   0.330   4.432   7.599
 1819TIP3    H127092   0.329   4.477   7.685
 1819TIP3    H227093   0.279   4.351   7.617
 1820TIP3   OH227094   0.021   4.168   6.983
 1820TIP3    H127095   0.063   4.137   7.066
 1820TIP3    H227096   0.045   4.101   6.918
 1821TIP3   OH227097   0.121   4.228   6.531
 1821TIP3    H127098   0.169   4.284   6.470
 1821TIP3    H227099   0.046   4.284   6.551
 1822TIP3   OH227100   1.130   4.583   7.535
 1822TIP3    H127101   1.176   4.517   7.479
 1822TIP3    H227102   1.089   4.528   7.604
 1823TIP3   OH227103   0.818   4.180   7.020
 1823TIP3    H127104   0.723   4.178   7.046
 1823TIP3    H227105   0.861   4.157   7.103
 1824TIP3   OH227106   0.305   4.334   6.899
 1824TIP3    H127107   0.213   4.345   6.867
 1824TIP3    H227108   0.326   4.244   6.867
 1825TIP3   OH227109   0.658   4.345   6.674
 1825TIP3    H127110   0.755   4.341   6.684
 1825TIP3    H227111   0.643   4.400   6.597
 1826TIP3   OH227112   1.258   4.091   7.346
 1826TIP3    H127113   1.193   4.091   7.420
 1826TIP3    H227114   1.215   4.048   7.270
 1827TIP3   OH227115   1.576   5.665   7.978
 1827TIP3    H127116   1.603   5.701   7.892
 1827TIP3    H227117   1.648   5.696   8.034
 1828TIP3   OH227118   0.347   4.911   7.930
 1828TIP3    H127119   0.415   4.938   7.994
 1828TIP3    H227120   0.268   4.921   7.988
 1829TIP3   OH227121   0.949   4.453   7.210
 1829TIP3    H127122   0.997   4.399   7.148
 1829TIP3    H227123   0.922   4.399   7.285
 1830TIP3   OH227124   0.446   4.071   6.848
 1830TIP3    H127125   0.414   3.979   6.849
 1830TIP3    H227126   0.524   4.059   6.793
 1831TIP3   OH227127   0.813   4.288   7.445
 1831TIP3    H127128   0.727   4.335   7.455
 1831TIP3    H227129   0.862   4.321   7.522
 1832TIP3   OH227130   1.586   4.828   7.498
 1832TIP3    H127131   1.642   4.876   7.435
 1832TIP3    H227132   1.500   4.833   7.452
 1833TIP3   OH227133   1.016   4.934   7.742
 1833TIP3    H127134   0.981   4.892   7.821
 1833TIP3    H227135   0.991   5.027   7.753
 1834TIP3   OH227136   1.327   4.380   6.608
 1834TIP3    H127137   1.418   4.375   6.637
 1834TIP3    H227138   1.329   4.456   6.548
 1835TIP3   OH227139   0.381   4.849   7.198
 1835TIP3    H127140   0.446   4.839   7.126
 1835TIP3    H227141   0.385   4.763   7.244
 1836TIP3   OH227142   0.102   4.664   7.698
 1836TIP3    H127143   0.110   4.643   7.792
 1836TIP3    H227144   0.016   4.625   7.676
 1837TIP3   OH227145   0.774   4.624   7.948
 1837TIP3    H127146   0.749   4.620   7.853
 1837TIP3    H227147   0.872   4.616   7.941
 1838TIP3   OH227148   1.247   5.177   7.738
 1838TIP3    H127149   1.155   5.195   7.714
 1838TIP3    H227150   1.243   5.206   7.831
 1839TIP3   OH227151   1.820   4.988   7.855
 1839TIP3    H127152   1.725   5.002   7.824
 1839TIP3    H227153   1.863   4.972   7.768
 1840TIP3   OH227154   1.643   5.277   6.617
 1840TIP3    H127155   1.607   5.195   6.651
 1840TIP3    H227156   1.666   5.257   6.526
 1841TIP3   OH227157   1.364   4.758   7.328
 1841TIP3    H127158   1.270   4.740   7.314
 1841TIP3    H227159   1.408   4.684   7.282
 1842TIP3   OH227160   0.614   5.192   6.937
 1842TIP3    H127161   0.665   5.272   6.916
 1842TIP3    H227162   0.526   5.217   6.904
 1843TIP3   OH227163   0.758   4.959   6.890
 1843TIP3    H127164   0.726   5.051   6.899
 1843TIP3    H227165   0.685   4.910   6.933
 1844TIP3   OH227166   0.803   5.377   7.530
 1844TIP3    H127167   0.848   5.458   7.501
 1844TIP3    H227168   0.864   5.343   7.597
 1845TIP3   OH227169   0.624   5.458   6.845
 1845TIP3    H127170   0.528   5.475   6.855
 1845TIP3    H227171   0.662   5.543   6.875
 1846TIP3   OH227172   1.154   4.980   7.492
 1846TIP3    H127173   1.122   4.957   7.582
 1846TIP3    H227174   1.218   4.908   7.474
 1847TIP3   OH227175   1.437   5.435   7.740
 1847TIP3    H127176   1.367   5.387   7.692
 1847TIP3    H227177   1.454   5.506   7.674
 1848TIP3   OH227178   0.243   4.160   7.675
 1848TIP3    H127179   0.154   4.197   7.681
 1848TIP3    H227180   0.232   4.076   7.724
 1849TIP3   OH227181   1.467   4.950   6.632
 1849TIP3    H127182   1.444   4.866   6.676
 1849TIP3    H227183   1.563   4.952   6.642
 1850TIP3   OH227184   0.208   5.343   7.518
 1850TIP3    H127185   0.230   5.248   7.521
 1850TIP3    H227186   0.227   5.367   7.609
 1851TIP3   OH227187   0.796   5.196   6.245
 1851TIP3    H127188   0.815   5.117   6.192
 1851TIP3    H227189   0.759   5.157   6.327
 1852TIP3   OH227190   0.680   5.141   6.494
 1852TIP3    H127191   0.700   5.098   6.577
 1852TIP3    H227192   0.682   5.237   6.520
 1853TIP3   OH227193   1.119   4.137   7.569
 1853TIP3    H127194   1.186   4.146   7.639
 1853TIP3    H227195   1.076   4.053   7.597
 1854TIP3   OH227196   1.193   4.096   6.680
 1854TIP3    H127197   1.209   4.149   6.602
 1854TIP3    H227198   1.247   4.140   6.746
 1855TIP3   OH227199   0.958   5.312   6.565
 1855TIP3    H127200   0.877   5.366   6.573
 1855TIP3    H227201   1.011   5.364   6.505
 1856TIP3   OH227202   0.909   4.277   6.763
 1856TIP3    H127203   0.991   4.328   6.770
 1856TIP3    H227204   0.884   4.256   6.855
 1857TIP3   OH227205   0.968   4.371   7.687
 1857TIP3    H127206   0.979   4.430   7.764
 1857TIP3    H227207   1.036   4.303   7.697
 1858TIP3   OH227208   0.997   3.977   6.859
 1858TIP3    H127209   0.963   4.043   6.921
 1858TIP3    H227210   1.064   4.031   6.810
 1859TIP3   OH227211   0.699   5.414   6.571
 1859TIP3    H127212   0.709   5.495   6.516
 1859TIP3    H227213   0.669   5.451   6.656
 1860TIP3   OH227214   0.565   4.084   6.537
 1860TIP3    H127215   0.559   4.177   6.560
 1860TIP3    H227216   0.658   4.063   6.552
 1861TIP3   OH227217   1.585   4.161   7.771
 1861TIP3    H127218   1.493   4.191   7.757
 1861TIP3    H227219   1.616   4.158   7.678
 1862TIP3   OH227220   1.447   4.538   7.174
 1862TIP3    H127221   1.367   4.494   7.142
 1862TIP3    H227222   1.499   4.470   7.223
 1863TIP3   OH227223   1.554   5.465   7.338
 1863TIP3    H127224   1.545   5.533   7.268
 1863TIP3    H227225   1.650   5.470   7.355
 1864TIP3   OH227226   0.300   3.878   7.217
 1864TIP3    H127227   0.284   3.877   7.120
 1864TIP3    H227228   0.261   3.791   7.244
 1865TIP3   OH227229   0.200   5.269   6.831
 1865TIP3    H127230   0.114   5.312   6.827
 1865TIP3    H227231   0.248   5.318   6.764
 1866TIP3   OH227232   0.137   5.534   7.958
 1866TIP3    H127233   0.186   5.511   8.039
 1866TIP3    H227234   0.082   5.454   7.947
 1867TIP3   OH227235   0.588   5.423   8.122
 1867TIP3    H127236   0.665   5.375   8.154
 1867TIP3    H227237   0.584   5.395   8.028
 1868TIP3   OH227238   1.004   5.373   6.272
 1868TIP3    H127239   0.927   5.314   6.284
 1868TIP3    H227240   1.071   5.315   6.236
 1869TIP3   OH227241   1.235   5.265   7.996
 1869TIP3    H127242   1.205   5.176   8.023
 1869TIP3    H227243   1.314   5.277   8.053
 1870TIP3   OH227244   0.125   4.910   8.059
 1870TIP3    H127245   0.128   4.817   8.031
 1870TIP3    H227246   0.042   4.940   8.017
 1871TIP3   OH227247   0.781   4.907   7.996
 1871TIP3    H127248   0.748   4.943   7.912
 1871TIP3    H227249   0.790   4.812   7.984
 1872TIP3   OH227250   1.351   4.896   7.739
 1872TIP3    H127251   1.430   4.954   7.733
 1872TIP3    H227252   1.281   4.963   7.743
 1873TIP3   OH227253   0.196   4.632   7.998
 1873TIP3    H127254   0.243   4.547   7.991
 1873TIP3    H227255   0.182   4.637   8.095
 1874TIP3   OH227256   0.594   4.530   7.741
 1874TIP3    H127257   0.527   4.600   7.757
 1874TIP3    H227258   0.630   4.562   7.656
 1875TIP3   OH227259   1.098   4.784   8.076
 1875TIP3    H127260   1.193   4.781   8.055
 1875TIP3    H227261   1.085   4.706   8.131
 1876TIP3   OH227262   0.635   4.268   7.834
 1876TIP3    H127263   0.643   4.192   7.771
 1876TIP3    H227264   0.624   4.343   7.772
 1877TIP3   OH227265   0.672   4.108   7.598
 1877TIP3    H127266   0.723   4.149   7.524
 1877TIP3    H227267   0.584   4.095   7.555
 1878TIP3   OH227268   0.826   4.652   7.621
 1878TIP3    H127269   0.902   4.638   7.563
 1878TIP3    H227270   0.789   4.736   7.586
 1879TIP3   OH227271   1.266   4.427   8.114
 1879TIP3    H127272   1.288   4.333   8.108
 1879TIP3    H227273   1.353   4.470   8.117
 1880TIP3   OH227274   1.399   4.708   7.933
 1880TIP3    H127275   1.374   4.780   7.871
 1880TIP3    H227276   1.495   4.704   7.913
 1881TIP3   OH227277   0.453   4.392   8.031
 1881TIP3    H127278   0.374   4.331   8.024
 1881TIP3    H227279   0.501   4.352   7.958
 1882TIP3   OH227280   0.751   3.847   7.636
 1882TIP3    H127281   0.734   3.943   7.625
 1882TIP3    H227282   0.677   3.810   7.584
 1883TIP3   OH227283   0.868   4.292   8.002
 1883TIP3    H127284   0.854   4.248   8.089
 1883TIP3    H227285   0.809   4.245   7.939
 1884TIP3   OH227286   1.151   4.196   7.906
 1884TIP3    H127287   1.055   4.198   7.918
 1884TIP3    H227288   1.180   4.131   7.974
 1885TIP3   OH227289   1.300   4.057   8.093
 1885TIP3    H127290   1.307   3.960   8.101
 1885TIP3    H227291   1.285   4.086   8.187
 1886TIP3   OH227292   0.297   4.182   8.008
 1886TIP3    H127293   0.309   4.107   7.948
 1886TIP3    H227294   0.277   4.138   8.094
 1887TIP3   OH227295   0.773   3.787   7.905
 1887TIP3    H127296   0.840   3.715   7.904
 1887TIP3    H227297   0.763   3.801   7.809
 1888TIP3   OH227298   0.809   3.949   8.113
 1888TIP3    H127299   0.793   3.893   8.032
 1888TIP3    H227300   0.747   4.022   8.104
 1889TIP3   OH227301   0.756   5.645   6.436
 1889TIP3    H127302   0.853   5.648   6.436
 1889TIP3    H227303   0.736   5.702   6.359
 1890TIP3   OH227304   0.120   5.093   6.388
 1890TIP3    H127305   0.214   5.112   6.399
 1890TIP3    H227306   0.115   5.034   6.311
 1891TIP3   OH227307   7.358   5.647   6.870
 1891TIP3    H127308   7.274   5.621   6.829
 1891TIP3    H227309   7.370   5.579   6.940
 1892TIP3   OH227310   0.066   5.453   7.060
 1892TIP3    H127311   0.038   5.362   7.083
 1892TIP3    H227312   0.096   5.483   7.147
 1893TIP3   OH227313   1.826   5.529   7.357
 1893TIP3    H127314   1.829   5.545   7.453
 1893TIP3    H227315   1.896   5.587   7.327
 1894TIP3   OH227316   1.784   5.488   7.653
 1894TIP3    H127317   1.735   5.413   7.613
 1894TIP3    H227318   1.831   5.444   7.724
 1895TIP3   OH227319   1.631   5.056   8.123
 1895TIP3    H127320   1.538   5.058   8.155
 1895TIP3    H227321   1.662   5.141   8.159
 1896TIP3   OH227322   1.800   4.695   6.848
 1896TIP3    H127323   1.720   4.655   6.888
 1896TIP3    H227324   1.854   4.718   6.926
 1897TIP3   OH227325   1.770   4.970   7.349
 1897TIP3    H127326   1.851   4.932   7.311
 1897TIP3    H227327   1.785   5.066   7.332
 1898TIP3   OH227328   1.628   5.261   7.577
 1898TIP3    H127329   1.558   5.296   7.635
 1898TIP3    H227330   1.573   5.221   7.506
 1899TIP3   OH227331   1.575   4.546   6.905
 1899TIP3    H127332   1.563   4.452   6.909
 1899TIP3    H227333   1.548   4.574   6.995
 1900TIP3   OH227334   0.075   4.755   7.312
 1900TIP3    H127335   0.094   4.751   7.215
 1900TIP3    H227336   0.164   4.742   7.350
 1901TIP3   OH227337   1.663   4.746   7.880
 1901TIP3    H127338   1.724   4.669   7.889
 1901TIP3    H227339   1.723   4.822   7.875
 1902TIP3   OH227340   1.813   4.534   7.946
 1902TIP3    H127341   1.725   4.494   7.926
 1902TIP3    H227342   1.870   4.456   7.935
 1903TIP3   OH227343   1.606   4.361   7.300
 1903TIP3    H127344   1.703   4.383   7.296
 1903TIP3    H227345   1.591   4.376   7.395
 1904TIP3   OH227346   1.613   4.432   7.573
 1904TIP3    H127347   1.527   4.463   7.610
 1904TIP3    H227348   1.658   4.518   7.552
 1905TIP3   OH227349   0.059   4.280   7.930
 1905TIP3    H127350   0.149   4.255   7.956
 1905TIP3    H227351   0.002   4.208   7.964
 1906TIP3   OH227352   1.846   3.840   8.109
 1906TIP3    H127353   1.878   3.772   8.048
 1906TIP3    H227354   1.852   3.921   8.056
 1907TIP3   OH227355   0.153   4.111   7.218
 1907TIP3    H127356   0.207   4.032   7.240
 1907TIP3    H227357   0.210   4.182   7.254
 1908TIP3   OH227358   0.060   4.467   7.360
 1908TIP3    H127359   0.068   4.433   7.269
 1908TIP3    H227360   0.038   4.558   7.335
 1909TIP3   OH227361   1.793   4.050   7.946
 1909TIP3    H127362   1.699   4.077   7.943
 1909TIP3    H227363   1.796   3.994   7.866
 1910TIP3   OH227364   7.414   4.060   6.715
 1910TIP3    H127365   7.317   4.054   6.704
 1910TIP3    H227366   7.437   4.103   6.630
 1911TIP3   OH227367   1.499   5.536   6.919
 1911TIP3    H127368   1.567   5.507   6.855
 1911TIP3    H227369   1.550   5.587   6.983
 1912TIP3   OH227370   7.378   3.903   7.567
 1912TIP3    H127371   7.304   3.883   7.625
 1912TIP3    H227372   7.328   3.961   7.506
 1913TIP3   OH227373   0.245   5.232   7.974
 1913TIP3    H127374   0.160   5.248   7.930
 1913TIP3    H227375   0.217   5.218   8.065
 1914TIP3   OH227376   0.534   5.330   7.601
 1914TIP3    H127377   0.496   5.414   7.572
 1914TIP3    H227378   0.626   5.338   7.568
 1915TIP3   OH227379   0.964   5.469   7.889
 1915TIP3    H127380   0.977   5.435   7.981
 1915TIP3    H227381   1.055   5.500   7.867
 1916TIP3   OH227382   1.194   5.597   7.820
 1916TIP3    H127383   1.267   5.539   7.797
 1916TIP3    H227384   1.231   5.641   7.900
 1917TIP3   OH227385   1.696   3.859   7.731
 1917TIP3    H127386   1.613   3.888   7.690
 1917TIP3    H227387   1.712   3.776   7.680
 1918TIP3   OH227388   0.277   5.652   7.602
 1918TIP3    H127389   0.202   5.699   7.560
 1918TIP3    H227390   0.241   5.632   7.689
 1919TIP3   OH227391   0.524   5.613   7.507
 1919TIP3    H127392   0.434   5.625   7.546
 1919TIP3    H227393   0.517   5.667   7.427
 1920TIP3   OH227394   0.993   5.601   7.423
 1920TIP3    H127395   0.947   5.657   7.358
 1920TIP3    H227396   1.006   5.664   7.497
 1921TIP3   OH227397   1.221   5.481   7.526
 1921TIP3    H127398   1.136   5.509   7.488
 1921TIP3    H227399   1.270   5.564   7.516
 1922TIP3   OH227400   1.480   5.638   7.547
 1922TIP3    H127401   1.475   5.734   7.525
 1922TIP3    H227402   1.502   5.601   7.460
 1923TIP3   OH227403   0.220   5.517   7.290
 1923TIP3    H127404   0.215   5.474   7.378
 1923TIP3    H227405   0.301   5.477   7.253
 1924TIP3   OH227406   0.429   5.386   7.156
 1924TIP3    H127407   0.411   5.294   7.182
 1924TIP3    H227408   0.514   5.403   7.203
 1925TIP3   OH227409   0.690   5.437   7.246
 1925TIP3    H127410   0.704   5.344   7.219
 1925TIP3    H227411   0.694   5.430   7.342
 1926TIP3   OH227412   1.040   4.005   7.163
 1926TIP3    H127413   0.969   3.941   7.187
 1926TIP3    H227414   1.089   3.948   7.100
 1927TIP3   OH227415   1.547   3.808   7.168
 1927TIP3    H127416   1.609   3.864   7.116
 1927TIP3    H227417   1.459   3.841   7.142
 1928TIP3   OH227418   1.716   3.932   6.994
 1928TIP3    H127419   1.783   3.873   6.952
 1928TIP3    H227420   1.766   4.015   7.006
 1929TIP3   OH227421   0.270   3.860   6.947
 1929TIP3    H127422   0.193   3.845   6.888
 1929TIP3    H227423   0.321   3.778   6.934
 1930TIP3   OH227424   0.719   3.856   6.922
 1930TIP3    H127425   0.808   3.891   6.915
 1930TIP3    H227426   0.716   3.833   7.014
 1931TIP3   OH227427   1.286   3.862   7.085
 1931TIP3    H127428   1.287   3.866   6.989
 1931TIP3    H227429   1.253   3.769   7.099
 1932TIP3   OH227430   1.417   3.863   6.649
 1932TIP3    H127431   1.339   3.919   6.639
 1932TIP3    H227432   1.376   3.777   6.676
 1933TIP3   OH227433   0.154   5.445   6.609
 1933TIP3    H127434   0.078   5.436   6.549
 1933TIP3    H227435   0.144   5.538   6.631
 1934TIP3   OH227436   0.840   4.059   6.607
 1934TIP3    H127437   0.858   4.000   6.682
 1934TIP3    H227438   0.839   4.145   6.654
 1935TIP3   OH227439   1.027   5.567   6.451
 1935TIP3    H127440   1.118   5.591   6.432
 1935TIP3    H227441   1.006   5.513   6.371
 1936TIP3   OH227442   1.696   5.517   6.724
 1936TIP3    H127443   1.678   5.439   6.667
 1936TIP3    H227444   1.693   5.588   6.656
 1937TIP3   OH227445   0.251   3.920   7.895
 1937TIP3    H127446   0.218   3.835   7.929
 1937TIP3    H227447   0.345   3.913   7.925
 1938TIP3   OH227448   0.462   3.859   8.057
 1938TIP3    H127449   0.548   3.822   8.028
 1938TIP3    H227450   0.420   3.778   8.093
 1939TIP3   OH227451   1.302   3.783   8.068
 1939TIP3    H127452   1.311   3.739   8.155
 1939TIP3    H227453   1.394   3.782   8.036
 1940TIP3   OH227454   1.625   5.388   7.933
 1940TIP3    H127455   1.544   5.375   7.878
 1940TIP3    H227456   1.612   5.483   7.953
 1941TIP3   OH227457   3.066   4.779   6.928
 1941TIP3    H127458   3.064   4.877   6.925
 1941TIP3    H227459   2.993   4.755   6.869
 1942TIP3   OH227460   2.952   4.703   7.280
 1942TIP3    H127461   2.950   4.638   7.352
 1942TIP3    H227462   2.916   4.653   7.204
 1943TIP3   OH227463   2.187   4.671   7.434
 1943TIP3    H127464   2.195   4.602   7.503
 1943TIP3    H227465   2.262   4.728   7.457
 1944TIP3   OH227466   3.320   4.997   7.109
 1944TIP3    H127467   3.278   4.926   7.158
 1944TIP3    H227468   3.323   5.069   7.175
 1945TIP3   OH227469   2.279   5.116   7.284
 1945TIP3    H127470   2.248   5.029   7.252
 1945TIP3    H227471   2.375   5.098   7.289
 1946TIP3   OH227472   1.945   4.471   6.826
 1946TIP3    H127473   1.903   4.561   6.830
 1946TIP3    H227474   1.879   4.419   6.783
 1947TIP3   OH227475   2.015   4.693   7.049
 1947TIP3    H127476   2.043   4.610   7.093
 1947TIP3    H227477   2.083   4.706   6.981
 1948TIP3   OH227478   3.033   5.515   7.131
 1948TIP3    H127479   3.097   5.445   7.102
 1948TIP3    H227480   3.010   5.480   7.218
 1949TIP3   OH227481   2.789   4.943   7.328
 1949TIP3    H127482   2.822   4.881   7.260
 1949TIP3    H227483   2.870   4.959   7.378
 1950TIP3   OH227484   3.648   4.109   7.397
 1950TIP3    H127485   3.666   4.166   7.475
 1950TIP3    H227486   3.707   4.152   7.334
 1951TIP3   OH227487   3.106   4.389   7.359
 1951TIP3    H127488   3.123   4.293   7.359
 1951TIP3    H227489   3.095   4.404   7.263
 1952TIP3   OH227490   2.416   4.198   7.080
 1952TIP3    H127491   2.428   4.282   7.031
 1952TIP3    H227492   2.377   4.142   7.009
 1953TIP3   OH227493   3.193   4.203   6.915
 1953TIP3    H127494   3.257   4.178   6.985
 1953TIP3    H227495   3.247   4.265   6.863
 1954TIP3   OH227496   2.080   4.441   7.153
 1954TIP3    H127497   2.146   4.385   7.199
 1954TIP3    H227498   2.090   4.409   7.062
 1955TIP3   OH227499   2.595   4.596   7.086
 1955TIP3    H127500   2.663   4.538   7.125
 1955TIP3    H227501   2.544   4.530   7.035
 1956TIP3   OH227502   3.692   4.249   7.627
 1956TIP3    H127503   3.633   4.326   7.616
 1956TIP3    H227504   3.696   4.242   7.723
 1957TIP3   OH227505   2.308   4.089   7.484
 1957TIP3    H127506   2.280   4.146   7.409
 1957TIP3    H227507   2.241   4.112   7.552
 1958TIP3   OH227508   3.038   5.038   6.842
 1958TIP3    H127509   3.011   5.011   6.754
 1958TIP3    H227510   3.005   5.130   6.844
 1959TIP3   OH227511   2.560   4.853   7.507
 1959TIP3    H127512   2.490   4.917   7.530
 1959TIP3    H227513   2.630   4.913   7.478
 1960TIP3   OH227514   3.376   4.139   7.116
 1960TIP3    H127515   3.347   4.068   7.174
 1960TIP3    H227516   3.436   4.189   7.174
 1961TIP3   OH227517   2.265   4.274   7.288
 1961TIP3    H127518   2.328   4.343   7.319
 1961TIP3    H227519   2.317   4.234   7.213
 1962TIP3   OH227520   2.403   5.054   7.592
 1962TIP3    H127521   2.400   5.145   7.555
 1962TIP3    H227522   2.314   5.046   7.631
 1963TIP3   OH227523   3.373   5.182   7.345
 1963TIP3    H127524   3.276   5.193   7.357
 1963TIP3    H227525   3.400   5.273   7.324
 1964TIP3   OH227526   3.403   4.008   7.478
 1964TIP3    H127527   3.333   4.074   7.474
 1964TIP3    H227528   3.477   4.054   7.433
 1965TIP3   OH227529   2.701   3.822   7.230
 1965TIP3    H127530   2.687   3.726   7.223
 1965TIP3    H227531   2.614   3.853   7.261
 1966TIP3   OH227532   3.202   5.360   7.008
 1966TIP3    H127533   3.242   5.288   6.954
 1966TIP3    H227534   3.242   5.439   6.966
 1967TIP3   OH227535   3.322   5.154   6.854
 1967TIP3    H127536   3.292   5.083   6.794
 1967TIP3    H227537   3.324   5.105   6.938
 1968TIP3   OH227538   3.481   5.013   7.705
 1968TIP3    H127539   3.496   4.947   7.633
 1968TIP3    H227540   3.503   5.097   7.660
 1969TIP3   OH227541   2.931   4.705   6.681
 1969TIP3    H127542   2.863   4.759   6.640
 1969TIP3    H227543   3.000   4.709   6.611
 1970TIP3   OH227544   2.938   4.543   6.397
 1970TIP3    H127545   3.017   4.556   6.449
 1970TIP3    H227546   2.968   4.490   6.323
 1971TIP3   OH227547   3.671   4.644   7.509
 1971TIP3    H127548   3.605   4.716   7.513
 1971TIP3    H227549   3.720   4.667   7.429
 1972TIP3   OH227550   3.276   4.721   6.773
 1972TIP3    H127551   3.203   4.747   6.834
 1972TIP3    H227552   3.325   4.656   6.826
 1973TIP3   OH227553   3.269   4.539   7.685
 1973TIP3    H127554   3.270   4.621   7.737
 1973TIP3    H227555   3.206   4.568   7.616
 1974TIP3   OH227556   2.436   4.788   6.966
 1974TIP3    H127557   2.404   4.748   6.884
 1974TIP3    H227558   2.499   4.721   7.000
 1975TIP3   OH227559   2.568   5.127   7.236
 1975TIP3    H127560   2.568   5.076   7.153
 1975TIP3    H227561   2.648   5.091   7.279
 1976TIP3   OH227562   2.470   4.663   7.332
 1976TIP3    H127563   2.526   4.672   7.253
 1976TIP3    H227564   2.510   4.730   7.393
 1977TIP3   OH227565   3.113   5.220   7.402
 1977TIP3    H127566   3.083   5.284   7.468
 1977TIP3    H227567   3.087   5.135   7.444
 1978TIP3   OH227568   2.563   5.104   7.803
 1978TIP3    H127569   2.525   5.182   7.848
 1978TIP3    H227570   2.501   5.087   7.729
 1979TIP3   OH227571   3.163   4.640   6.539
 1979TIP3    H127572   3.215   4.662   6.619
 1979TIP3    H227573   3.206   4.694   6.471
 1980TIP3   OH227574   2.260   4.726   7.715
 1980TIP3    H127575   2.266   4.788   7.789
 1980TIP3    H227576   2.165   4.727   7.695
 1981TIP3   OH227577   2.935   5.312   6.889
 1981TIP3    H127578   2.979   5.345   6.968
 1981TIP3    H227579   2.881   5.388   6.863
 1982TIP3   OH227580   2.390   5.302   7.875
 1982TIP3    H127581   2.386   5.302   7.777
 1982TIP3    H227582   2.297   5.307   7.902
 1983TIP3   OH227583   3.534   3.817   6.537
 1983TIP3    H127584   3.438   3.827   6.552
 1983TIP3    H227585   3.557   3.893   6.484
 1984TIP3   OH227586   1.944   4.933   7.619
 1984TIP3    H127587   1.899   4.926   7.531
 1984TIP3    H227588   1.951   4.837   7.637
 1985TIP3   OH227589   1.920   5.207   7.297
 1985TIP3    H127590   2.016   5.196   7.290
 1985TIP3    H227591   1.912   5.289   7.347
 1986TIP3   OH227592   3.742   5.278   7.860
 1986TIP3    H127593   3.731   5.181   7.861
 1986TIP3    H227594   3.657   5.303   7.903
 1987TIP3   OH227595   2.840   5.232   7.750
 1987TIP3    H127596   2.845   5.315   7.802
 1987TIP3    H227597   2.753   5.195   7.775
 1988TIP3   OH227598   2.884   5.606   6.727
 1988TIP3    H127599   2.876   5.603   6.630
 1988TIP3    H227600   2.888   5.701   6.745
 1989TIP3   OH227601   2.246   5.496   6.915
 1989TIP3    H127602   2.261   5.450   7.001
 1989TIP3    H227603   2.164   5.451   6.886
 1990TIP3   OH227604   3.155   5.521   6.703
 1990TIP3    H127605   3.059   5.528   6.723
 1990TIP3    H227606   3.180   5.447   6.761
 1991TIP3   OH227607   3.457   4.424   7.908
 1991TIP3    H127608   3.409   4.469   7.837
 1991TIP3    H227609   3.456   4.332   7.879
 1992TIP3   OH227610   2.166   5.070   7.712
 1992TIP3    H127611   2.205   5.013   7.782
 1992TIP3    H227612   2.088   5.021   7.676
 1993TIP3   OH227613   2.440   3.914   7.304
 1993TIP3    H127614   2.350   3.900   7.269
 1993TIP3    H227615   2.426   3.996   7.354
 1994TIP3   OH227616   2.905   3.879   7.641
 1994TIP3    H127617   2.944   3.837   7.720
 1994TIP3    H227618   2.807   3.867   7.656
 1995TIP3   OH227619   3.233   4.265   7.730
 1995TIP3    H127620   3.177   4.243   7.809
 1995TIP3    H227621   3.215   4.358   7.709
 1996TIP3   OH227622   2.867   4.135   6.379
 1996TIP3    H127623   2.834   4.132   6.471
 1996TIP3    H227624   2.841   4.048   6.347
 1997TIP3   OH227625   2.451   4.410   7.432
 1997TIP3    H127626   2.376   4.409   7.495
 1997TIP3    H227627   2.446   4.501   7.394
 1998TIP3   OH227628   2.444   4.423   6.918
 1998TIP3    H127629   2.351   4.394   6.905
 1998TIP3    H227630   2.484   4.392   6.834
 1999TIP3   OH227631   2.998   4.472   6.793
 1999TIP3    H127632   2.959   4.554   6.757
 1999TIP3    H227633   3.067   4.454   6.727
 2000TIP3   OH227634   2.904   4.493   7.937
 2000TIP3    H127635   2.852   4.415   7.968
 2000TIP3    H227636   2.987   4.482   7.986
 2001TIP3   OH227637   3.103   4.421   7.078
 2001TIP3    H127638   3.074   4.477   7.005
 2001TIP3    H227639   3.111   4.336   7.031
 2002TIP3   OH227640   2.211   4.435   7.599
 2002TIP3    H127641   2.221   4.475   7.686
 2002TIP3    H227642   2.168   4.351   7.620
 2003TIP3   OH227643   1.879   4.148   6.995
 2003TIP3    H127644   1.944   4.141   7.068
 2003TIP3    H227645   1.925   4.106   6.920
 2004TIP3   OH227646   1.999   4.223   6.529
 2004TIP3    H127647   2.055   4.283   6.480
 2004TIP3    H227648   1.937   4.282   6.572
 2005TIP3   OH227649   3.021   4.579   7.534
 2005TIP3    H127650   3.060   4.510   7.476
 2005TIP3    H227651   2.974   4.526   7.601
 2006TIP3   OH227652   2.701   4.178   7.018
 2006TIP3    H127653   2.607   4.177   7.048
 2006TIP3    H227654   2.750   4.160   7.100
 2007TIP3   OH227655   2.186   4.333   6.901
 2007TIP3    H127656   2.095   4.346   6.867
 2007TIP3    H227657   2.212   4.245   6.867
 2008TIP3   OH227658   2.543   4.340   6.669
 2008TIP3    H127659   2.639   4.344   6.687
 2008TIP3    H227660   2.531   4.404   6.598
 2009TIP3   OH227661   3.143   4.099   7.341
 2009TIP3    H127662   3.076   4.105   7.412
 2009TIP3    H227663   3.089   4.076   7.264
 2010TIP3   OH227664   3.462   5.665   7.978
 2010TIP3    H127665   3.489   5.702   7.892
 2010TIP3    H227666   3.535   5.696   8.034
 2011TIP3   OH227667   2.228   4.926   7.934
 2011TIP3    H127668   2.306   4.931   7.994
 2011TIP3    H227669   2.158   4.903   7.999
 2012TIP3   OH227670   2.830   4.453   7.207
 2012TIP3    H127671   2.890   4.400   7.154
 2012TIP3    H227672   2.815   4.398   7.285
 2013TIP3   OH227673   2.330   4.069   6.850
 2013TIP3    H127674   2.300   3.976   6.851
 2013TIP3    H227675   2.410   4.060   6.796
 2014TIP3   OH227676   2.694   4.285   7.449
 2014TIP3    H127677   2.611   4.337   7.457
 2014TIP3    H227678   2.749   4.321   7.521
 2015TIP3   OH227679   3.472   4.828   7.499
 2015TIP3    H127680   3.528   4.877   7.435
 2015TIP3    H227681   3.386   4.832   7.452
 2016TIP3   OH227682   2.902   4.934   7.742
 2016TIP3    H127683   2.867   4.892   7.821
 2016TIP3    H227684   2.876   5.027   7.754
 2017TIP3   OH227685   3.210   4.377   6.603
 2017TIP3    H127686   3.299   4.368   6.640
 2017TIP3    H227687   3.215   4.457   6.548
 2018TIP3   OH227688   2.264   4.847   7.198
 2018TIP3    H127689   2.333   4.839   7.130
 2018TIP3    H227690   2.270   4.762   7.245
 2019TIP3   OH227691   1.961   4.689   7.728
 2019TIP3    H127692   1.979   4.640   7.810
 2019TIP3    H227693   1.902   4.628   7.680
 2020TIP3   OH227694   2.664   4.642   7.942
 2020TIP3    H127695   2.632   4.611   7.856
 2020TIP3    H227696   2.756   4.611   7.942
 2021TIP3   OH227697   3.133   5.177   7.738
 2021TIP3    H127698   3.041   5.195   7.714
 2021TIP3    H227699   3.129   5.206   7.831
 2022TIP3   OH227700   3.695   4.396   6.576
 2022TIP3    H127701   3.640   4.366   6.502
 2022TIP3    H227702   3.707   4.488   6.550
 2023TIP3   OH227703   3.698   4.981   7.856
 2023TIP3    H127704   3.609   5.003   7.820
 2023TIP3    H227705   3.752   4.976   7.775
 2024TIP3   OH227706   3.249   4.759   7.328
 2024TIP3    H127707   3.155   4.739   7.316
 2024TIP3    H227708   3.292   4.684   7.283
 2025TIP3   OH227709   2.497   5.191   6.938
 2025TIP3    H127710   2.551   5.270   6.917
 2025TIP3    H227711   2.411   5.218   6.904
 2026TIP3   OH227712   2.642   4.957   6.894
 2026TIP3    H127713   2.612   5.050   6.896
 2026TIP3    H227714   2.568   4.911   6.935
 2027TIP3   OH227715   2.686   5.378   7.531
 2027TIP3    H127716   2.733   5.458   7.501
 2027TIP3    H227717   2.749   5.343   7.597
 2028TIP3   OH227718   2.510   5.456   6.844
 2028TIP3    H127719   2.414   5.470   6.857
 2028TIP3    H227720   2.547   5.540   6.877
 2029TIP3   OH227721   3.039   4.976   7.491
 2029TIP3    H127722   3.008   4.958   7.582
 2029TIP3    H227723   3.104   4.906   7.475
 2030TIP3   OH227724   3.274   5.086   6.408
 2030TIP3    H127725   3.305   5.035   6.485
 2030TIP3    H227726   3.178   5.063   6.402
 2031TIP3   OH227727   3.323   5.435   7.740
 2031TIP3    H127728   3.253   5.386   7.693
 2031TIP3    H227729   3.340   5.506   7.674
 2032TIP3   OH227730   2.128   4.162   7.681
 2032TIP3    H127731   2.037   4.196   7.678
 2032TIP3    H227732   2.117   4.076   7.725
 2033TIP3   OH227733   3.347   4.947   6.632
 2033TIP3    H127734   3.325   4.864   6.677
 2033TIP3    H227735   3.444   4.949   6.639
 2034TIP3   OH227736   2.088   5.339   7.523
 2034TIP3    H127737   2.121   5.248   7.521
 2034TIP3    H227738   2.117   5.370   7.609
 2035TIP3   OH227739   3.002   4.139   7.575
 2035TIP3    H127740   3.073   4.145   7.640
 2035TIP3    H227741   2.963   4.051   7.596
 2036TIP3   OH227742   3.079   4.096   6.681
 2036TIP3    H127743   3.098   4.150   6.603
 2036TIP3    H227744   3.133   4.140   6.748
 2037TIP3   OH227745   2.846   5.318   6.572
 2037TIP3    H127746   2.760   5.362   6.573
 2037TIP3    H227747   2.895   5.362   6.502
 2038TIP3   OH227748   2.793   4.275   6.766
 2038TIP3    H127749   2.876   4.328   6.770
 2038TIP3    H227750   2.770   4.258   6.859
 2039TIP3   OH227751   2.855   4.374   7.686
 2039TIP3    H127752   2.862   4.428   7.766
 2039TIP3    H227753   2.920   4.303   7.695
 2040TIP3   OH227754   2.884   3.978   6.852
 2040TIP3    H127755   2.851   4.041   6.919
 2040TIP3    H227756   2.954   4.033   6.809
 2041TIP3   OH227757   2.578   5.423   6.568
 2041TIP3    H127758   2.602   5.502   6.518
 2041TIP3    H227759   2.557   5.451   6.659
 2042TIP3   OH227760   2.452   4.090   6.523
 2042TIP3    H127761   2.447   4.176   6.567
 2042TIP3    H227762   2.540   4.059   6.550
 2043TIP3   OH227763   3.471   4.160   7.770
 2043TIP3    H127764   3.379   4.192   7.758
 2043TIP3    H227765   3.502   4.158   7.678
 2044TIP3   OH227766   3.333   4.538   7.170
 2044TIP3    H127767   3.251   4.494   7.143
 2044TIP3    H227768   3.381   4.470   7.222
 2045TIP3   OH227769   3.439   5.465   7.338
 2045TIP3    H127770   3.431   5.533   7.268
 2045TIP3    H227771   3.536   5.470   7.355
 2046TIP3   OH227772   2.188   3.877   7.219
 2046TIP3    H127773   2.169   3.878   7.123
 2046TIP3    H227774   2.147   3.791   7.244
 2047TIP3   OH227775   2.088   5.282   6.843
 2047TIP3    H127776   1.997   5.309   6.827
 2047TIP3    H227777   2.129   5.311   6.759
 2048TIP3   OH227778   2.003   5.535   7.961
 2048TIP3    H127779   2.064   5.515   8.035
 2048TIP3    H227780   1.962   5.448   7.946
 2049TIP3   OH227781   2.471   5.421   8.122
 2049TIP3    H127782   2.550   5.375   8.155
 2049TIP3    H227783   2.473   5.398   8.027
 2050TIP3   OH227784   3.121   5.265   7.996
 2050TIP3    H127785   3.091   5.176   8.023
 2050TIP3    H227786   3.200   5.277   8.053
 2051TIP3   OH227787   1.996   4.913   8.054
 2051TIP3    H127788   2.011   4.818   8.030
 2051TIP3    H227789   1.914   4.931   8.005
 2052TIP3   OH227790   2.669   4.908   7.997
 2052TIP3    H127791   2.637   4.940   7.911
 2052TIP3    H227792   2.674   4.811   7.986
 2053TIP3   OH227793   3.237   4.896   7.739
 2053TIP3    H127794   3.316   4.954   7.733
 2053TIP3    H227795   3.167   4.963   7.743
 2054TIP3   OH227796   2.091   4.640   8.002
 2054TIP3    H127797   2.128   4.551   7.987
 2054TIP3    H227798   2.065   4.633   8.095
 2055TIP3   OH227799   2.476   4.528   7.734
 2055TIP3    H127800   2.418   4.601   7.760
 2055TIP3    H227801   2.517   4.565   7.654
 2056TIP3   OH227802   2.985   4.786   8.077
 2056TIP3    H127803   3.079   4.781   8.055
 2056TIP3    H227804   2.968   4.706   8.129
 2057TIP3   OH227805   2.519   4.267   7.838
 2057TIP3    H127806   2.530   4.195   7.773
 2057TIP3    H227807   2.514   4.348   7.783
 2058TIP3   OH227808   2.559   4.104   7.595
 2058TIP3    H127809   2.609   4.150   7.524
 2058TIP3    H227810   2.469   4.096   7.555
 2059TIP3   OH227811   2.712   4.653   7.619
 2059TIP3    H127812   2.788   4.637   7.563
 2059TIP3    H227813   2.676   4.736   7.585
 2060TIP3   OH227814   3.152   4.427   8.115
 2060TIP3    H127815   3.174   4.332   8.108
 2060TIP3    H227816   3.239   4.470   8.117
 2061TIP3   OH227817   3.286   4.708   7.935
 2061TIP3    H127818   3.261   4.779   7.872
 2061TIP3    H227819   3.382   4.704   7.913
 2062TIP3   OH227820   2.366   4.389   8.035
 2062TIP3    H127821   2.288   4.333   8.015
 2062TIP3    H227822   2.429   4.354   7.969
 2063TIP3   OH227823   2.637   3.847   7.635
 2063TIP3    H127824   2.619   3.944   7.625
 2063TIP3    H227825   2.562   3.811   7.584
 2064TIP3   OH227826   2.765   4.281   7.999
 2064TIP3    H127827   2.732   4.259   8.088
 2064TIP3    H227828   2.688   4.262   7.943
 2065TIP3   OH227829   3.036   4.194   7.904
 2065TIP3    H127830   2.940   4.201   7.918
 2065TIP3    H227831   3.063   4.132   7.974
 2066TIP3   OH227832   3.191   4.058   8.096
 2066TIP3    H127833   3.190   3.960   8.100
 2066TIP3    H227834   3.168   4.087   8.187
 2067TIP3   OH227835   2.173   4.185   8.007
 2067TIP3    H127836   2.197   4.111   7.949
 2067TIP3    H227837   2.164   4.141   8.094
 2068TIP3   OH227838   2.659   3.787   7.904
 2068TIP3    H127839   2.726   3.715   7.903
 2068TIP3    H227840   2.648   3.802   7.809
 2069TIP3   OH227841   2.693   3.947   8.115
 2069TIP3    H127842   2.677   3.897   8.031
 2069TIP3    H227843   2.636   4.026   8.104
 2070TIP3   OH227844   1.875   5.636   6.879
 2070TIP3    H127845   1.805   5.587   6.829
 2070TIP3    H227846   1.902   5.569   6.944
 2071TIP3   OH227847   1.957   5.448   7.064
 2071TIP3    H127848   1.922   5.360   7.083
 2071TIP3    H227849   1.980   5.481   7.153
 2072TIP3   OH227850   3.711   5.529   7.357
 2072TIP3    H127851   3.714   5.545   7.453
 2072TIP3    H227852   3.782   5.587   7.327
 2073TIP3   OH227853   3.668   5.489   7.652
 2073TIP3    H127854   3.621   5.411   7.614
 2073TIP3    H227855   3.717   5.444   7.723
 2074TIP3   OH227856   3.515   5.059   8.122
 2074TIP3    H127857   3.423   5.058   8.156
 2074TIP3    H227858   3.548   5.142   8.160
 2075TIP3   OH227859   3.642   4.890   6.665
 2075TIP3    H127860   3.727   4.933   6.677
 2075TIP3    H227861   3.645   4.818   6.730
 2076TIP3   OH227862   3.683   4.697   6.850
 2076TIP3    H127863   3.604   4.651   6.888
 2076TIP3    H227864   3.739   4.714   6.928
 2077TIP3   OH227865   3.656   4.970   7.349
 2077TIP3    H127866   3.737   4.933   7.311
 2077TIP3    H227867   3.671   5.066   7.332
 2078TIP3   OH227868   3.512   5.261   7.576
 2078TIP3    H127869   3.443   5.295   7.635
 2078TIP3    H227870   3.457   5.221   7.505
 2079TIP3   OH227871   3.548   4.404   6.343
 2079TIP3    H127872   3.554   4.472   6.275
 2079TIP3    H227873   3.529   4.323   6.293
 2080TIP3   OH227874   3.463   4.549   6.910
 2080TIP3    H127875   3.447   4.453   6.902
 2080TIP3    H227876   3.430   4.569   7.000
 2081TIP3   OH227877   1.963   4.757   7.313
 2081TIP3    H127878   1.981   4.750   7.216
 2081TIP3    H227879   2.052   4.739   7.348
 2082TIP3   OH227880   3.549   4.745   7.879
 2082TIP3    H127881   3.610   4.669   7.889
 2082TIP3    H227882   3.609   4.822   7.877
 2083TIP3   OH227883   3.698   4.533   7.942
 2083TIP3    H127884   3.610   4.493   7.926
 2083TIP3    H227885   3.756   4.455   7.935
 2084TIP3   OH227886   3.475   4.150   6.252
 2084TIP3    H127887   3.530   4.110   6.321
 2084TIP3    H227888   3.387   4.114   6.272
 2085TIP3   OH227889   3.431   4.306   6.757
 2085TIP3    H127890   3.459   4.212   6.765
 2085TIP3    H227891   3.509   4.345   6.716
 2086TIP3   OH227892   3.493   4.361   7.298
 2086TIP3    H127893   3.589   4.384   7.296
 2086TIP3    H227894   3.475   4.373   7.392
 2087TIP3   OH227895   3.500   4.433   7.575
 2087TIP3    H127896   3.412   4.462   7.608
 2087TIP3    H227897   3.543   4.519   7.554
 2088TIP3   OH227898   1.926   4.285   7.927
 2088TIP3    H127899   2.019   4.265   7.949
 2088TIP3    H227900   1.879   4.204   7.957
 2089TIP3   OH227901   3.729   3.840   8.109
 2089TIP3    H127902   3.763   3.772   8.049
 2089TIP3    H227903   3.737   3.921   8.056
 2090TIP3   OH227904   3.495   4.035   6.758
 2090TIP3    H127905   3.521   3.995   6.842
 2090TIP3    H227906   3.435   3.971   6.713
 2091TIP3   OH227907   2.046   4.116   7.215
 2091TIP3    H127908   2.091   4.033   7.240
 2091TIP3    H227909   2.101   4.185   7.254
 2092TIP3   OH227910   1.873   4.417   7.317
 2092TIP3    H127911   1.930   4.391   7.242
 2092TIP3    H227912   1.920   4.497   7.345
 2093TIP3   OH227913   3.679   4.050   7.946
 2093TIP3    H127914   3.585   4.077   7.943
 2093TIP3    H227915   3.682   3.995   7.866
 2094TIP3   OH227916   1.909   4.042   6.722
 2094TIP3    H127917   1.815   4.060   6.717
 2094TIP3    H227918   1.953   4.092   6.652
 2095TIP3   OH227919   3.383   5.538   6.918
 2095TIP3    H127920   3.453   5.506   6.859
 2095TIP3    H227921   3.434   5.587   6.984
 2096TIP3   OH227922   1.904   3.907   7.554
 2096TIP3    H127923   1.838   3.888   7.623
 2096TIP3    H227924   1.858   3.975   7.501
 2097TIP3   OH227925   2.129   5.273   7.988
 2097TIP3    H127926   2.044   5.280   7.940
 2097TIP3    H227927   2.104   5.243   8.077
 2098TIP3   OH227928   2.418   5.328   7.600
 2098TIP3    H127929   2.387   5.415   7.572
 2098TIP3    H227930   2.510   5.336   7.569
 2099TIP3   OH227931   2.850   5.470   7.889
 2099TIP3    H127932   2.863   5.436   7.981
 2099TIP3    H227933   2.941   5.501   7.867
 2100TIP3   OH227934   3.079   5.597   7.820
 2100TIP3    H127935   3.152   5.539   7.797
 2100TIP3    H227936   3.117   5.641   7.900
 2101TIP3   OH227937   3.582   3.858   7.730
 2101TIP3    H127938   3.499   3.888   7.690
 2101TIP3    H227939   3.598   3.776   7.679
 2102TIP3   OH227940   2.161   5.651   7.597
 2102TIP3    H127941   2.088   5.702   7.558
 2102TIP3    H227942   2.130   5.636   7.687
 2103TIP3   OH227943   2.408   5.609   7.506
 2103TIP3    H127944   2.318   5.623   7.545
 2103TIP3    H227945   2.402   5.668   7.428
 2104TIP3   OH227946   2.878   5.600   7.423
 2104TIP3    H127947   2.833   5.656   7.358
 2104TIP3    H227948   2.892   5.664   7.497
 2105TIP3   OH227949   3.107   5.481   7.526
 2105TIP3    H127950   3.022   5.509   7.488
 2105TIP3    H227951   3.156   5.564   7.517
 2106TIP3   OH227952   3.365   5.638   7.547
 2106TIP3    H127953   3.361   5.734   7.524
 2106TIP3    H227954   3.387   5.600   7.460
 2107TIP3   OH227955   2.107   5.517   7.293
 2107TIP3    H127956   2.099   5.470   7.379
 2107TIP3    H227957   2.188   5.478   7.254
 2108TIP3   OH227958   2.315   5.388   7.158
 2108TIP3    H127959   2.298   5.294   7.180
 2108TIP3    H227960   2.400   5.403   7.203
 2109TIP3   OH227961   2.576   5.437   7.246
 2109TIP3    H127962   2.590   5.344   7.219
 2109TIP3    H227963   2.580   5.431   7.342
 2110TIP3   OH227964   2.920   4.001   7.158
 2110TIP3    H127965   2.852   3.937   7.188
 2110TIP3    H227966   2.974   3.947   7.100
 2111TIP3   OH227967   3.430   3.810   7.171
 2111TIP3    H127968   3.488   3.885   7.144
 2111TIP3    H227969   3.339   3.845   7.151
 2112TIP3   OH227970   3.614   3.950   6.994
 2112TIP3    H127971   3.686   3.898   6.947
 2112TIP3    H227972   3.664   4.036   7.003
 2113TIP3   OH227973   2.157   3.864   6.946
 2113TIP3    H127974   2.078   3.844   6.893
 2113TIP3    H227975   2.204   3.778   6.937
 2114TIP3   OH227976   2.036   3.841   6.524
 2114TIP3    H127977   2.082   3.901   6.463
 2114TIP3    H227978   1.975   3.896   6.574
 2115TIP3   OH227979   2.604   3.860   6.924
 2115TIP3    H127980   2.695   3.891   6.915
 2115TIP3    H227981   2.602   3.832   7.015
 2116TIP3   OH227982   3.184   3.854   7.081
 2116TIP3    H127983   3.164   3.872   6.989
 2116TIP3    H227984   3.135   3.769   7.097
 2117TIP3   OH227985   3.298   3.862   6.659
 2117TIP3    H127986   3.225   3.921   6.634
 2117TIP3    H227987   3.254   3.776   6.675
 2118TIP3   OH227988   2.023   5.442   6.623
 2118TIP3    H127989   1.968   5.426   6.543
 2118TIP3    H227990   2.021   5.536   6.633
 2119TIP3   OH227991   2.717   4.064   6.610
 2119TIP3    H127992   2.743   4.003   6.681
 2119TIP3    H227993   2.727   4.149   6.657
 2120TIP3   OH227994   3.574   5.514   6.721
 2120TIP3    H127995   3.568   5.437   6.663
 2120TIP3    H227996   3.580   5.591   6.663
 2121TIP3   OH227997   2.145   3.917   7.889
 2121TIP3    H127998   2.106   3.838   7.930
 2121TIP3    H227999   2.236   3.913   7.927
 2122TIP3   OH228000   2.345   3.858   8.055
 2122TIP3    H128001   2.433   3.823   8.030
 2122TIP3    H228002   2.308   3.777   8.096
 2123TIP3   OH228003   3.186   3.785   8.069
 2123TIP3    H128004   3.196   3.737   8.153
 2123TIP3    H228005   3.278   3.782   8.034
 2124TIP3   OH228006   3.506   5.390   7.935
 2124TIP3    H128007   3.428   5.376   7.878
 2124TIP3    H228008   3.496   5.485   7.953
 2125TIP3   OH228009   4.952   4.779   6.929
 2125TIP3    H128010   4.952   4.877   6.925
 2125TIP3    H228011   4.881   4.755   6.867
 2126TIP3   OH228012   4.837   4.703   7.280
 2126TIP3    H128013   4.836   4.638   7.352
 2126TIP3    H228014   4.802   4.652   7.205
 2127TIP3   OH228015   4.072   4.671   7.435
 2127TIP3    H128016   4.081   4.602   7.504
 2127TIP3    H228017   4.147   4.728   7.457
 2128TIP3   OH228018   5.206   4.996   7.109
 2128TIP3    H128019   5.164   4.926   7.160
 2128TIP3    H228020   5.208   5.069   7.173
 2129TIP3   OH228021   4.165   5.116   7.284
 2129TIP3    H128022   4.134   5.029   7.252
 2129TIP3    H228023   4.260   5.098   7.289
 2130TIP3   OH228024   3.830   4.475   6.831
 2130TIP3    H128025   3.783   4.560   6.827
 2130TIP3    H228026   3.773   4.419   6.777
 2131TIP3   OH228027   3.900   4.693   7.048
 2131TIP3    H128028   3.927   4.611   7.094
 2131TIP3    H228029   3.971   4.704   6.983
 2132TIP3   OH228030   4.918   5.513   7.131
 2132TIP3    H128031   4.982   5.444   7.104
 2132TIP3    H228032   4.896   5.481   7.219
 2133TIP3   OH228033   4.674   4.943   7.326
 2133TIP3    H128034   4.708   4.880   7.261
 2133TIP3    H228035   4.756   4.960   7.376
 2134TIP3   OH228036   5.534   4.110   7.399
 2134TIP3    H128037   5.552   4.168   7.476
 2134TIP3    H228038   5.591   4.151   7.333
 2135TIP3   OH228039   4.991   4.390   7.359
 2135TIP3    H128040   5.008   4.294   7.359
 2135TIP3    H228041   4.981   4.404   7.263
 2136TIP3   OH228042   4.301   4.199   7.079
 2136TIP3    H128043   4.314   4.282   7.030
 2136TIP3    H228044   4.263   4.142   7.009
 2137TIP3   OH228045   5.076   4.207   6.918
 2137TIP3    H128046   5.142   4.175   6.984
 2137TIP3    H228047   5.133   4.264   6.863
 2138TIP3   OH228048   3.965   4.439   7.153
 2138TIP3    H128049   4.032   4.386   7.199
 2138TIP3    H228050   3.975   4.407   7.062
 2139TIP3   OH228051   4.480   4.595   7.087
 2139TIP3    H128052   4.549   4.537   7.125
 2139TIP3    H228053   4.429   4.530   7.036
 2140TIP3   OH228054   5.578   4.250   7.627
 2140TIP3    H128055   5.518   4.327   7.616
 2140TIP3    H228056   5.582   4.242   7.723
 2141TIP3   OH228057   4.194   4.089   7.484
 2141TIP3    H128058   4.166   4.146   7.409
 2141TIP3    H228059   4.126   4.112   7.552
 2142TIP3   OH228060   4.923   5.040   6.840
 2142TIP3    H128061   4.897   5.011   6.751
 2142TIP3    H228062   4.889   5.131   6.845
 2143TIP3   OH228063   4.444   4.853   7.507
 2143TIP3    H128064   4.374   4.917   7.530
 2143TIP3    H228065   4.515   4.913   7.478
 2144TIP3   OH228066   5.258   4.142   7.116
 2144TIP3    H128067   5.235   4.065   7.170
 2144TIP3    H228068   5.325   4.185   7.172
 2145TIP3   OH228069   4.151   4.274   7.288
 2145TIP3    H128070   4.213   4.343   7.318
 2145TIP3    H228071   4.202   4.233   7.214
 2146TIP3   OH228072   4.289   5.054   7.589
 2146TIP3    H128073   4.285   5.146   7.555
 2146TIP3    H228074   4.201   5.046   7.633
 2147TIP3   OH228075   5.259   5.182   7.346
 2147TIP3    H128076   5.162   5.193   7.357
 2147TIP3    H228077   5.285   5.274   7.324
 2148TIP3   OH228078   5.291   4.010   7.484
 2148TIP3    H128079   5.218   4.074   7.474
 2148TIP3    H228080   5.362   4.052   7.432
 2149TIP3   OH228081   4.587   3.822   7.230
 2149TIP3    H128082   4.573   3.726   7.223
 2149TIP3    H228083   4.499   3.853   7.261
 2150TIP3   OH228084   5.083   5.360   6.999
 2150TIP3    H128085   5.129   5.286   6.959
 2150TIP3    H228086   5.130   5.440   6.967
 2151TIP3   OH228087   5.362   5.012   7.704
 2151TIP3    H128088   5.384   4.947   7.633
 2151TIP3    H228089   5.390   5.096   7.661
 2152TIP3   OH228090   4.818   4.703   6.683
 2152TIP3    H128091   4.748   4.759   6.643
 2152TIP3    H228092   4.887   4.710   6.614
 2153TIP3   OH228093   5.556   4.644   7.509
 2153TIP3    H128094   5.490   4.716   7.513
 2153TIP3    H228095   5.606   4.667   7.429
 2154TIP3   OH228096   5.165   4.718   6.776
 2154TIP3    H128097   5.090   4.748   6.833
 2154TIP3    H228098   5.212   4.654   6.831
 2155TIP3   OH228099   5.154   4.539   7.687
 2155TIP3    H128100   5.156   4.622   7.737
 2155TIP3    H228101   5.093   4.567   7.615
 2156TIP3   OH228102   4.324   4.789   6.965
 2156TIP3    H128103   4.292   4.750   6.880
 2156TIP3    H228104   4.384   4.719   6.998
 2157TIP3   OH228105   4.455   5.126   7.233
 2157TIP3    H128106   4.455   5.074   7.152
 2157TIP3    H228107   4.533   5.091   7.279
 2158TIP3   OH228108   4.356   4.663   7.332
 2158TIP3    H128109   4.410   4.672   7.251
 2158TIP3    H228110   4.395   4.729   7.392
 2159TIP3   OH228111   4.999   5.222   7.400
 2159TIP3    H128112   4.970   5.285   7.466
 2159TIP3    H228113   4.974   5.136   7.441
 2160TIP3   OH228114   4.452   5.106   7.801
 2160TIP3    H128115   4.409   5.180   7.850
 2160TIP3    H228116   4.385   5.086   7.732
 2161TIP3   OH228117   5.052   4.643   6.545
 2161TIP3    H128118   5.107   4.665   6.625
 2161TIP3    H228119   5.087   4.699   6.474
 2162TIP3   OH228120   4.146   4.722   7.716
 2162TIP3    H128121   4.151   4.789   7.787
 2162TIP3    H228122   4.051   4.731   7.696
 2163TIP3   OH228123   4.826   5.321   6.880
 2163TIP3    H128124   4.862   5.343   6.967
 2163TIP3    H228125   4.759   5.387   6.869
 2164TIP3   OH228126   4.276   5.309   7.875
 2164TIP3    H128127   4.270   5.300   7.779
 2164TIP3    H228128   4.183   5.296   7.903
 2165TIP3   OH228129   4.220   4.688   6.729
 2165TIP3    H128130   4.194   4.766   6.675
 2165TIP3    H228131   4.152   4.625   6.704
 2166TIP3   OH228132   3.828   4.934   7.618
 2166TIP3    H128133   3.785   4.926   7.531
 2166TIP3    H228134   3.837   4.839   7.639
 2167TIP3   OH228135   3.804   5.208   7.295
 2167TIP3    H128136   3.900   5.196   7.291
 2167TIP3    H228137   3.797   5.290   7.345
 2168TIP3   OH228138   5.627   5.276   7.860
 2168TIP3    H128139   5.616   5.179   7.861
 2168TIP3    H228140   5.542   5.302   7.904
 2169TIP3   OH228141   4.727   5.227   7.756
 2169TIP3    H128142   4.730   5.316   7.801
 2169TIP3    H228143   4.635   5.198   7.773
 2170TIP3   OH228144   4.132   5.493   6.911
 2170TIP3    H128145   4.147   5.450   6.998
 2170TIP3    H228146   4.048   5.451   6.886
 2171TIP3   OH228147   5.038   5.527   6.709
 2171TIP3    H128148   4.945   5.521   6.728
 2171TIP3    H228149   5.071   5.452   6.761
 2172TIP3   OH228150   5.343   4.424   7.908
 2172TIP3    H128151   5.297   4.468   7.836
 2172TIP3    H228152   5.342   4.331   7.879
 2173TIP3   OH228153   4.058   5.065   7.711
 2173TIP3    H128154   4.080   5.028   7.799
 2173TIP3    H228155   3.971   5.025   7.689
 2174TIP3   OH228156   4.326   3.913   7.304
 2174TIP3    H128157   4.235   3.900   7.269
 2174TIP3    H228158   4.312   3.996   7.354
 2175TIP3   OH228159   4.790   3.879   7.641
 2175TIP3    H128160   4.830   3.837   7.720
 2175TIP3    H228161   4.693   3.867   7.656
 2176TIP3   OH228162   5.119   4.265   7.730
 2176TIP3    H128163   5.063   4.242   7.809
 2176TIP3    H228164   5.100   4.358   7.709
 2177TIP3   OH228165   4.336   4.411   7.432
 2177TIP3    H128166   4.262   4.409   7.495
 2177TIP3    H228167   4.329   4.501   7.393
 2178TIP3   OH228168   4.332   4.419   6.919
 2178TIP3    H128169   4.237   4.397   6.903
 2178TIP3    H228170   4.370   4.391   6.833
 2179TIP3   OH228171   4.879   4.467   6.790
 2179TIP3    H128172   4.845   4.555   6.761
 2179TIP3    H228173   4.955   4.454   6.730
 2180TIP3   OH228174   4.789   4.495   7.940
 2180TIP3    H128175   4.737   4.415   7.967
 2180TIP3    H228176   4.873   4.479   7.986
 2181TIP3   OH228177   4.988   4.422   7.077
 2181TIP3    H128178   4.960   4.478   7.003
 2181TIP3    H228179   4.997   4.336   7.031
 2182TIP3   OH228180   4.098   4.434   7.599
 2182TIP3    H128181   4.107   4.476   7.686
 2182TIP3    H228182   4.054   4.351   7.620
 2183TIP3   OH228183   4.440   4.177   6.285
 2183TIP3    H128184   4.392   4.134   6.359
 2183TIP3    H228185   4.367   4.208   6.230
 2184TIP3   OH228186   3.770   4.151   6.994
 2184TIP3    H128187   3.836   4.143   7.067
 2184TIP3    H228188   3.813   4.110   6.917
 2185TIP3   OH228189   3.896   4.227   6.542
 2185TIP3    H128190   3.939   4.279   6.475
 2185TIP3    H228191   3.819   4.283   6.565
 2186TIP3   OH228192   4.910   4.580   7.538
 2186TIP3    H128193   4.945   4.513   7.476
 2186TIP3    H228194   4.859   4.525   7.600
 2187TIP3   OH228195   4.587   4.178   7.019
 2187TIP3    H128196   4.493   4.178   7.048
 2187TIP3    H228197   4.635   4.160   7.101
 2188TIP3   OH228198   4.068   4.333   6.903
 2188TIP3    H128199   3.978   4.345   6.864
 2188TIP3    H228200   4.094   4.245   6.868
 2189TIP3   OH228201   4.430   4.341   6.667
 2189TIP3    H128202   4.526   4.345   6.685
 2189TIP3    H228203   4.415   4.409   6.601
 2190TIP3   OH228204   5.028   4.101   7.342
 2190TIP3    H128205   4.960   4.105   7.413
 2190TIP3    H228206   4.977   4.075   7.264
 2191TIP3   OH228207   5.346   5.664   7.978
 2191TIP3    H128208   5.375   5.701   7.892
 2191TIP3    H228209   5.418   5.695   8.035
 2192TIP3   OH228210   4.116   4.911   7.933
 2192TIP3    H128211   4.186   4.936   7.996
 2192TIP3    H228212   4.038   4.919   7.991
 2193TIP3   OH228213   4.715   4.453   7.207
 2193TIP3    H128214   4.775   4.399   7.154
 2193TIP3    H228215   4.701   4.398   7.285
 2194TIP3   OH228216   4.217   4.069   6.849
 2194TIP3    H128217   4.184   3.977   6.850
 2194TIP3    H228218   4.294   4.058   6.792
 2195TIP3   OH228219   4.579   4.285   7.448
 2195TIP3    H128220   4.497   4.337   7.457
 2195TIP3    H228221   4.635   4.321   7.521
 2196TIP3   OH228222   4.635   4.910   6.619
 2196TIP3    H128223   4.559   4.861   6.585
 2196TIP3    H228224   4.616   4.920   6.713
 2197TIP3   OH228225   5.357   4.829   7.498
 2197TIP3    H128226   5.414   4.877   7.435
 2197TIP3    H228227   5.272   4.832   7.449
 2198TIP3   OH228228   4.795   4.937   7.753
 2198TIP3    H128229   4.734   4.889   7.811
 2198TIP3    H228230   4.755   5.026   7.745
 2199TIP3   OH228231   5.095   4.376   6.604
 2199TIP3    H128232   5.185   4.364   6.640
 2199TIP3    H228233   5.104   4.459   6.554
 2200TIP3   OH228234   4.151   4.847   7.200
 2200TIP3    H128235   4.217   4.839   7.129
 2200TIP3    H228236   4.155   4.761   7.244
 2201TIP3   OH228237   4.852   5.060   6.535
 2201TIP3    H128238   4.807   5.139   6.559
 2201TIP3    H228239   4.781   4.992   6.535
 2202TIP3   OH228240   3.848   4.687   7.725
 2202TIP3    H128241   3.865   4.643   7.810
 2202TIP3    H228242   3.786   4.627   7.681
 2203TIP3   OH228243   4.552   4.646   7.940
 2203TIP3    H128244   4.516   4.611   7.857
 2203TIP3    H228245   4.641   4.607   7.941
 2204TIP3   OH228246   5.014   5.166   7.745
 2204TIP3    H128247   4.927   5.198   7.713
 2204TIP3    H228248   5.016   5.213   7.831
 2205TIP3   OH228249   5.585   4.397   6.579
 2205TIP3    H128250   5.528   4.366   6.505
 2205TIP3    H228251   5.594   4.491   6.552
 2206TIP3   OH228252   5.584   4.980   7.856
 2206TIP3    H128253   5.496   5.004   7.820
 2206TIP3    H228254   5.639   4.975   7.774
 2207TIP3   OH228255   5.135   4.759   7.328
 2207TIP3    H128256   5.041   4.739   7.314
 2207TIP3    H228257   5.178   4.684   7.282
 2208TIP3   OH228258   4.386   5.192   6.934
 2208TIP3    H128259   4.433   5.274   6.916
 2208TIP3    H228260   4.298   5.214   6.902
 2209TIP3   OH228261   4.529   4.960   6.887
 2209TIP3    H128262   4.497   5.052   6.899
 2209TIP3    H228263   4.458   4.910   6.932
 2210TIP3   OH228264   4.573   5.378   7.530
 2210TIP3    H128265   4.619   5.458   7.501
 2210TIP3    H228266   4.635   5.343   7.597
 2211TIP3   OH228267   4.399   5.455   6.845
 2211TIP3    H128268   4.301   5.469   6.853
 2211TIP3    H228269   4.431   5.541   6.878
 2212TIP3   OH228270   4.927   4.979   7.493
 2212TIP3    H128271   4.892   4.956   7.580
 2212TIP3    H228272   4.989   4.906   7.472
 2213TIP3   OH228273   5.208   5.436   7.740
 2213TIP3    H128274   5.139   5.388   7.691
 2213TIP3    H228275   5.226   5.506   7.674
 2214TIP3   OH228276   4.013   4.162   7.681
 2214TIP3    H128277   3.923   4.196   7.678
 2214TIP3    H228278   4.002   4.077   7.726
 2215TIP3   OH228279   3.975   5.339   7.522
 2215TIP3    H128280   4.006   5.247   7.523
 2215TIP3    H228281   4.001   5.368   7.610
 2216TIP3   OH228282   4.456   5.144   6.489
 2216TIP3    H128283   4.472   5.094   6.570
 2216TIP3    H228284   4.451   5.237   6.520
 2217TIP3   OH228285   4.107   4.867   6.552
 2217TIP3    H128286   4.030   4.912   6.591
 2217TIP3    H228287   4.152   4.943   6.513
 2218TIP3   OH228288   4.887   4.138   7.576
 2218TIP3    H128289   4.958   4.144   7.640
 2218TIP3    H228290   4.848   4.051   7.597
 2219TIP3   OH228291   4.964   4.098   6.677
 2219TIP3    H128292   4.988   4.153   6.602
 2219TIP3    H228293   5.017   4.137   6.749
 2220TIP3   OH228294   4.684   4.272   6.765
 2220TIP3    H128295   4.763   4.329   6.773
 2220TIP3    H228296   4.657   4.256   6.859
 2221TIP3   OH228297   4.739   4.372   7.685
 2221TIP3    H128298   4.746   4.426   7.766
 2221TIP3    H228299   4.806   4.303   7.695
 2222TIP3   OH228300   4.769   3.977   6.853
 2222TIP3    H128301   4.736   4.040   6.919
 2222TIP3    H228302   4.839   4.032   6.811
 2223TIP3   OH228303   4.466   5.414   6.568
 2223TIP3    H128304   4.481   5.495   6.515
 2223TIP3    H228305   4.438   5.448   6.655
 2224TIP3   OH228306   4.342   4.090   6.523
 2224TIP3    H128307   4.330   4.176   6.567
 2224TIP3    H228308   4.429   4.061   6.554
 2225TIP3   OH228309   5.357   4.161   7.770
 2225TIP3    H128310   5.264   4.192   7.757
 2225TIP3    H228311   5.387   4.158   7.677
 2226TIP3   OH228312   5.218   4.538   7.171
 2226TIP3    H128313   5.136   4.494   7.143
 2226TIP3    H228314   5.267   4.469   7.222
 2227TIP3   OH228315   5.325   5.464   7.336
 2227TIP3    H128316   5.316   5.534   7.268
 2227TIP3    H228317   5.421   5.469   7.354
 2228TIP3   OH228318   4.073   3.877   7.219
 2228TIP3    H128319   4.056   3.878   7.122
 2228TIP3    H228320   4.034   3.791   7.245
 2229TIP3   OH228321   3.972   5.276   6.836
 2229TIP3    H128322   3.883   5.312   6.826
 2229TIP3    H228323   4.018   5.311   6.759
 2230TIP3   OH228324   3.888   5.536   7.961
 2230TIP3    H128325   3.950   5.516   8.034
 2230TIP3    H228326   3.849   5.449   7.942
 2231TIP3   OH228327   4.359   5.423   8.122
 2231TIP3    H128328   4.436   5.375   8.155
 2231TIP3    H228329   4.357   5.397   8.028
 2232TIP3   OH228330   5.008   5.262   7.994
 2232TIP3    H128331   4.976   5.178   8.030
 2232TIP3    H228332   5.086   5.280   8.052
 2233TIP3   OH228333   3.878   4.911   8.064
 2233TIP3    H128334   3.899   4.821   8.030
 2233TIP3    H228335   3.808   4.936   8.001
 2234TIP3   OH228336   4.564   4.909   7.992
 2234TIP3    H128337   4.515   4.941   7.913
 2234TIP3    H228338   4.556   4.810   7.987
 2235TIP3   OH228339   5.117   4.901   7.752
 2235TIP3    H128340   5.201   4.949   7.732
 2235TIP3    H228341   5.056   4.972   7.730
 2236TIP3   OH228342   3.973   4.634   7.999
 2236TIP3    H128343   4.015   4.547   7.991
 2236TIP3    H228344   3.951   4.636   8.094
 2237TIP3   OH228345   4.363   4.528   7.734
 2237TIP3    H128346   4.303   4.600   7.760
 2237TIP3    H228347   4.403   4.565   7.653
 2238TIP3   OH228348   4.874   4.780   8.079
 2238TIP3    H128349   4.969   4.768   8.072
 2238TIP3    H228350   4.849   4.702   8.133
 2239TIP3   OH228351   4.405   4.267   7.838
 2239TIP3    H128352   4.415   4.195   7.773
 2239TIP3    H228353   4.399   4.348   7.783
 2240TIP3   OH228354   4.444   4.104   7.595
 2240TIP3    H128355   4.495   4.151   7.525
 2240TIP3    H228356   4.355   4.096   7.555
 2241TIP3   OH228357   4.601   4.657   7.623
 2241TIP3    H128358   4.672   4.636   7.562
 2241TIP3    H228359   4.559   4.735   7.583
 2242TIP3   OH228360   5.038   4.429   8.113
 2242TIP3    H128361   5.059   4.334   8.107
 2242TIP3    H228362   5.126   4.468   8.118
 2243TIP3   OH228363   5.171   4.712   7.936
 2243TIP3    H128364   5.152   4.779   7.867
 2243TIP3    H228365   5.267   4.701   7.916
 2244TIP3   OH228366   4.252   4.389   8.035
 2244TIP3    H128367   4.173   4.335   8.015
 2244TIP3    H228368   4.314   4.355   7.968
 2245TIP3   OH228369   4.522   3.847   7.635
 2245TIP3    H128370   4.504   3.944   7.625
 2245TIP3    H228371   4.448   3.811   7.584
 2246TIP3   OH228372   4.650   4.281   7.999
 2246TIP3    H128373   4.618   4.259   8.088
 2246TIP3    H228374   4.573   4.262   7.943
 2247TIP3   OH228375   4.922   4.194   7.905
 2247TIP3    H128376   4.826   4.200   7.918
 2247TIP3    H228377   4.949   4.131   7.975
 2248TIP3   OH228378   5.076   4.058   8.096
 2248TIP3    H128379   5.076   3.960   8.099
 2248TIP3    H228380   5.054   4.087   8.187
 2249TIP3   OH228381   4.058   4.185   8.007
 2249TIP3    H128382   4.082   4.111   7.949
 2249TIP3    H228383   4.049   4.142   8.094
 2250TIP3   OH228384   4.545   3.787   7.904
 2250TIP3    H128385   4.613   3.717   7.902
 2250TIP3    H228386   4.533   3.802   7.809
 2251TIP3   OH228387   4.579   3.947   8.115
 2251TIP3    H128388   4.563   3.896   8.031
 2251TIP3    H228389   4.522   4.025   8.104
 2252TIP3   OH228390   4.532   5.640   6.431
 2252TIP3    H128391   4.626   5.652   6.438
 2252TIP3    H228392   4.509   5.703   6.363
 2253TIP3   OH228393   3.757   5.638   6.879
 2253TIP3    H128394   3.690   5.587   6.830
 2253TIP3    H228395   3.790   5.570   6.941
 2254TIP3   OH228396   3.841   5.449   7.065
 2254TIP3    H128397   3.807   5.361   7.087
 2254TIP3    H228398   3.865   5.482   7.153
 2255TIP3   OH228399   5.597   5.529   7.357
 2255TIP3    H128400   5.600   5.545   7.453
 2255TIP3    H228401   5.667   5.587   7.327
 2256TIP3   OH228402   5.554   5.489   7.652
 2256TIP3    H128403   5.507   5.411   7.613
 2256TIP3    H228404   5.602   5.444   7.723
 2257TIP3   OH228405   5.397   5.059   8.117
 2257TIP3    H128406   5.310   5.058   8.159
 2257TIP3    H228407   5.436   5.139   8.159
 2258TIP3   OH228408   5.537   4.889   6.658
 2258TIP3    H128409   5.620   4.929   6.686
 2258TIP3    H228410   5.528   4.821   6.730
 2259TIP3   OH228411   5.566   4.704   6.850
 2259TIP3    H128412   5.491   4.651   6.887
 2259TIP3    H228413   5.625   4.715   6.927
 2260TIP3   OH228414   5.542   4.969   7.351
 2260TIP3    H128415   5.623   4.933   7.311
 2260TIP3    H228416   5.556   5.065   7.334
 2261TIP3   OH228417   5.398   5.261   7.576
 2261TIP3    H128418   5.329   5.295   7.635
 2261TIP3    H228419   5.343   5.221   7.505
 2262TIP3   OH228420   5.600   4.684   6.485
 2262TIP3    H128421   5.538   4.719   6.422
 2262TIP3    H228422   5.592   4.749   6.557
 2263TIP3   OH228423   5.445   4.405   6.342
 2263TIP3    H128424   5.421   4.470   6.276
 2263TIP3    H228425   5.408   4.328   6.298
 2264TIP3   OH228426   5.352   4.546   6.909
 2264TIP3    H128427   5.333   4.452   6.904
 2264TIP3    H228428   5.315   4.571   6.996
 2265TIP3   OH228429   3.849   4.757   7.314
 2265TIP3    H128430   3.866   4.749   7.218
 2265TIP3    H228431   3.938   4.739   7.349
 2266TIP3   OH228432   5.432   4.746   7.881
 2266TIP3    H128433   5.493   4.669   7.889
 2266TIP3    H228434   5.495   4.821   7.876
 2267TIP3   OH228435   5.583   4.534   7.942
 2267TIP3    H128436   5.496   4.492   7.926
 2267TIP3    H228437   5.641   4.456   7.934
 2268TIP3   OH228438   5.315   4.306   6.756
 2268TIP3    H128439   5.345   4.213   6.767
 2268TIP3    H228440   5.394   4.347   6.716
 2269TIP3   OH228441   5.379   4.361   7.298
 2269TIP3    H128442   5.475   4.384   7.297
 2269TIP3    H228443   5.360   4.375   7.392
 2270TIP3   OH228444   5.385   4.433   7.576
 2270TIP3    H128445   5.297   4.462   7.608
 2270TIP3    H228446   5.429   4.519   7.554
 2271TIP3   OH228447   3.811   4.286   7.928
 2271TIP3    H128448   3.905   4.265   7.949
 2271TIP3    H228449   3.765   4.204   7.957
 2272TIP3   OH228450   5.613   3.839   8.110
 2272TIP3    H128451   5.648   3.772   8.049
 2272TIP3    H228452   5.622   3.920   8.056
 2273TIP3   OH228453   5.380   4.035   6.757
 2273TIP3    H128454   5.404   3.990   6.841
 2273TIP3    H228455   5.321   3.971   6.712
 2274TIP3   OH228456   3.930   4.115   7.213
 2274TIP3    H128457   3.978   4.034   7.240
 2274TIP3    H228458   3.985   4.185   7.251
 2275TIP3   OH228459   3.759   4.418   7.319
 2275TIP3    H128460   3.815   4.392   7.243
 2275TIP3    H228461   3.807   4.498   7.345
 2276TIP3   OH228462   5.565   4.050   7.946
 2276TIP3    H128463   5.471   4.077   7.943
 2276TIP3    H228464   5.567   3.995   7.866
 2277TIP3   OH228465   3.793   4.047   6.730
 2277TIP3    H128466   3.700   4.062   6.710
 2277TIP3    H228467   3.838   4.085   6.652
 2278TIP3   OH228468   5.269   5.537   6.918
 2278TIP3    H128469   5.340   5.509   6.858
 2278TIP3    H228470   5.318   5.589   6.984
 2279TIP3   OH228471   3.790   3.907   7.555
 2279TIP3    H128472   3.723   3.888   7.623
 2279TIP3    H228473   3.746   3.976   7.502
 2280TIP3   OH228474   4.014   5.229   7.972
 2280TIP3    H128475   3.931   5.250   7.927
 2280TIP3    H228476   3.987   5.222   8.064
 2281TIP3   OH228477   4.304   5.328   7.599
 2281TIP3    H128478   4.271   5.415   7.572
 2281TIP3    H228479   4.397   5.336   7.568
 2282TIP3   OH228480   4.737   5.467   7.888
 2282TIP3    H128481   4.748   5.438   7.981
 2282TIP3    H228482   4.826   5.502   7.867
 2283TIP3   OH228483   4.965   5.597   7.820
 2283TIP3    H128484   5.038   5.539   7.797
 2283TIP3    H228485   5.002   5.641   7.900
 2284TIP3   OH228486   5.467   3.858   7.732
 2284TIP3    H128487   5.384   3.888   7.690
 2284TIP3    H228488   5.484   3.776   7.680
 2285TIP3   OH228489   4.047   5.651   7.598
 2285TIP3    H128490   3.973   5.702   7.559
 2285TIP3    H228491   4.016   5.633   7.688
 2286TIP3   OH228492   4.294   5.608   7.506
 2286TIP3    H128493   4.204   5.624   7.545
 2286TIP3    H228494   4.288   5.668   7.429
 2287TIP3   OH228495   4.764   5.601   7.422
 2287TIP3    H128496   4.718   5.656   7.358
 2287TIP3    H228497   4.777   5.665   7.496
 2288TIP3   OH228498   4.992   5.480   7.526
 2288TIP3    H128499   4.908   5.509   7.488
 2288TIP3    H228500   5.042   5.564   7.517
 2289TIP3   OH228501   5.251   5.638   7.547
 2289TIP3    H128502   5.246   5.734   7.525
 2289TIP3    H228503   5.273   5.601   7.460
 2290TIP3   OH228504   3.993   5.516   7.292
 2290TIP3    H128505   3.985   5.470   7.379
 2290TIP3    H228506   4.074   5.478   7.254
 2291TIP3   OH228507   4.200   5.388   7.158
 2291TIP3    H128508   4.183   5.294   7.180
 2291TIP3    H228509   4.286   5.403   7.203
 2292TIP3   OH228510   4.461   5.437   7.245
 2292TIP3    H128511   4.475   5.344   7.218
 2292TIP3    H228512   4.465   5.430   7.342
 2293TIP3   OH228513   4.805   4.000   7.159
 2293TIP3    H128514   4.738   3.936   7.188
 2293TIP3    H228515   4.861   3.947   7.101
 2294TIP3   OH228516   5.319   3.805   7.165
 2294TIP3    H128517   5.380   3.865   7.116
 2294TIP3    H228518   5.231   3.842   7.142
 2295TIP3   OH228519   5.486   3.932   6.993
 2295TIP3    H128520   5.555   3.875   6.954
 2295TIP3    H228521   5.537   4.015   7.006
 2296TIP3   OH228522   4.040   3.862   6.950
 2296TIP3    H128523   3.967   3.848   6.889
 2296TIP3    H228524   4.091   3.779   6.938
 2297TIP3   OH228525   4.490   3.855   6.923
 2297TIP3    H128526   4.579   3.892   6.915
 2297TIP3    H228527   4.487   3.834   7.016
 2298TIP3   OH228528   5.061   3.858   7.085
 2298TIP3    H128529   5.056   3.869   6.989
 2298TIP3    H228530   5.023   3.768   7.098
 2299TIP3   OH228531   5.190   3.860   6.656
 2299TIP3    H128532   5.117   3.921   6.637
 2299TIP3    H228533   5.145   3.775   6.674
 2300TIP3   OH228534   4.604   4.059   6.608
 2300TIP3    H128535   4.629   4.001   6.681
 2300TIP3    H228536   4.612   4.146   6.653
 2301TIP3   OH228537   5.470   5.510   6.718
 2301TIP3    H128538   5.447   5.442   6.655
 2301TIP3    H228539   5.467   5.589   6.658
 2302TIP3   OH228540   4.031   3.917   7.889
 2302TIP3    H128541   3.991   3.838   7.930
 2302TIP3    H228542   4.122   3.913   7.927
 2303TIP3   OH228543   4.231   3.857   8.055
 2303TIP3    H128544   4.319   3.822   8.030
 2303TIP3    H228545   4.194   3.776   8.096
 2304TIP3   OH228546   5.071   3.786   8.067
 2304TIP3    H128547   5.080   3.736   8.152
 2304TIP3    H228548   5.163   3.781   8.035
 2305TIP3   OH228549   5.393   5.391   7.935
 2305TIP3    H128550   5.314   5.377   7.877
 2305TIP3    H228551   5.382   5.486   7.953
 2306TIP3   OH228552   6.836   4.777   6.934
 2306TIP3    H128553   6.837   4.874   6.923
 2306TIP3    H228554   6.765   4.754   6.872
 2307TIP3   OH228555   6.723   4.703   7.279
 2307TIP3    H128556   6.721   4.638   7.352
 2307TIP3    H228557   6.688   4.652   7.204
 2308TIP3   OH228558   5.958   4.671   7.435
 2308TIP3    H128559   5.966   4.602   7.505
 2308TIP3    H228560   6.033   4.728   7.457
 2309TIP3   OH228561   7.092   4.996   7.109
 2309TIP3    H128562   7.051   4.925   7.159
 2309TIP3    H228563   7.100   5.065   7.177
 2310TIP3   OH228564   6.050   5.115   7.287
 2310TIP3    H128565   6.019   5.028   7.253
 2310TIP3    H228566   6.146   5.098   7.289
 2311TIP3   OH228567   5.713   4.472   6.837
 2311TIP3    H128568   5.670   4.559   6.828
 2311TIP3    H228569   5.658   4.417   6.779
 2312TIP3   OH228570   5.786   4.694   7.050
 2312TIP3    H128571   5.814   4.612   7.094
 2312TIP3    H228572   5.854   4.705   6.982
 2313TIP3   OH228573   6.807   5.514   7.132
 2313TIP3    H128574   6.870   5.444   7.103
 2313TIP3    H228575   6.782   5.480   7.218
 2314TIP3   OH228576   6.559   4.943   7.328
 2314TIP3    H128577   6.593   4.882   7.261
 2314TIP3    H228578   6.641   4.959   7.378
 2315TIP3   OH228579   6.875   4.390   7.358
 2315TIP3    H128580   6.894   4.294   7.359
 2315TIP3    H228581   6.866   4.403   7.261
 2316TIP3   OH228582   6.188   4.199   7.080
 2316TIP3    H128583   6.199   4.283   7.031
 2316TIP3    H228584   6.147   4.142   7.011
 2317TIP3   OH228585   6.963   4.210   6.918
 2317TIP3    H128586   7.029   4.175   6.983
 2317TIP3    H228587   7.017   4.263   6.860
 2318TIP3   OH228588   5.851   4.440   7.153
 2318TIP3    H128589   5.918   4.386   7.199
 2318TIP3    H228590   5.861   4.409   7.062
 2319TIP3   OH228591   6.366   4.595   7.086
 2319TIP3    H128592   6.434   4.538   7.124
 2319TIP3    H228593   6.316   4.530   7.032
 2320TIP3   OH228594   6.079   4.088   7.482
 2320TIP3    H128595   6.051   4.146   7.408
 2320TIP3    H228596   6.012   4.111   7.551
 2321TIP3   OH228597   6.809   5.035   6.836
 2321TIP3    H128598   6.776   5.008   6.751
 2321TIP3    H228599   6.776   5.128   6.844
 2322TIP3   OH228600   6.330   4.853   7.507
 2322TIP3    H128601   6.260   4.918   7.530
 2322TIP3    H228602   6.401   4.913   7.478
 2323TIP3   OH228603   7.124   4.139   7.121
 2323TIP3    H128604   7.118   4.060   7.174
 2323TIP3    H228605   7.197   4.187   7.167
 2324TIP3   OH228606   6.037   4.274   7.287
 2324TIP3    H128607   6.099   4.343   7.318
 2324TIP3    H228608   6.088   4.234   7.213
 2325TIP3   OH228609   6.175   5.054   7.589
 2325TIP3    H128610   6.170   5.146   7.556
 2325TIP3    H228611   6.087   5.046   7.634
 2326TIP3   OH228612   5.786   5.016   6.667
 2326TIP3    H128613   5.752   5.047   6.583
 2326TIP3    H228614   5.789   5.097   6.723
 2327TIP3   OH228615   7.136   5.177   7.352
 2327TIP3    H128616   7.039   5.192   7.358
 2327TIP3    H228617   7.168   5.265   7.326
 2328TIP3   OH228618   7.169   4.021   7.471
 2328TIP3    H128619   7.093   4.082   7.472
 2328TIP3    H228620   7.238   4.070   7.424
 2329TIP3   OH228621   6.473   3.821   7.236
 2329TIP3    H128622   6.455   3.727   7.219
 2329TIP3    H228623   6.383   3.855   7.258
 2330TIP3   OH228624   6.967   5.356   7.006
 2330TIP3    H128625   7.015   5.287   6.956
 2330TIP3    H228626   7.012   5.435   6.970
 2331TIP3   OH228627   7.086   5.150   6.852
 2331TIP3    H128628   7.068   5.075   6.794
 2331TIP3    H228629   7.095   5.102   6.937
 2332TIP3   OH228630   7.232   5.022   7.713
 2332TIP3    H128631   7.262   4.953   7.650
 2332TIP3    H228632   7.272   5.101   7.670
 2333TIP3   OH228633   6.704   4.703   6.682
 2333TIP3    H128634   6.633   4.755   6.642
 2333TIP3    H228635   6.771   4.714   6.613
 2334TIP3   OH228636   7.048   4.727   6.773
 2334TIP3    H128637   6.974   4.748   6.833
 2334TIP3    H228638   7.093   4.657   6.825
 2335TIP3   OH228639   7.036   4.537   7.684
 2335TIP3    H128640   7.040   4.618   7.737
 2335TIP3    H228641   6.976   4.569   7.614
 2336TIP3   OH228642   6.207   4.788   6.966
 2336TIP3    H128643   6.178   4.750   6.881
 2336TIP3    H228644   6.271   4.720   6.998
 2337TIP3   OH228645   6.340   5.126   7.235
 2337TIP3    H128646   6.340   5.075   7.152
 2337TIP3    H228647   6.419   5.091   7.279
 2338TIP3   OH228648   6.241   4.663   7.332
 2338TIP3    H128649   6.296   4.672   7.251
 2338TIP3    H228650   6.281   4.730   7.392
 2339TIP3   OH228651   6.879   5.221   7.401
 2339TIP3    H128652   6.857   5.284   7.471
 2339TIP3    H228653   6.858   5.135   7.445
 2340TIP3   OH228654   6.337   5.106   7.801
 2340TIP3    H128655   6.295   5.180   7.850
 2340TIP3    H228656   6.270   5.086   7.731
 2341TIP3   OH228657   6.031   4.723   7.715
 2341TIP3    H128658   6.037   4.788   7.787
 2341TIP3    H228659   5.937   4.730   7.695
 2342TIP3   OH228660   6.708   5.315   6.882
 2342TIP3    H128661   6.749   5.343   6.965
 2342TIP3    H228662   6.650   5.390   6.864
 2343TIP3   OH228663   6.162   5.309   7.876
 2343TIP3    H128664   6.155   5.300   7.779
 2343TIP3    H228665   6.069   5.296   7.903
 2344TIP3   OH228666   7.294   3.880   6.566
 2344TIP3    H128667   7.201   3.846   6.559
 2344TIP3    H228668   7.316   3.911   6.478
 2345TIP3   OH228669   6.108   4.691   6.724
 2345TIP3    H128670   6.076   4.770   6.676
 2345TIP3    H228671   6.037   4.627   6.709
 2346TIP3   OH228672   5.714   4.933   7.617
 2346TIP3    H128673   5.670   4.925   7.531
 2346TIP3    H228674   5.723   4.838   7.638
 2347TIP3   OH228675   5.691   5.207   7.294
 2347TIP3    H128676   5.787   5.195   7.291
 2347TIP3    H228677   5.683   5.289   7.345
 2348TIP3   OH228678   6.610   5.232   7.750
 2348TIP3    H128679   6.616   5.315   7.802
 2348TIP3    H228680   6.523   5.195   7.775
 2349TIP3   OH228681   6.656   5.607   6.735
 2349TIP3    H128682   6.649   5.598   6.637
 2349TIP3    H228683   6.658   5.704   6.745
 2350TIP3   OH228684   6.018   5.492   6.912
 2350TIP3    H128685   6.035   5.453   7.001
 2350TIP3    H228686   5.931   5.454   6.894
 2351TIP3   OH228687   6.928   5.520   6.707
 2351TIP3    H128688   6.832   5.528   6.722
 2351TIP3    H228689   6.954   5.447   6.764
 2352TIP3   OH228690   7.193   4.432   7.915
 2352TIP3    H128691   7.179   4.471   7.828
 2352TIP3    H228692   7.238   4.348   7.890
 2353TIP3   OH228693   5.943   5.065   7.711
 2353TIP3    H128694   5.965   5.028   7.799
 2353TIP3    H228695   5.856   5.025   7.689
 2354TIP3   OH228696   6.214   3.912   7.308
 2354TIP3    H128697   6.124   3.898   7.270
 2354TIP3    H228698   6.198   3.996   7.354
 2355TIP3   OH228699   6.675   3.903   7.661
 2355TIP3    H128700   6.718   3.857   7.737
 2355TIP3    H228701   6.577   3.894   7.671
 2356TIP3   OH228702   7.000   4.263   7.729
 2356TIP3    H128703   6.948   4.243   7.810
 2356TIP3    H228704   6.986   4.358   7.711
 2357TIP3   OH228705   6.222   4.410   7.430
 2357TIP3    H128706   6.149   4.409   7.494
 2357TIP3    H228707   6.217   4.501   7.394
 2358TIP3   OH228708   6.217   4.421   6.917
 2358TIP3    H128709   6.122   4.396   6.905
 2358TIP3    H228710   6.255   4.391   6.833
 2359TIP3   OH228711   6.770   4.470   6.791
 2359TIP3    H128712   6.734   4.556   6.761
 2359TIP3    H228713   6.842   4.454   6.728
 2360TIP3   OH228714   6.675   4.492   7.938
 2360TIP3    H128715   6.624   4.413   7.967
 2360TIP3    H228716   6.759   4.481   7.985
 2361TIP3   OH228717   6.873   4.425   7.078
 2361TIP3    H128718   6.845   4.478   7.002
 2361TIP3    H228719   6.881   4.337   7.034
 2362TIP3   OH228720   5.984   4.435   7.600
 2362TIP3    H128721   5.995   4.473   7.690
 2362TIP3    H228722   5.940   4.351   7.620
 2363TIP3   OH228723   5.649   4.146   6.996
 2363TIP3    H128724   5.716   4.142   7.067
 2363TIP3    H228725   5.694   4.108   6.919
 2364TIP3   OH228726   5.778   4.223   6.538
 2364TIP3    H128727   5.829   4.278   6.476
 2364TIP3    H228728   5.707   4.284   6.566
 2365TIP3   OH228729   6.793   4.579   7.533
 2365TIP3    H128730   6.832   4.509   7.476
 2365TIP3    H228731   6.746   4.526   7.601
 2366TIP3   OH228732   6.470   4.172   7.018
 2366TIP3    H128733   6.378   4.178   7.049
 2366TIP3    H228734   6.521   4.161   7.100
 2367TIP3   OH228735   5.953   4.332   6.903
 2367TIP3    H128736   5.863   4.347   6.865
 2367TIP3    H228737   5.981   4.248   6.863
 2368TIP3   OH228738   6.319   4.337   6.666
 2368TIP3    H128739   6.411   4.352   6.689
 2368TIP3    H228740   6.295   4.408   6.606
 2369TIP3   OH228741   6.909   4.095   7.341
 2369TIP3    H128742   6.843   4.108   7.412
 2369TIP3    H228743   6.859   4.080   7.260
 2370TIP3   OH228744   7.230   5.665   7.978
 2370TIP3    H128745   7.261   5.700   7.893
 2370TIP3    H228746   7.303   5.695   8.034
 2371TIP3   OH228747   6.002   4.914   7.932
 2371TIP3    H128748   6.072   4.937   7.995
 2371TIP3    H228749   5.923   4.919   7.990
 2372TIP3   OH228750   6.602   4.452   7.207
 2372TIP3    H128751   6.662   4.399   7.154
 2372TIP3    H228752   6.586   4.397   7.285
 2373TIP3   OH228753   6.103   4.070   6.849
 2373TIP3    H128754   6.069   3.978   6.852
 2373TIP3    H228755   6.181   4.058   6.795
 2374TIP3   OH228756   6.464   4.285   7.451
 2374TIP3    H128757   6.382   4.338   7.459
 2374TIP3    H228758   6.521   4.321   7.521
 2375TIP3   OH228759   7.228   4.833   7.499
 2375TIP3    H128760   7.292   4.852   7.427
 2375TIP3    H228761   7.146   4.831   7.447
 2376TIP3   OH228762   6.674   4.934   7.742
 2376TIP3    H128763   6.637   4.892   7.821
 2376TIP3    H228764   6.650   5.027   7.753
 2377TIP3   OH228765   6.975   4.381   6.597
 2377TIP3    H128766   7.064   4.367   6.636
 2377TIP3    H228767   6.989   4.462   6.545
 2378TIP3   OH228768   6.035   4.848   7.198
 2378TIP3    H128769   6.103   4.839   7.129
 2378TIP3    H228770   6.041   4.762   7.244
 2379TIP3   OH228771   5.733   4.688   7.727
 2379TIP3    H128772   5.753   4.642   7.810
 2379TIP3    H228773   5.673   4.625   7.682
 2380TIP3   OH228774   6.437   4.646   7.940
 2380TIP3    H128775   6.401   4.610   7.857
 2380TIP3    H228776   6.527   4.609   7.942
 2381TIP3   OH228777   6.901   5.176   7.737
 2381TIP3    H128778   6.809   5.195   7.714
 2381TIP3    H228779   6.902   5.205   7.830
 2382TIP3   OH228780   7.287   5.281   6.617
 2382TIP3    H128781   7.264   5.196   6.654
 2382TIP3    H228782   7.328   5.259   6.532
 2383TIP3   OH228783   7.014   4.757   7.328
 2383TIP3    H128784   6.920   4.736   7.313
 2383TIP3    H228785   7.061   4.684   7.284
 2384TIP3   OH228786   6.271   5.193   6.941
 2384TIP3    H128787   6.323   5.272   6.916
 2384TIP3    H228788   6.185   5.217   6.905
 2385TIP3   OH228789   6.417   4.962   6.896
 2385TIP3    H128790   6.382   5.052   6.896
 2385TIP3    H228791   6.342   4.911   6.932
 2386TIP3   OH228792   6.458   5.378   7.530
 2386TIP3    H128793   6.505   5.458   7.501
 2386TIP3    H228794   6.520   5.343   7.597
 2387TIP3   OH228795   6.281   5.453   6.854
 2387TIP3    H128796   6.186   5.474   6.857
 2387TIP3    H228797   6.320   5.540   6.874
 2388TIP3   OH228798   6.812   4.976   7.491
 2388TIP3    H128799   6.779   4.958   7.582
 2388TIP3    H228800   6.875   4.905   7.475
 2389TIP3   OH228801   7.090   5.439   7.740
 2389TIP3    H128802   7.023   5.386   7.692
 2389TIP3    H228803   7.113   5.506   7.672
 2390TIP3   OH228804   5.901   4.160   7.680
 2390TIP3    H128805   5.810   4.196   7.678
 2390TIP3    H228806   5.889   4.076   7.726
 2391TIP3   OH228807   7.127   4.950   6.639
 2391TIP3    H128808   7.101   4.862   6.675
 2391TIP3    H228809   7.223   4.945   6.645
 2392TIP3   OH228810   5.860   5.339   7.522
 2392TIP3    H128811   5.892   5.248   7.522
 2392TIP3    H228812   5.886   5.368   7.610
 2393TIP3   OH228813   5.982   4.868   6.537
 2393TIP3    H128814   5.920   4.907   6.601
 2393TIP3    H228815   6.044   4.940   6.520
 2394TIP3   OH228816   6.773   4.139   7.573
 2394TIP3    H128817   6.844   4.149   7.638
 2394TIP3    H228818   6.734   4.054   7.600
 2395TIP3   OH228819   6.847   4.098   6.680
 2395TIP3    H128820   6.874   4.149   6.603
 2395TIP3    H228821   6.902   4.137   6.749
 2396TIP3   OH228822   6.630   4.373   7.683
 2396TIP3    H128823   6.635   4.429   7.764
 2396TIP3    H228824   6.693   4.301   7.696
 2397TIP3   OH228825   6.650   3.977   6.851
 2397TIP3    H128826   6.622   4.040   6.919
 2397TIP3    H228827   6.724   4.030   6.812
 2398TIP3   OH228828   7.239   4.153   7.761
 2398TIP3    H128829   7.149   4.192   7.756
 2398TIP3    H228830   7.270   4.163   7.671
 2399TIP3   OH228831   7.105   4.539   7.177
 2399TIP3    H128832   7.023   4.498   7.142
 2399TIP3    H228833   7.145   4.464   7.224
 2400TIP3   OH228834   5.878   4.398   6.340
 2400TIP3    H128835   5.878   4.491   6.361
 2400TIP3    H228836   5.789   4.376   6.312
 2401TIP3   OH228837   7.215   5.465   7.338
 2401TIP3    H128838   7.198   5.534   7.271
 2401TIP3    H228839   7.309   5.475   7.357
 2402TIP3   OH228840   5.960   3.876   7.218
 2402TIP3    H128841   5.940   3.878   7.122
 2402TIP3    H228842   5.918   3.792   7.244
 2403TIP3   OH228843   5.846   5.265   6.819
 2403TIP3    H128844   5.768   5.320   6.835
 2403TIP3    H228845   5.907   5.320   6.771
 2404TIP3   OH228846   5.777   5.537   7.963
 2404TIP3    H128847   5.835   5.512   8.037
 2404TIP3    H228848   5.735   5.451   7.943
 2405TIP3   OH228849   6.243   5.424   8.121
 2405TIP3    H128850   6.320   5.377   8.156
 2405TIP3    H228851   6.243   5.395   8.028
 2406TIP3   OH228852   6.895   5.265   7.997
 2406TIP3    H128853   6.864   5.176   8.023
 2406TIP3    H228854   6.972   5.277   8.055
 2407TIP3   OH228855   5.765   4.908   8.061
 2407TIP3    H128856   5.785   4.818   8.029
 2407TIP3    H228857   5.694   4.936   8.001
 2408TIP3   OH228858   6.442   4.911   7.994
 2408TIP3    H128859   6.404   4.942   7.911
 2408TIP3    H228860   6.446   4.813   7.985
 2409TIP3   OH228861   7.005   4.892   7.734
 2409TIP3    H128862   7.084   4.952   7.731
 2409TIP3    H228863   6.938   4.961   7.742
 2410TIP3   OH228864   5.853   4.634   7.998
 2410TIP3    H128865   5.902   4.551   7.989
 2410TIP3    H228866   5.838   4.635   8.095
 2411TIP3   OH228867   6.321   4.742   6.502
 2411TIP3    H128868   6.273   4.696   6.572
 2411TIP3    H228869   6.351   4.676   6.440
 2412TIP3   OH228870   6.252   4.529   7.734
 2412TIP3    H128871   6.189   4.597   7.762
 2412TIP3    H228872   6.288   4.567   7.652
 2413TIP3   OH228873   6.753   4.787   8.080
 2413TIP3    H128874   6.847   4.782   8.054
 2413TIP3    H228875   6.740   4.705   8.130
 2414TIP3   OH228876   6.299   4.265   7.838
 2414TIP3    H128877   6.300   4.194   7.772
 2414TIP3    H228878   6.282   4.346   7.787
 2415TIP3   OH228879   6.331   4.098   7.593
 2415TIP3    H128880   6.379   4.153   7.526
 2415TIP3    H228881   6.240   4.098   7.556
 2416TIP3   OH228882   6.485   4.654   7.618
 2416TIP3    H128883   6.560   4.637   7.561
 2416TIP3    H228884   6.449   4.738   7.585
 2417TIP3   OH228885   6.924   4.428   8.118
 2417TIP3    H128886   6.947   4.335   8.105
 2417TIP3    H228887   7.011   4.470   8.115
 2418TIP3   OH228888   7.052   4.710   7.933
 2418TIP3    H128889   7.031   4.782   7.871
 2418TIP3    H228890   7.148   4.704   7.915
 2419TIP3   OH228891   6.103   4.415   7.964
 2419TIP3    H128892   6.055   4.344   8.014
 2419TIP3    H228893   6.189   4.368   7.971
 2420TIP3   OH228894   6.414   3.844   7.629
 2420TIP3    H128895   6.392   3.941   7.625
 2420TIP3    H228896   6.332   3.812   7.586
 2421TIP3   OH228897   6.535   4.280   7.998
 2421TIP3    H128898   6.504   4.252   8.086
 2421TIP3    H228899   6.457   4.262   7.943
 2422TIP3   OH228900   6.806   4.194   7.906
 2422TIP3    H128901   6.710   4.200   7.921
 2422TIP3    H228902   6.837   4.132   7.975
 2423TIP3   OH228903   6.971   4.057   8.099
 2423TIP3    H128904   6.958   3.960   8.100
 2423TIP3    H228905   6.939   4.087   8.188
 2424TIP3   OH228906   5.937   4.182   8.004
 2424TIP3    H128907   5.970   4.109   7.949
 2424TIP3    H228908   5.941   4.146   8.096
 2425TIP3   OH228909   6.426   3.781   7.899
 2425TIP3    H128910   6.496   3.713   7.907
 2425TIP3    H228911   6.418   3.800   7.805
 2426TIP3   OH228912   6.484   3.920   8.103
 2426TIP3    H128913   6.449   3.882   8.021
 2426TIP3    H228914   6.428   4.001   8.107
 2427TIP3   OH228915   5.646   5.636   6.878
 2427TIP3    H128916   5.575   5.590   6.828
 2427TIP3    H228917   5.673   5.571   6.945
 2428TIP3   OH228918   5.729   5.446   7.064
 2428TIP3    H128919   5.693   5.361   7.091
 2428TIP3    H228920   5.751   5.483   7.151
 2429TIP3   OH228921   7.264   5.074   8.104
 2429TIP3    H128922   7.189   5.056   8.163
 2429TIP3    H228923   7.318   5.134   8.159
 2430TIP3   OH228924   7.281   5.253   7.582
 2430TIP3    H128925   7.216   5.298   7.636
 2430TIP3    H228926   7.228   5.220   7.506
 2431TIP3   OH228927   7.334   4.404   6.347
 2431TIP3    H128928   7.311   4.478   6.284
 2431TIP3    H228929   7.298   4.332   6.294
 2432TIP3   OH228930   7.201   4.554   6.913
 2432TIP3    H128931   7.210   4.458   6.914
 2432TIP3    H228932   7.195   4.574   7.009
 2433TIP3   OH228933   5.734   4.757   7.314
 2433TIP3    H128934   5.752   4.749   7.218
 2433TIP3    H228935   5.824   4.739   7.349
 2434TIP3   OH228936  -0.032   4.747   7.904
 2434TIP3    H128937   0.027   4.670   7.905
 2434TIP3    H228938   0.023   4.820   7.873
 2435TIP3   OH228939   7.199   4.303   6.746
 2435TIP3    H128940   7.227   4.214   6.777
 2435TIP3    H228941   7.279   4.337   6.706
 2436TIP3   OH228942   7.224   4.309   7.293
 2436TIP3    H128943   7.318   4.322   7.275
 2436TIP3    H228944   7.225   4.360   7.376
 2437TIP3   OH228945   7.269   4.434   7.588
 2437TIP3    H128946   7.179   4.464   7.610
 2437TIP3    H228947   7.310   4.512   7.546
 2438TIP3   OH228948   5.694   4.286   7.925
 2438TIP3    H128949   5.789   4.267   7.947
 2438TIP3    H228950   5.652   4.204   7.959
 2439TIP3   OH228951   7.187   4.013   6.810
 2439TIP3    H128952   7.276   3.991   6.842
 2439TIP3    H228953   7.187   3.962   6.726
 2440TIP3   OH228954   5.816   4.116   7.214
 2440TIP3    H128955   5.862   4.034   7.240
 2440TIP3    H228956   5.871   4.186   7.252
 2441TIP3   OH228957   5.644   4.416   7.318
 2441TIP3    H128958   5.701   4.391   7.242
 2441TIP3    H228959   5.691   4.497   7.345
 2442TIP3   OH228960   5.678   4.046   6.727
 2442TIP3    H128961   5.585   4.063   6.711
 2442TIP3    H228962   5.722   4.091   6.653
 2443TIP3   OH228963   7.141   5.526   6.927
 2443TIP3    H128964   7.204   5.491   6.862
 2443TIP3    H228965   7.195   5.585   6.982
 2444TIP3   OH228966   5.675   3.907   7.554
 2444TIP3    H128967   5.609   3.888   7.623
 2444TIP3    H228968   5.630   3.975   7.500
 2445TIP3   OH228969   5.900   5.230   7.972
 2445TIP3    H128970   5.816   5.249   7.929
 2445TIP3    H228971   5.873   5.222   8.064
 2446TIP3   OH228972   6.189   5.329   7.601
 2446TIP3    H128973   6.157   5.415   7.572
 2446TIP3    H228974   6.282   5.336   7.569
 2447TIP3   OH228975   6.621   5.472   7.889
 2447TIP3    H128976   6.634   5.436   7.980
 2447TIP3    H228977   6.712   5.501   7.866
 2448TIP3   OH228978   6.853   5.598   7.820
 2448TIP3    H128979   6.927   5.540   7.797
 2448TIP3    H228980   6.889   5.642   7.900
 2449TIP3   OH228981   5.934   5.655   7.600
 2449TIP3    H128982   5.859   5.701   7.557
 2449TIP3    H228983   5.900   5.631   7.687
 2450TIP3   OH228984   6.179   5.609   7.505
 2450TIP3    H128985   6.090   5.626   7.545
 2450TIP3    H228986   6.174   5.668   7.428
 2451TIP3   OH228987   6.650   5.600   7.423
 2451TIP3    H128988   6.604   5.656   7.358
 2451TIP3    H228989   6.663   5.664   7.497
 2452TIP3   OH228990   6.880   5.481   7.525
 2452TIP3    H128991   6.794   5.508   7.489
 2452TIP3    H228992   6.925   5.566   7.518
 2453TIP3   OH228993   7.133   5.643   7.549
 2453TIP3    H128994   7.126   5.738   7.525
 2453TIP3    H228995   7.160   5.603   7.464
 2454TIP3   OH228996   5.878   5.516   7.293
 2454TIP3    H128997   5.870   5.470   7.379
 2454TIP3    H228998   5.960   5.478   7.254
 2455TIP3   OH228999   6.085   5.387   7.158
 2455TIP3    H129000   6.070   5.294   7.182
 2455TIP3    H229001   6.171   5.404   7.202
 2456TIP3   OH229002   6.344   5.437   7.247
 2456TIP3    H129003   6.361   5.345   7.219
 2456TIP3    H229004   6.351   5.430   7.343
 2457TIP3   OH229005   6.693   4.001   7.160
 2457TIP3    H129006   6.623   3.939   7.183
 2457TIP3    H229007   6.748   3.949   7.100
 2458TIP3   OH229008   7.207   3.805   7.168
 2458TIP3    H129009   7.261   3.869   7.119
 2458TIP3    H229010   7.117   3.839   7.147
 2459TIP3   OH229011   5.930   3.864   6.944
 2459TIP3    H129012   5.849   3.845   6.893
 2459TIP3    H229013   5.975   3.777   6.938
 2460TIP3   OH229014   5.807   3.840   6.528
 2460TIP3    H129015   5.850   3.898   6.462
 2460TIP3    H229016   5.745   3.900   6.570
 2461TIP3   OH229017   6.373   3.853   6.924
 2461TIP3    H129018   6.463   3.892   6.915
 2461TIP3    H229019   6.371   3.834   7.018
 2462TIP3   OH229020   6.952   3.855   7.084
 2462TIP3    H129021   6.944   3.871   6.989
 2462TIP3    H229022   6.909   3.767   7.096
 2463TIP3   OH229023   7.059   3.850   6.646
 2463TIP3    H129024   6.993   3.920   6.637
 2463TIP3    H229025   7.011   3.770   6.676
 2464TIP3   OH229026   6.688   5.554   6.453
 2464TIP3    H129027   6.771   5.598   6.428
 2464TIP3    H229028   6.658   5.523   6.367
 2465TIP3   OH229029   5.918   3.916   7.887
 2465TIP3    H129030   5.878   3.839   7.931
 2465TIP3    H229031   6.008   3.915   7.928
 2466TIP3   OH229032   6.116   3.854   8.048
 2466TIP3    H129033   6.206   3.822   8.031
 2466TIP3    H229034   6.080   3.778   8.097
 2467TIP3   OH229035   6.954   3.788   8.062
 2467TIP3    H129036   6.964   3.741   8.147
 2467TIP3    H229037   7.047   3.782   8.032
 2468TIP3   OH229038   7.268   5.385   7.945
 2468TIP3    H129039   7.200   5.372   7.876
 2468TIP3    H229040   7.262   5.484   7.952
 2469TIP3   OH229041   1.181   6.663   6.929
 2469TIP3    H129042   1.178   6.761   6.925
 2469TIP3    H229043   1.107   6.640   6.871
 2470TIP3   OH229044   1.069   6.588   7.279
 2470TIP3    H129045   1.064   6.525   7.352
 2470TIP3    H229046   1.031   6.538   7.205
 2471TIP3   OH229047   0.309   6.551   7.429
 2471TIP3    H129048   0.308   6.489   7.505
 2471TIP3    H229049   0.375   6.616   7.458
 2472TIP3   OH229050   1.439   6.878   7.112
 2472TIP3    H129051   1.388   6.813   7.159
 2472TIP3    H229052   1.437   6.954   7.173
 2473TIP3   OH229053   0.392   6.997   7.292
 2473TIP3    H129054   0.361   6.912   7.255
 2473TIP3    H229055   0.488   6.983   7.289
 2474TIP3   OH229056   0.076   6.357   6.808
 2474TIP3    H129057   0.025   6.438   6.828
 2474TIP3    H229058   0.007   6.299   6.775
 2475TIP3   OH229059   0.126   6.575   7.044
 2475TIP3    H129060   0.155   6.498   7.095
 2475TIP3    H229061   0.199   6.590   6.983
 2476TIP3   OH229062   0.902   6.825   7.329
 2476TIP3    H129063   0.936   6.765   7.261
 2476TIP3    H229064   0.984   6.845   7.378
 2477TIP3   OH229065   1.760   5.997   7.398
 2477TIP3    H129066   1.781   6.052   7.477
 2477TIP3    H229067   1.822   6.036   7.334
 2478TIP3   OH229068   1.219   6.275   7.359
 2478TIP3    H129069   1.237   6.180   7.360
 2478TIP3    H229070   1.208   6.288   7.263
 2479TIP3   OH229071   0.530   6.087   7.084
 2479TIP3    H129072   0.542   6.166   7.026
 2479TIP3    H229073   0.493   6.028   7.013
 2480TIP3   OH229074   1.303   6.091   6.918
 2480TIP3    H129075   1.369   6.059   6.983
 2480TIP3    H229076   1.358   6.147   6.861
 2481TIP3   OH229077   0.197   6.326   7.142
 2481TIP3    H129078   0.256   6.270   7.193
 2481TIP3    H229079   0.209   6.291   7.053
 2482TIP3   OH229080   0.705   6.478   7.091
 2482TIP3    H129081   0.780   6.424   7.122
 2482TIP3    H229082   0.660   6.416   7.030
 2483TIP3   OH229083   1.807   6.134   7.628
 2483TIP3    H129084   1.746   6.211   7.617
 2483TIP3    H229085   1.811   6.127   7.724
 2484TIP3   OH229086   0.427   5.985   7.482
 2484TIP3    H129087   0.380   6.027   7.407
 2484TIP3    H229088   0.356   5.994   7.552
 2485TIP3   OH229089   1.151   6.922   6.838
 2485TIP3    H129090   1.120   6.898   6.749
 2485TIP3    H229091   1.122   7.015   6.845
 2486TIP3   OH229092   0.676   6.738   7.509
 2486TIP3    H129093   0.603   6.801   7.530
 2486TIP3    H229094   0.745   6.799   7.479
 2487TIP3   OH229095   1.487   6.030   7.116
 2487TIP3    H129096   1.464   5.952   7.168
 2487TIP3    H229097   1.555   6.070   7.173
 2488TIP3   OH229098   0.368   6.150   7.284
 2488TIP3    H129099   0.396   6.242   7.304
 2488TIP3    H229100   0.415   6.122   7.200
 2489TIP3   OH229101   0.518   6.937   7.589
 2489TIP3    H129102   0.512   7.028   7.555
 2489TIP3    H229103   0.428   6.932   7.630
 2490TIP3   OH229104   0.124   6.907   6.670
 2490TIP3    H129105   0.104   6.929   6.576
 2490TIP3    H229106   0.135   6.989   6.719
 2491TIP3   OH229107   1.489   7.071   7.349
 2491TIP3    H129108   1.391   7.075   7.357
 2491TIP3    H229109   1.515   7.161   7.323
 2492TIP3   OH229110   1.519   5.895   7.484
 2492TIP3    H129111   1.447   5.959   7.474
 2492TIP3    H229112   1.591   5.937   7.432
 2493TIP3   OH229113   0.815   5.710   7.232
 2493TIP3    H129114   0.803   5.613   7.223
 2493TIP3    H229115   0.726   5.737   7.262
 2494TIP3   OH229116   1.317   7.223   6.997
 2494TIP3    H129117   1.365   7.160   6.941
 2494TIP3    H229118   1.353   7.306   6.964
 2495TIP3   OH229119   1.439   7.035   6.853
 2495TIP3    H129120   1.403   6.968   6.794
 2495TIP3    H229121   1.438   6.989   6.939
 2496TIP3   OH229122   1.595   6.899   7.704
 2496TIP3    H129123   1.610   6.832   7.634
 2496TIP3    H229124   1.619   6.982   7.660
 2497TIP3   OH229125   1.048   6.584   6.680
 2497TIP3    H129126   0.981   6.648   6.647
 2497TIP3    H229127   1.119   6.597   6.613
 2498TIP3   OH229128   1.782   6.527   7.505
 2498TIP3    H129129   1.719   6.602   7.515
 2498TIP3    H229130   1.838   6.556   7.431
 2499TIP3   OH229131   1.392   6.607   6.772
 2499TIP3    H129132   1.317   6.634   6.832
 2499TIP3    H229133   1.437   6.542   6.827
 2500TIP3   OH229134   1.384   6.425   7.686
 2500TIP3    H129135   1.384   6.507   7.737
 2500TIP3    H229136   1.321   6.453   7.616
 2501TIP3   OH229137   0.554   6.675   6.967
 2501TIP3    H129138   0.520   6.637   6.883
 2501TIP3    H229139   0.615   6.606   6.999
 2502TIP3   OH229140   0.685   7.009   7.231
 2502TIP3    H129141   0.685   6.957   7.151
 2502TIP3    H229142   0.763   6.976   7.280
 2503TIP3   OH229143   0.585   6.549   7.329
 2503TIP3    H129144   0.641   6.562   7.249
 2503TIP3    H229145   0.622   6.616   7.391
 2504TIP3   OH229146   1.225   7.106   7.402
 2504TIP3    H129147   1.193   7.170   7.464
 2504TIP3    H229148   1.199   7.021   7.444
 2505TIP3   OH229149   0.681   6.995   7.801
 2505TIP3    H129150   0.637   7.067   7.851
 2505TIP3    H229151   0.614   6.972   7.732
 2506TIP3   OH229152   1.277   6.527   6.540
 2506TIP3    H129153   1.331   6.545   6.620
 2506TIP3    H229154   1.319   6.579   6.471
 2507TIP3   OH229155   0.378   6.609   7.720
 2507TIP3    H129156   0.381   6.679   7.788
 2507TIP3    H229157   0.285   6.615   7.694
 2508TIP3   OH229158   1.046   7.199   6.891
 2508TIP3    H129159   1.099   7.231   6.965
 2508TIP3    H229160   0.996   7.276   6.861
 2509TIP3   OH229161   0.503   7.198   7.872
 2509TIP3    H129162   0.495   7.184   7.775
 2509TIP3    H229163   0.411   7.181   7.901
 2510TIP3   OH229164   1.648   5.702   6.534
 2510TIP3    H129165   1.553   5.715   6.555
 2510TIP3    H229166   1.671   5.783   6.486
 2511TIP3   OH229167   0.455   6.575   6.725
 2511TIP3    H129168   0.423   6.654   6.678
 2511TIP3    H229169   0.382   6.513   6.708
 2512TIP3   OH229170   0.101   6.811   7.595
 2512TIP3    H129171   0.029   6.815   7.530
 2512TIP3    H229172   0.074   6.726   7.635
 2513TIP3   OH229173   0.052   7.112   7.276
 2513TIP3    H129174   0.139   7.078   7.298
 2513TIP3    H229175   0.035   7.171   7.350
 2514TIP3   OH229176   1.856   7.163   7.869
 2514TIP3    H129177   1.843   7.067   7.860
 2514TIP3    H229178   1.767   7.190   7.903
 2515TIP3   OH229179   0.950   7.122   7.744
 2515TIP3    H129180   0.963   7.197   7.802
 2515TIP3    H229181   0.867   7.080   7.776
 2516TIP3   OH229182   1.572   6.310   7.908
 2516TIP3    H129183   1.523   6.355   7.837
 2516TIP3    H229184   1.570   6.217   7.880
 2517TIP3   OH229185   0.289   6.957   7.715
 2517TIP3    H129186   0.304   6.915   7.802
 2517TIP3    H229187   0.205   6.914   7.685
 2518TIP3   OH229188   0.556   5.803   7.301
 2518TIP3    H129189   0.465   5.784   7.268
 2518TIP3    H229190   0.538   5.876   7.360
 2519TIP3   OH229191   1.019   5.765   7.641
 2519TIP3    H129192   1.058   5.722   7.720
 2519TIP3    H229193   0.922   5.753   7.656
 2520TIP3   OH229194   1.348   6.150   7.730
 2520TIP3    H129195   1.291   6.128   7.809
 2520TIP3    H229196   1.329   6.243   7.709
 2521TIP3   OH229197   0.575   6.321   7.456
 2521TIP3    H129198   0.492   6.313   7.509
 2521TIP3    H229199   0.559   6.406   7.407
 2522TIP3   OH229200   0.562   6.302   6.924
 2522TIP3    H129201   0.467   6.285   6.903
 2522TIP3    H229202   0.600   6.280   6.836
 2523TIP3   OH229203   1.108   6.353   6.787
 2523TIP3    H129204   1.075   6.442   6.761
 2523TIP3    H229205   1.184   6.342   6.728
 2524TIP3   OH229206   1.018   6.378   7.937
 2524TIP3    H129207   0.966   6.300   7.968
 2524TIP3    H229208   1.102   6.367   7.985
 2525TIP3   OH229209   1.220   6.308   7.077
 2525TIP3    H129210   1.185   6.362   7.004
 2525TIP3    H229211   1.224   6.221   7.033
 2526TIP3   OH229212   0.330   6.316   7.599
 2526TIP3    H129213   0.332   6.362   7.684
 2526TIP3    H229214   0.279   6.236   7.621
 2527TIP3   OH229215   0.017   6.054   6.987
 2527TIP3    H129216   0.062   6.022   7.067
 2527TIP3    H229217   0.042   5.991   6.918
 2528TIP3   OH229218   0.180   6.122   6.580
 2528TIP3    H129219   0.184   6.172   6.498
 2528TIP3    H229220   0.084   6.145   6.590
 2529TIP3   OH229221   1.141   6.465   7.536
 2529TIP3    H129222   1.174   6.396   7.475
 2529TIP3    H229223   1.090   6.413   7.601
 2530TIP3   OH229224   0.816   6.067   7.020
 2530TIP3    H129225   0.723   6.061   7.045
 2530TIP3    H229226   0.866   6.043   7.099
 2531TIP3   OH229227   0.306   6.216   6.906
 2531TIP3    H129228   0.218   6.237   6.868
 2531TIP3    H229229   0.325   6.132   6.859
 2532TIP3   OH229230   0.648   6.231   6.682
 2532TIP3    H129231   0.746   6.226   6.694
 2532TIP3    H229232   0.636   6.292   6.609
 2533TIP3   OH229233   1.256   5.986   7.342
 2533TIP3    H129234   1.188   5.991   7.412
 2533TIP3    H229235   1.206   5.960   7.263
 2534TIP3   OH229236   0.347   6.797   7.931
 2534TIP3    H129237   0.416   6.821   7.996
 2534TIP3    H229238   0.269   6.810   7.989
 2535TIP3   OH229239   0.935   6.332   7.205
 2535TIP3    H129240   1.002   6.287   7.153
 2535TIP3    H229241   0.935   6.284   7.288
 2536TIP3   OH229242   0.449   5.954   6.853
 2536TIP3    H129243   0.413   5.863   6.848
 2536TIP3    H229244   0.526   5.945   6.795
 2537TIP3   OH229245   0.800   6.170   7.450
 2537TIP3    H129246   0.731   6.235   7.471
 2537TIP3    H229247   0.867   6.201   7.516
 2538TIP3   OH229248   0.869   6.789   6.623
 2538TIP3    H129249   0.787   6.751   6.584
 2538TIP3    H229250   0.843   6.810   6.715
 2539TIP3   OH229251   1.588   6.710   7.495
 2539TIP3    H129252   1.642   6.766   7.436
 2539TIP3    H229253   1.500   6.720   7.455
 2540TIP3   OH229254   1.248   6.074   6.434
 2540TIP3    H129255   1.156   6.092   6.420
 2540TIP3    H229256   1.284   6.159   6.468
 2541TIP3   OH229257   1.016   6.824   7.743
 2541TIP3    H129258   0.981   6.777   7.820
 2541TIP3    H229259   0.991   6.916   7.755
 2542TIP3   OH229260   1.325   6.265   6.603
 2542TIP3    H129261   1.414   6.254   6.641
 2542TIP3    H229262   1.331   6.347   6.551
 2543TIP3   OH229263   0.380   6.735   7.198
 2543TIP3    H129264   0.446   6.726   7.127
 2543TIP3    H229265   0.385   6.649   7.244
 2544TIP3   OH229266   1.082   6.941   6.533
 2544TIP3    H129267   1.042   7.027   6.552
 2544TIP3    H229268   1.004   6.882   6.540
 2545TIP3   OH229269   0.101   6.551   7.697
 2545TIP3    H129270   0.109   6.528   7.792
 2545TIP3    H229271   0.016   6.510   7.676
 2546TIP3   OH229272   0.778   6.529   7.942
 2546TIP3    H129273   0.746   6.498   7.857
 2546TIP3    H229274   0.871   6.496   7.940
 2547TIP3   OH229275   1.246   7.072   7.732
 2547TIP3    H129276   1.151   7.078   7.714
 2547TIP3    H229277   1.243   7.089   7.829
 2548TIP3   OH229278   1.809   6.282   6.579
 2548TIP3    H129279   1.756   6.250   6.505
 2548TIP3    H229280   1.825   6.374   6.548
 2549TIP3   OH229281   1.814   6.865   7.856
 2549TIP3    H129282   1.724   6.889   7.822
 2549TIP3    H229283   1.867   6.862   7.774
 2550TIP3   OH229284   1.659   7.146   6.627
 2550TIP3    H129285   1.602   7.073   6.652
 2550TIP3    H229286   1.663   7.150   6.532
 2551TIP3   OH229287   1.364   6.645   7.326
 2551TIP3    H129288   1.269   6.625   7.316
 2551TIP3    H229289   1.404   6.567   7.285
 2552TIP3   OH229290   0.620   7.073   6.926
 2552TIP3    H129291   0.663   7.160   6.917
 2552TIP3    H229292   0.529   7.097   6.908
 2553TIP3   OH229293   0.760   6.842   6.889
 2553TIP3    H129294   0.730   6.935   6.899
 2553TIP3    H229295   0.685   6.797   6.933
 2554TIP3   OH229296   0.819   7.238   7.509
 2554TIP3    H129297   0.843   7.331   7.498
 2554TIP3    H229298   0.865   7.219   7.592
 2555TIP3   OH229299   0.625  -0.004   6.861
 2555TIP3    H129300   0.530   0.008   6.863
 2555TIP3    H229301   0.660   0.080   6.892
 2556TIP3   OH229302   1.155   6.862   7.493
 2556TIP3    H129303   1.121   6.841   7.582
 2556TIP3    H229304   1.218   6.790   7.475
 2557TIP3   OH229305   1.388   6.962   6.403
 2557TIP3    H129306   1.414   6.919   6.486
 2557TIP3    H229307   1.291   6.958   6.409
 2558TIP3   OH229308   1.432   7.313   7.740
 2558TIP3    H129309   1.362   7.267   7.694
 2558TIP3    H229310   1.449   7.389   7.683
 2559TIP3   OH229311   0.241   6.042   7.669
 2559TIP3    H129312   0.153   6.082   7.682
 2559TIP3    H229313   0.231   5.963   7.725
 2560TIP3   OH229314   1.466   6.833   6.628
 2560TIP3    H129315   1.440   6.754   6.680
 2560TIP3    H229316   1.561   6.838   6.646
 2561TIP3   OH229317   0.214   7.224   7.517
 2561TIP3    H129318   0.233   7.130   7.523
 2561TIP3    H229319   0.220   7.255   7.608
 2562TIP3   OH229320   0.837   6.964   6.284
 2562TIP3    H129321   0.812   6.994   6.195
 2562TIP3    H229322   0.774   7.020   6.334
 2563TIP3   OH229323   0.670   7.028   6.495
 2563TIP3    H129324   0.703   6.975   6.568
 2563TIP3    H229325   0.688   7.118   6.525
 2564TIP3   OH229326   1.114   6.024   7.576
 2564TIP3    H129327   1.187   6.030   7.640
 2564TIP3    H229328   1.078   5.936   7.597
 2565TIP3   OH229329   1.193   5.980   6.686
 2565TIP3    H129330   1.216   6.028   6.604
 2565TIP3    H229331   1.246   6.027   6.752
 2566TIP3   OH229332   0.979   7.200   6.578
 2566TIP3    H129333   0.886   7.231   6.573
 2566TIP3    H229334   1.012   7.241   6.498
 2567TIP3   OH229335   0.907   6.163   6.762
 2567TIP3    H129336   0.991   6.212   6.771
 2567TIP3    H229337   0.886   6.137   6.854
 2568TIP3   OH229338   0.966   6.257   7.684
 2568TIP3    H129339   0.974   6.314   7.764
 2568TIP3    H229340   1.035   6.190   7.695
 2569TIP3   OH229341   0.999   5.862   6.858
 2569TIP3    H129342   0.963   5.928   6.918
 2569TIP3    H229343   1.065   5.917   6.810
 2570TIP3   OH229344   0.731  -0.087   6.609
 2570TIP3    H129345   0.734  -0.011   6.545
 2570TIP3    H229346   0.673  -0.042   6.672
 2571TIP3   OH229347   0.557   5.976   6.533
 2571TIP3    H129348   0.556   6.064   6.571
 2571TIP3    H229349   0.647   5.944   6.550
 2572TIP3   OH229350   1.586   6.046   7.769
 2572TIP3    H129351   1.493   6.077   7.757
 2572TIP3    H229352   1.616   6.043   7.677
 2573TIP3   OH229353   1.451   6.423   7.168
 2573TIP3    H129354   1.364   6.382   7.144
 2573TIP3    H229355   1.492   6.353   7.224
 2574TIP3   OH229356   0.237   6.311   6.315
 2574TIP3    H129357   0.223   6.388   6.371
 2574TIP3    H229358   0.145   6.280   6.330
 2575TIP3   OH229359   0.302   5.764   7.218
 2575TIP3    H129360   0.284   5.762   7.121
 2575TIP3    H229361   0.262   5.677   7.244
 2576TIP3   OH229362   0.208   7.148   6.848
 2576TIP3    H129363   0.120   7.187   6.833
 2576TIP3    H229364   0.244   7.194   6.770
 2577TIP3   OH229365   0.603   7.280   8.140
 2577TIP3    H129366   0.692   7.247   8.156
 2577TIP3    H229367   0.594   7.266   8.044
 2578TIP3   OH229368   1.085   7.260   6.266
 2578TIP3    H129369   0.990   7.235   6.279
 2578TIP3    H229370   1.109   7.180   6.222
 2579TIP3   OH229371   1.239   7.133   7.988
 2579TIP3    H129372   1.203   7.052   8.029
 2579TIP3    H229373   1.311   7.156   8.050
 2580TIP3   OH229374   1.462   7.199   6.262
 2580TIP3    H129375   1.491   7.149   6.339
 2580TIP3    H229376   1.536   7.252   6.231
 2581TIP3   OH229377   0.125   6.795   8.060
 2581TIP3    H129378   0.128   6.702   8.031
 2581TIP3    H229379   0.043   6.828   8.018
 2582TIP3   OH229380   0.784   6.793   7.996
 2582TIP3    H129381   0.747   6.825   7.911
 2582TIP3    H229382   0.789   6.695   7.985
 2583TIP3   OH229383   1.351   6.781   7.739
 2583TIP3    H129384   1.430   6.839   7.732
 2583TIP3    H229385   1.281   6.847   7.742
 2584TIP3   OH229386   0.195   6.517   7.999
 2584TIP3    H129387   0.245   6.434   7.991
 2584TIP3    H229388   0.184   6.522   8.095
 2585TIP3   OH229389   0.677   6.627   6.511
 2585TIP3    H129390   0.612   6.584   6.568
 2585TIP3    H229391   0.687   6.567   6.437
 2586TIP3   OH229392   0.590   6.413   7.735
 2586TIP3    H129393   0.532   6.486   7.763
 2586TIP3    H229394   0.631   6.451   7.655
 2587TIP3   OH229395   1.100   6.671   8.077
 2587TIP3    H129396   1.194   6.667   8.056
 2587TIP3    H229397   1.083   6.592   8.129
 2588TIP3   OH229398   0.634   6.153   7.838
 2588TIP3    H129399   0.645   6.081   7.774
 2588TIP3    H229400   0.626   6.235   7.786
 2589TIP3   OH229401   0.672   5.991   7.596
 2589TIP3    H129402   0.727   6.034   7.527
 2589TIP3    H229403   0.583   5.979   7.558
 2590TIP3   OH229404   0.825   6.537   7.618
 2590TIP3    H129405   0.903   6.524   7.563
 2590TIP3    H229406   0.790   6.622   7.587
 2591TIP3   OH229407   1.266   6.312   8.115
 2591TIP3    H129408   1.288   6.218   8.108
 2591TIP3    H229409   1.353   6.355   8.117
 2592TIP3   OH229410   1.401   6.594   7.935
 2592TIP3    H129411   1.375   6.665   7.872
 2592TIP3    H229412   1.496   6.589   7.913
 2593TIP3   OH229413   0.477   6.276   8.035
 2593TIP3    H129414   0.399   6.220   8.014
 2593TIP3    H229415   0.541   6.242   7.970
 2594TIP3   OH229416   0.751   5.733   7.635
 2594TIP3    H129417   0.734   5.830   7.626
 2594TIP3    H229418   0.677   5.695   7.585
 2595TIP3   OH229419   0.879   6.166   7.999
 2595TIP3    H129420   0.846   6.144   8.088
 2595TIP3    H229421   0.802   6.147   7.943
 2596TIP3   OH229422   1.150   6.080   7.904
 2596TIP3    H129423   1.054   6.086   7.918
 2596TIP3    H229424   1.178   6.017   7.974
 2597TIP3   OH229425   1.306   5.943   8.096
 2597TIP3    H129426   1.304   5.845   8.100
 2597TIP3    H229427   1.283   5.972   8.187
 2598TIP3   OH229428   0.294   6.070   8.008
 2598TIP3    H129429   0.313   5.995   7.949
 2598TIP3    H229430   0.279   6.025   8.095
 2599TIP3   OH229431   0.773   5.672   7.904
 2599TIP3    H129432   0.842   5.602   7.902
 2599TIP3    H229433   0.762   5.687   7.809
 2600TIP3   OH229434   0.808   5.832   8.115
 2600TIP3    H129435   0.791   5.783   8.031
 2600TIP3    H229436   0.751   5.911   8.104
 2601TIP3   OH229437   0.141   6.933   6.407
 2601TIP3    H129438   0.217   6.992   6.400
 2601TIP3    H229439   0.114   6.927   6.314
 2602TIP3   OH229440   0.076   7.330   7.056
 2602TIP3    H129441   0.034   7.245   7.081
 2602TIP3    H229442   0.091   7.364   7.146
 2603TIP3   OH229443   1.630   6.943   8.122
 2603TIP3    H129444   1.538   6.944   8.157
 2603TIP3    H229445   1.666   7.026   8.161
 2604TIP3   OH229446   1.761   6.774   6.661
 2604TIP3    H129447   1.843   6.819   6.681
 2604TIP3    H229448   1.759   6.705   6.731
 2605TIP3   OH229449   1.794   6.589   6.850
 2605TIP3    H129450   1.718   6.536   6.883
 2605TIP3    H229451   1.859   6.601   6.923
 2606TIP3   OH229452   1.770   6.854   7.347
 2606TIP3    H129453   1.854   6.821   7.313
 2606TIP3    H229454   1.783   6.951   7.335
 2607TIP3   OH229455   1.623   7.149   7.580
 2607TIP3    H129456   1.556   7.185   7.639
 2607TIP3    H229457   1.570   7.107   7.509
 2608TIP3   OH229458   1.829   6.572   6.491
 2608TIP3    H129459   1.770   6.597   6.417
 2608TIP3    H229460   1.815   6.644   6.554
 2609TIP3   OH229461   1.587   6.432   6.918
 2609TIP3    H129462   1.560   6.340   6.900
 2609TIP3    H229463   1.529   6.453   6.993
 2610TIP3   OH229464   0.075   6.641   7.313
 2610TIP3    H129465   0.094   6.637   7.216
 2610TIP3    H229466   0.165   6.628   7.350
 2611TIP3   OH229467   1.663   6.631   7.879
 2611TIP3    H129468   1.724   6.555   7.889
 2611TIP3    H229469   1.724   6.708   7.877
 2612TIP3   OH229470   1.813   6.419   7.942
 2612TIP3    H129471   1.725   6.378   7.926
 2612TIP3    H229472   1.870   6.341   7.935
 2613TIP3   OH229473   1.583   6.041   6.256
 2613TIP3    H129474   1.645   5.998   6.317
 2613TIP3    H229475   1.500   5.997   6.274
 2614TIP3   OH229476   1.548   6.193   6.763
 2614TIP3    H129477   1.573   6.097   6.765
 2614TIP3    H229478   1.623   6.229   6.714
 2615TIP3   OH229479   1.609   6.252   7.297
 2615TIP3    H129480   1.707   6.265   7.301
 2615TIP3    H229481   1.588   6.258   7.392
 2616TIP3   OH229482   1.614   6.319   7.572
 2616TIP3    H129483   1.527   6.347   7.609
 2616TIP3    H229484   1.658   6.406   7.556
 2617TIP3   OH229485   0.060   6.165   7.930
 2617TIP3    H129486   0.150   6.141   7.956
 2617TIP3    H229487   0.003   6.093   7.965
 2618TIP3   OH229488   1.843   5.725   8.109
 2618TIP3    H129489   1.878   5.658   8.049
 2618TIP3    H229490   1.852   5.807   8.056
 2619TIP3   OH229491   1.610   5.920   6.756
 2619TIP3    H129492   1.632   5.878   6.842
 2619TIP3    H229493   1.549   5.855   6.714
 2620TIP3   OH229494   0.151   5.994   7.217
 2620TIP3    H129495   0.206   5.915   7.239
 2620TIP3    H229496   0.206   6.066   7.252
 2621TIP3   OH229497   0.062   6.352   7.359
 2621TIP3    H129498   0.064   6.318   7.267
 2621TIP3    H229499   0.036   6.442   7.337
 2622TIP3   OH229500   1.793   5.936   7.946
 2622TIP3    H129501   1.699   5.962   7.943
 2622TIP3    H229502   1.796   5.880   7.866
 2623TIP3   OH229503   1.792   5.925   6.412
 2623TIP3    H129504   1.835   5.853   6.363
 2623TIP3    H229505   1.861   5.992   6.417
 2624TIP3   OH229506   7.403   5.923   6.697
 2624TIP3    H129507   7.308   5.950   6.702
 2624TIP3    H229508   7.435   5.994   6.640
 2625TIP3   OH229509   7.379   5.789   7.567
 2625TIP3    H129510   7.304   5.769   7.625
 2625TIP3    H229511   7.328   5.846   7.507
 2626TIP3   OH229512   0.243   7.119   7.972
 2626TIP3    H129513   0.158   7.135   7.930
 2626TIP3    H229514   0.216   7.105   8.063
 2627TIP3   OH229515   0.541   7.215   7.607
 2627TIP3    H129516   0.490   7.288   7.567
 2627TIP3    H229517   0.625   7.217   7.560
 2628TIP3   OH229518   1.696   5.744   7.731
 2628TIP3    H129519   1.613   5.774   7.690
 2628TIP3    H229520   1.712   5.662   7.679
 2629TIP3   OH229521   0.426   7.259   7.136
 2629TIP3    H129522   0.406   7.174   7.178
 2629TIP3    H229523   0.501   7.284   7.196
 2630TIP3   OH229524   0.642   7.265   7.267
 2630TIP3    H129525   0.705   7.207   7.222
 2630TIP3    H229526   0.689   7.305   7.340
 2631TIP3   OH229527   1.032   5.888   7.160
 2631TIP3    H129528   0.967   5.821   7.185
 2631TIP3    H229529   1.089   5.835   7.101
 2632TIP3   OH229530   1.548   5.691   7.166
 2632TIP3    H129531   1.609   5.750   7.115
 2632TIP3    H229532   1.460   5.727   7.143
 2633TIP3   OH229533   1.715   5.818   6.993
 2633TIP3    H129534   1.783   5.759   6.953
 2633TIP3    H229535   1.765   5.902   7.005
 2634TIP3   OH229536   0.270   5.748   6.947
 2634TIP3    H129537   0.194   5.728   6.888
 2634TIP3    H229538   0.321   5.666   6.935
 2635TIP3   OH229539   0.149   5.725   6.517
 2635TIP3    H129540   0.198   5.788   6.461
 2635TIP3    H229541   0.093   5.780   6.574
 2636TIP3   OH229542   0.717   5.742   6.924
 2636TIP3    H129543   0.807   5.778   6.913
 2636TIP3    H229544   0.717   5.718   7.016
 2637TIP3   OH229545   1.290   5.744   7.084
 2637TIP3    H129546   1.284   5.755   6.988
 2637TIP3    H229547   1.253   5.653   7.097
 2638TIP3   OH229548   1.415   5.748   6.652
 2638TIP3    H129549   1.341   5.808   6.639
 2638TIP3    H229550   1.372   5.662   6.675
 2639TIP3   OH229551   0.161  -0.046   6.662
 2639TIP3    H129552   0.110  -0.066   6.579
 2639TIP3    H229553   0.162   0.049   6.671
 2640TIP3   OH229554   0.344   5.915   6.370
 2640TIP3    H129555   0.396   5.853   6.317
 2640TIP3    H229556   0.409   5.943   6.438
 2641TIP3   OH229557   0.253   5.807   7.895
 2641TIP3    H129558   0.219   5.722   7.929
 2641TIP3    H229559   0.346   5.800   7.926
 2642TIP3   OH229560   0.460   5.743   8.055
 2642TIP3    H129561   0.548   5.707   8.030
 2642TIP3    H229562   0.420   5.663   8.095
 2643TIP3   OH229563   1.300   5.671   8.069
 2643TIP3    H129564   1.310   5.623   8.153
 2643TIP3    H229565   1.391   5.668   8.033
 2644TIP3   OH229566   1.610   7.268   7.949
 2644TIP3    H129567   1.544   7.260   7.878
 2644TIP3    H229568   1.623   7.364   7.948
 2645TIP3   OH229569   3.065   6.662   6.929
 2645TIP3    H129570   3.063   6.761   6.924
 2645TIP3    H229571   2.993   6.640   6.868
 2646TIP3   OH229572   2.952   6.588   7.279
 2646TIP3    H129573   2.950   6.524   7.351
 2646TIP3    H229574   2.916   6.538   7.204
 2647TIP3   OH229575   2.184   6.557   7.435
 2647TIP3    H129576   2.195   6.488   7.504
 2647TIP3    H229577   2.260   6.613   7.456
 2648TIP3   OH229578   3.320   6.882   7.109
 2648TIP3    H129579   3.277   6.811   7.158
 2648TIP3    H229580   3.323   6.954   7.175
 2649TIP3   OH229581   2.284   7.002   7.290
 2649TIP3    H129582   2.249   6.917   7.255
 2649TIP3    H229583   2.378   6.980   7.290
 2650TIP3   OH229584   1.940   6.357   6.833
 2650TIP3    H129585   1.903   6.446   6.823
 2650TIP3    H229586   1.887   6.303   6.773
 2651TIP3   OH229587   2.010   6.576   7.047
 2651TIP3    H129588   2.048   6.497   7.094
 2651TIP3    H229589   2.083   6.592   6.984
 2652TIP3   OH229590   2.787   6.824   7.328
 2652TIP3    H129591   2.822   6.765   7.260
 2652TIP3    H229592   2.869   6.846   7.377
 2653TIP3   OH229593   3.648   5.995   7.399
 2653TIP3    H129594   3.666   6.054   7.476
 2653TIP3    H229595   3.706   6.037   7.333
 2654TIP3   OH229596   3.106   6.276   7.359
 2654TIP3    H129597   3.123   6.180   7.359
 2654TIP3    H229598   3.096   6.290   7.263
 2655TIP3   OH229599   2.414   6.083   7.080
 2655TIP3    H129600   2.429   6.168   7.032
 2655TIP3    H229601   2.377   6.028   7.008
 2656TIP3   OH229602   3.190   6.094   6.918
 2656TIP3    H129603   3.256   6.061   6.984
 2656TIP3    H229604   3.247   6.149   6.862
 2657TIP3   OH229605   2.077   6.325   7.153
 2657TIP3    H129606   2.146   6.273   7.199
 2657TIP3    H229607   2.093   6.293   7.062
 2658TIP3   OH229608   2.588   6.479   7.100
 2658TIP3    H129609   2.664   6.423   7.122
 2658TIP3    H229610   2.548   6.422   7.030
 2659TIP3   OH229611   3.692   6.135   7.627
 2659TIP3    H129612   3.632   6.212   7.616
 2659TIP3    H229613   3.696   6.128   7.724
 2660TIP3   OH229614   2.308   5.975   7.484
 2660TIP3    H129615   2.280   6.032   7.409
 2660TIP3    H229616   2.241   5.997   7.552
 2661TIP3   OH229617   3.038   6.922   6.839
 2661TIP3    H129618   3.007   6.896   6.750
 2661TIP3    H229619   3.011   7.016   6.841
 2662TIP3   OH229620   2.560   6.737   7.509
 2662TIP3    H129621   2.489   6.801   7.529
 2662TIP3    H229622   2.630   6.797   7.479
 2663TIP3   OH229623   3.371   6.029   7.117
 2663TIP3    H129624   3.350   5.951   7.169
 2663TIP3    H229625   3.439   6.071   7.172
 2664TIP3   OH229626   2.265   6.160   7.288
 2664TIP3    H129627   2.328   6.229   7.319
 2664TIP3    H229628   2.316   6.119   7.214
 2665TIP3   OH229629   2.403   6.938   7.593
 2665TIP3    H129630   2.400   7.025   7.550
 2665TIP3    H229631   2.313   6.930   7.631
 2666TIP3   OH229632   3.374   7.070   7.350
 2666TIP3    H129633   3.277   7.075   7.357
 2666TIP3    H229634   3.400   7.160   7.323
 2667TIP3   OH229635   3.405   5.895   7.484
 2667TIP3    H129636   3.333   5.959   7.474
 2667TIP3    H229637   3.477   5.937   7.432
 2668TIP3   OH229638   2.701   5.708   7.231
 2668TIP3    H129639   2.687   5.612   7.223
 2668TIP3    H229640   2.614   5.739   7.261
 2669TIP3   OH229641   3.201   7.223   6.996
 2669TIP3    H129642   3.249   7.159   6.941
 2669TIP3    H229643   3.239   7.305   6.963
 2670TIP3   OH229644   3.326   7.036   6.855
 2670TIP3    H129645   3.290   6.970   6.792
 2670TIP3    H229646   3.322   6.986   6.938
 2671TIP3   OH229647   3.481   6.899   7.705
 2671TIP3    H129648   3.495   6.832   7.634
 2671TIP3    H229649   3.506   6.982   7.660
 2672TIP3   OH229650   2.940   6.589   6.679
 2672TIP3    H129651   2.862   6.643   6.649
 2672TIP3    H229652   3.002   6.609   6.609
 2673TIP3   OH229653   2.938   6.432   6.390
 2673TIP3    H129654   3.013   6.447   6.446
 2673TIP3    H229655   2.975   6.379   6.320
 2674TIP3   OH229656   3.671   6.529   7.509
 2674TIP3    H129657   3.605   6.602   7.513
 2674TIP3    H229658   3.720   6.553   7.429
 2675TIP3   OH229659   3.277   6.607   6.774
 2675TIP3    H129660   3.200   6.632   6.830
 2675TIP3    H229661   3.324   6.541   6.828
 2676TIP3   OH229662   3.269   6.425   7.686
 2676TIP3    H129663   3.270   6.507   7.737
 2676TIP3    H229664   3.206   6.454   7.616
 2677TIP3   OH229665   2.432   6.674   6.967
 2677TIP3    H129666   2.410   6.636   6.878
 2677TIP3    H229667   2.500   6.607   6.995
 2678TIP3   OH229668   2.573   7.011   7.230
 2678TIP3    H129669   2.571   6.956   7.151
 2678TIP3    H229670   2.649   6.976   7.280
 2679TIP3   OH229671   2.469   6.549   7.335
 2679TIP3    H129672   2.523   6.556   7.252
 2679TIP3    H229673   2.511   6.616   7.393
 2680TIP3   OH229674   3.111   7.106   7.401
 2680TIP3    H129675   3.079   7.170   7.464
 2680TIP3    H229676   3.085   7.020   7.443
 2681TIP3   OH229677   2.568   6.998   7.799
 2681TIP3    H129678   2.524   7.063   7.856
 2681TIP3    H229679   2.500   6.969   7.732
 2682TIP3   OH229680   2.260   6.609   7.716
 2682TIP3    H129681   2.266   6.675   7.787
 2682TIP3    H229682   2.166   6.615   7.696
 2683TIP3   OH229683   2.925   7.197   6.898
 2683TIP3    H129684   2.985   7.232   6.963
 2683TIP3    H229685   2.883   7.274   6.859
 2684TIP3   OH229686   2.387   7.191   7.879
 2684TIP3    H129687   2.391   7.152   7.791
 2684TIP3    H229688   2.298   7.167   7.913
 2685TIP3   OH229689   2.328   6.577   6.730
 2685TIP3    H129690   2.309   6.654   6.672
 2685TIP3    H229691   2.266   6.510   6.703
 2686TIP3   OH229692   1.943   6.820   7.618
 2686TIP3    H129693   1.899   6.812   7.532
 2686TIP3    H229694   1.952   6.725   7.639
 2687TIP3   OH229695   1.921   7.096   7.291
 2687TIP3    H129696   2.017   7.083   7.288
 2687TIP3    H229697   1.912   7.174   7.347
 2688TIP3   OH229698   3.739   7.163   7.869
 2688TIP3    H129699   3.729   7.067   7.860
 2688TIP3    H229700   3.652   7.189   7.904
 2689TIP3   OH229701   2.833   7.124   7.743
 2689TIP3    H129702   2.850   7.196   7.804
 2689TIP3    H229703   2.754   7.079   7.778
 2690TIP3   OH229704   3.457   6.310   7.908
 2690TIP3    H129705   3.409   6.355   7.837
 2690TIP3    H229706   3.456   6.217   7.879
 2691TIP3   OH229707   2.171   6.956   7.715
 2691TIP3    H129708   2.194   6.911   7.800
 2691TIP3    H229709   2.088   6.910   7.688
 2692TIP3   OH229710   2.440   5.799   7.305
 2692TIP3    H129711   2.350   5.785   7.269
 2692TIP3    H229712   2.427   5.882   7.354
 2693TIP3   OH229713   2.905   5.764   7.641
 2693TIP3    H129714   2.944   5.722   7.720
 2693TIP3    H229715   2.807   5.753   7.656
 2694TIP3   OH229716   3.233   6.150   7.730
 2694TIP3    H129717   3.177   6.128   7.809
 2694TIP3    H229718   3.215   6.243   7.709
 2695TIP3   OH229719   2.451   6.296   7.433
 2695TIP3    H129720   2.376   6.295   7.495
 2695TIP3    H229721   2.446   6.386   7.394
 2696TIP3   OH229722   2.440   6.293   6.925
 2696TIP3    H129723   2.348   6.280   6.900
 2696TIP3    H229724   2.485   6.287   6.838
 2697TIP3   OH229725   2.997   6.354   6.792
 2697TIP3    H129726   2.955   6.438   6.762
 2697TIP3    H229727   3.068   6.343   6.727
 2698TIP3   OH229728   2.904   6.379   7.937
 2698TIP3    H129729   2.852   6.300   7.968
 2698TIP3    H229730   2.987   6.367   7.986
 2699TIP3   OH229731   3.105   6.308   7.078
 2699TIP3    H129732   3.072   6.363   7.005
 2699TIP3    H229733   3.111   6.222   7.032
 2700TIP3   OH229734   2.212   6.320   7.598
 2700TIP3    H129735   2.221   6.361   7.686
 2700TIP3    H229736   2.169   6.236   7.621
 2701TIP3   OH229737   1.879   6.034   6.997
 2701TIP3    H129738   1.947   6.025   7.067
 2701TIP3    H229739   1.922   5.993   6.919
 2702TIP3   OH229740   2.005   6.107   6.532
 2702TIP3    H129741   2.052   6.173   6.481
 2702TIP3    H229742   1.934   6.166   6.567
 2703TIP3   OH229743   3.021   6.465   7.534
 2703TIP3    H129744   3.060   6.396   7.476
 2703TIP3    H229745   2.974   6.412   7.601
 2704TIP3   OH229746   2.701   6.059   7.018
 2704TIP3    H129747   2.608   6.066   7.048
 2704TIP3    H229748   2.750   6.047   7.100
 2705TIP3   OH229749   2.177   6.217   6.907
 2705TIP3    H129750   2.091   6.230   6.864
 2705TIP3    H229751   2.214   6.136   6.867
 2706TIP3   OH229752   2.546   6.215   6.657
 2706TIP3    H129753   2.635   6.237   6.692
 2706TIP3    H229754   2.525   6.296   6.609
 2707TIP3   OH229755   3.142   5.987   7.342
 2707TIP3    H129756   3.073   5.991   7.412
 2707TIP3    H229757   3.092   5.960   7.264
 2708TIP3   OH229758   2.231   6.804   7.931
 2708TIP3    H129759   2.301   6.819   7.997
 2708TIP3    H229760   2.152   6.804   7.989
 2709TIP3   OH229761   2.832   6.339   7.210
 2709TIP3    H129762   2.889   6.286   7.153
 2709TIP3    H229763   2.814   6.282   7.285
 2710TIP3   OH229764   2.330   5.956   6.842
 2710TIP3    H129765   2.302   5.864   6.853
 2710TIP3    H229766   2.414   5.949   6.795
 2711TIP3   OH229767   2.694   6.170   7.450
 2711TIP3    H129768   2.612   6.223   7.457
 2711TIP3    H229769   2.750   6.207   7.521
 2712TIP3   OH229770   2.753   6.793   6.620
 2712TIP3    H129771   2.675   6.746   6.586
 2712TIP3    H229772   2.730   6.805   6.713
 2713TIP3   OH229773   3.473   6.713   7.498
 2713TIP3    H129774   3.528   6.764   7.436
 2713TIP3    H229775   3.386   6.718   7.453
 2714TIP3   OH229776   3.139   6.075   6.435
 2714TIP3    H129777   3.044   6.085   6.423
 2714TIP3    H229778   3.168   6.162   6.468
 2715TIP3   OH229779   2.901   6.823   7.742
 2715TIP3    H129780   2.867   6.777   7.819
 2715TIP3    H229781   2.877   6.915   7.755
 2716TIP3   OH229782   3.208   6.273   6.606
 2716TIP3    H129783   3.298   6.254   6.642
 2716TIP3    H229784   3.224   6.347   6.546
 2717TIP3   OH229785   2.263   6.731   7.198
 2717TIP3    H129786   2.332   6.724   7.129
 2717TIP3    H229787   2.273   6.647   7.246
 2718TIP3   OH229788   1.963   6.573   7.725
 2718TIP3    H129789   1.980   6.529   7.810
 2718TIP3    H229790   1.901   6.511   7.683
 2719TIP3   OH229791   2.664   6.527   7.943
 2719TIP3    H129792   2.632   6.497   7.856
 2719TIP3    H229793   2.757   6.496   7.941
 2720TIP3   OH229794   3.131   7.072   7.732
 2720TIP3    H129795   3.037   7.078   7.715
 2720TIP3    H229796   3.128   7.089   7.829
 2721TIP3   OH229797   3.694   6.282   6.579
 2721TIP3    H129798   3.643   6.252   6.504
 2721TIP3    H229799   3.711   6.376   6.552
 2722TIP3   OH229800   3.699   6.865   7.856
 2722TIP3    H129801   3.609   6.888   7.822
 2722TIP3    H229802   3.753   6.862   7.774
 2723TIP3   OH229803   3.550   7.141   6.626
 2723TIP3    H129804   3.485   7.073   6.650
 2723TIP3    H229805   3.548   7.146   6.530
 2724TIP3   OH229806   3.249   6.645   7.328
 2724TIP3    H129807   3.155   6.624   7.316
 2724TIP3    H229808   3.292   6.569   7.283
 2725TIP3   OH229809   2.502   7.075   6.929
 2725TIP3    H129810   2.550   7.156   6.912
 2725TIP3    H229811   2.412   7.100   6.907
 2726TIP3   OH229812   2.082   6.560   6.394
 2726TIP3    H129813   2.138   6.632   6.428
 2726TIP3    H229814   1.992   6.587   6.418
 2727TIP3   OH229815   2.648   6.848   6.896
 2727TIP3    H129816   2.611   6.938   6.896
 2727TIP3    H229817   2.573   6.795   6.931
 2728TIP3   OH229818   2.699   7.241   7.512
 2728TIP3    H129819   2.732   7.331   7.495
 2728TIP3    H229820   2.753   7.217   7.590
 2729TIP3   OH229821   2.477  -0.009   6.809
 2729TIP3    H129822   2.394   0.006   6.855
 2729TIP3    H229823   2.532   0.058   6.857
 2730TIP3   OH229824   3.041   6.863   7.493
 2730TIP3    H129825   3.006   6.840   7.582
 2730TIP3    H229826   3.103   6.790   7.474
 2731TIP3   OH229827   3.319   7.313   7.740
 2731TIP3    H129828   3.247   7.267   7.694
 2731TIP3    H229829   3.334   7.390   7.683
 2732TIP3   OH229830   2.128   6.047   7.681
 2732TIP3    H129831   2.037   6.082   7.678
 2732TIP3    H229832   2.117   5.962   7.726
 2733TIP3   OH229833   3.351   6.835   6.635
 2733TIP3    H129834   3.325   6.750   6.675
 2733TIP3    H229835   3.446   6.836   6.644
 2734TIP3   OH229836   2.098   7.223   7.522
 2734TIP3    H129837   2.115   7.128   7.523
 2734TIP3    H229838   2.097   7.251   7.613
 2735TIP3   OH229839   2.557   7.030   6.498
 2735TIP3    H129840   2.596   6.977   6.568
 2735TIP3    H229841   2.574   7.122   6.524
 2736TIP3   OH229842   2.214   6.753   6.546
 2736TIP3    H129843   2.149   6.797   6.600
 2736TIP3    H229844   2.272   6.825   6.512
 2737TIP3   OH229845   3.001   6.024   7.576
 2737TIP3    H129846   3.073   6.030   7.640
 2737TIP3    H229847   2.963   5.936   7.597
 2738TIP3   OH229848   3.078   5.982   6.685
 2738TIP3    H129849   3.099   6.030   6.603
 2738TIP3    H229850   3.133   6.026   6.751
 2739TIP3   OH229851   2.801   6.153   6.763
 2739TIP3    H129852   2.874   6.217   6.770
 2739TIP3    H229853   2.770   6.147   6.856
 2740TIP3   OH229854   2.855   6.259   7.686
 2740TIP3    H129855   2.862   6.314   7.766
 2740TIP3    H229856   2.920   6.189   7.695
 2741TIP3   OH229857   2.882   5.862   6.857
 2741TIP3    H129858   2.849   5.929   6.919
 2741TIP3    H229859   2.951   5.915   6.809
 2742TIP3   OH229860   2.586  -0.035   6.563
 2742TIP3    H129861   2.597   0.049   6.517
 2742TIP3    H229862   2.556  -0.010   6.653
 2743TIP3   OH229863   3.471   6.046   7.770
 2743TIP3    H129864   3.379   6.077   7.757
 2743TIP3    H229865   3.502   6.043   7.677
 2744TIP3   OH229866   3.333   6.424   7.172
 2744TIP3    H129867   3.251   6.380   7.142
 2744TIP3    H229868   3.381   6.355   7.222
 2745TIP3   OH229869   2.188   5.762   7.218
 2745TIP3    H129870   2.169   5.764   7.122
 2745TIP3    H229871   2.147   5.676   7.243
 2746TIP3   OH229872   2.093   7.152   6.843
 2746TIP3    H129873   2.003   7.190   6.834
 2746TIP3    H229874   2.131   7.200   6.768
 2747TIP3   OH229875   2.492   7.281   8.141
 2747TIP3    H129876   2.580   7.246   8.158
 2747TIP3    H229877   2.483   7.267   8.045
 2748TIP3   OH229878   3.125   7.132   7.988
 2748TIP3    H129879   3.088   7.052   8.029
 2748TIP3    H229880   3.196   7.156   8.049
 2749TIP3   OH229881   3.342   7.242   6.291
 2749TIP3    H129882   3.366   7.155   6.327
 2749TIP3    H229883   3.410   7.257   6.225
 2750TIP3   OH229884   1.994   6.795   8.060
 2750TIP3    H129885   2.012   6.705   8.028
 2750TIP3    H229886   1.923   6.825   8.001
 2751TIP3   OH229887   2.670   6.793   7.996
 2751TIP3    H129888   2.633   6.824   7.911
 2751TIP3    H229889   2.675   6.695   7.986
 2752TIP3   OH229890   3.236   6.780   7.739
 2752TIP3    H129891   3.315   6.838   7.732
 2752TIP3    H229892   3.167   6.847   7.743
 2753TIP3   OH229893   2.089   6.522   7.999
 2753TIP3    H129894   2.129   6.435   7.991
 2753TIP3    H229895   2.065   6.522   8.094
 2754TIP3   OH229896   2.551   6.632   6.503
 2754TIP3    H129897   2.513   6.579   6.575
 2754TIP3    H229898   2.578   6.563   6.441
 2755TIP3   OH229899   2.477   6.414   7.734
 2755TIP3    H129900   2.418   6.486   7.760
 2755TIP3    H229901   2.517   6.450   7.654
 2756TIP3   OH229902   2.985   6.671   8.077
 2756TIP3    H129903   3.080   6.666   8.056
 2756TIP3    H229904   2.968   6.591   8.130
 2757TIP3   OH229905   2.519   6.153   7.838
 2757TIP3    H129906   2.530   6.081   7.773
 2757TIP3    H229907   2.514   6.234   7.783
 2758TIP3   OH229908   2.559   5.989   7.596
 2758TIP3    H129909   2.609   6.036   7.525
 2758TIP3    H229910   2.469   5.982   7.555
 2759TIP3   OH229911   2.712   6.539   7.620
 2759TIP3    H129912   2.787   6.522   7.562
 2759TIP3    H229913   2.675   6.622   7.586
 2760TIP3   OH229914   3.152   6.312   8.115
 2760TIP3    H129915   3.174   6.218   8.108
 2760TIP3    H229916   3.239   6.355   8.117
 2761TIP3   OH229917   3.287   6.594   7.935
 2761TIP3    H129918   3.261   6.665   7.872
 2761TIP3    H229919   3.382   6.589   7.913
 2762TIP3   OH229920   2.366   6.275   8.035
 2762TIP3    H129921   2.288   6.220   8.015
 2762TIP3    H229922   2.429   6.240   7.968
 2763TIP3   OH229923   2.636   5.732   7.636
 2763TIP3    H129924   2.619   5.829   7.625
 2763TIP3    H229925   2.562   5.696   7.584
 2764TIP3   OH229926   2.765   6.166   7.999
 2764TIP3    H129927   2.732   6.144   8.088
 2764TIP3    H229928   2.687   6.147   7.943
 2765TIP3   OH229929   3.036   6.080   7.904
 2765TIP3    H129930   2.940   6.086   7.918
 2765TIP3    H229931   3.063   6.017   7.974
 2766TIP3   OH229932   3.191   5.943   8.096
 2766TIP3    H129933   3.190   5.845   8.100
 2766TIP3    H229934   3.168   5.972   8.187
 2767TIP3   OH229935   2.173   6.071   8.007
 2767TIP3    H129936   2.197   5.996   7.950
 2767TIP3    H229937   2.164   6.027   8.095
 2768TIP3   OH229938   2.659   5.672   7.904
 2768TIP3    H129939   2.727   5.602   7.902
 2768TIP3    H229940   2.648   5.687   7.809
 2769TIP3   OH229941   2.693   5.833   8.115
 2769TIP3    H129942   2.677   5.783   8.031
 2769TIP3    H229943   2.636   5.911   8.104
 2770TIP3   OH229944   1.947   7.332   7.063
 2770TIP3    H129945   1.916   7.244   7.087
 2770TIP3    H229946   1.976   7.367   7.148
 2771TIP3   OH229947   3.515   6.943   8.122
 2771TIP3    H129948   3.424   6.944   8.157
 2771TIP3    H229949   3.552   7.026   8.161
 2772TIP3   OH229950   3.645   6.773   6.661
 2772TIP3    H129951   3.729   6.817   6.682
 2772TIP3    H229952   3.644   6.705   6.732
 2773TIP3   OH229953   3.682   6.588   6.851
 2773TIP3    H129954   3.606   6.537   6.887
 2773TIP3    H229955   3.741   6.599   6.928
 2774TIP3   OH229956   3.656   6.857   7.352
 2774TIP3    H129957   3.737   6.819   7.312
 2774TIP3    H229958   3.670   6.951   7.333
 2775TIP3   OH229959   3.508   7.149   7.579
 2775TIP3    H129960   3.441   7.184   7.639
 2775TIP3    H229961   3.455   7.106   7.509
 2776TIP3   OH229962   3.711   6.574   6.489
 2776TIP3    H129963   3.647   6.602   6.422
 2776TIP3    H229964   3.699   6.643   6.557
 2777TIP3   OH229965   3.464   6.433   6.909
 2777TIP3    H129966   3.447   6.338   6.904
 2777TIP3    H229967   3.429   6.455   6.997
 2778TIP3   OH229968   1.963   6.638   7.311
 2778TIP3    H129969   1.989   6.637   7.217
 2778TIP3    H229970   2.052   6.626   7.351
 2779TIP3   OH229971   3.549   6.631   7.879
 2779TIP3    H129972   3.610   6.555   7.889
 2779TIP3    H229973   3.610   6.708   7.877
 2780TIP3   OH229974   3.698   6.419   7.942
 2780TIP3    H129975   3.610   6.378   7.926
 2780TIP3    H229976   3.756   6.341   7.935
 2781TIP3   OH229977   3.428   6.190   6.750
 2781TIP3    H129978   3.459   6.098   6.768
 2781TIP3    H229979   3.509   6.233   6.719
 2782TIP3   OH229980   3.493   6.246   7.298
 2782TIP3    H129981   3.589   6.270   7.296
 2782TIP3    H229982   3.475   6.261   7.392
 2783TIP3   OH229983   3.500   6.319   7.575
 2783TIP3    H129984   3.412   6.347   7.608
 2783TIP3    H229985   3.543   6.405   7.554
 2784TIP3   OH229986   1.926   6.172   7.928
 2784TIP3    H129987   2.019   6.151   7.949
 2784TIP3    H229988   1.879   6.090   7.957
 2785TIP3   OH229989   3.729   5.725   8.109
 2785TIP3    H129990   3.763   5.657   8.049
 2785TIP3    H229991   3.737   5.806   8.056
 2786TIP3   OH229992   3.499   5.917   6.752
 2786TIP3    H129993   3.517   5.878   6.840
 2786TIP3    H229994   3.431   5.857   6.716
 2787TIP3   OH229995   2.045   6.002   7.215
 2787TIP3    H129996   2.090   5.919   7.239
 2787TIP3    H229997   2.102   6.070   7.253
 2788TIP3   OH229998   1.867   6.311   7.309
 2788TIP3    H129999   1.933   6.274   7.245
 2788TIP3    H230000   1.924   6.379   7.349
 2789TIP3   OH230001   3.679   5.935   7.946
 2789TIP3    H130002   3.585   5.962   7.943
 2789TIP3    H230003   3.682   5.880   7.866
 2790TIP3   OH230004   1.910   5.933   6.730
 2790TIP3    H130005   1.815   5.944   6.712
 2790TIP3    H230006   1.950   5.975   6.653
 2791TIP3   OH230007   1.904   5.794   7.554
 2791TIP3    H130008   1.838   5.774   7.622
 2791TIP3    H230009   1.858   5.861   7.500
 2792TIP3   OH230010   2.128   7.121   7.968
 2792TIP3    H130011   2.040   7.134   7.929
 2792TIP3    H230012   2.104   7.102   8.061
 2793TIP3   OH230013   2.428   7.209   7.583
 2793TIP3    H130014   2.389   7.283   7.535
 2793TIP3    H230015   2.522   7.212   7.554
 2794TIP3   OH230016   3.581   5.744   7.731
 2794TIP3    H130017   3.499   5.774   7.690
 2794TIP3    H230018   3.598   5.662   7.680
 2795TIP3   OH230019   2.309   7.262   7.141
 2795TIP3    H130020   2.295   7.172   7.176
 2795TIP3    H230021   2.387   7.284   7.197
 2796TIP3   OH230022   2.528   7.264   7.267
 2796TIP3    H130023   2.590   7.205   7.222
 2796TIP3    H230024   2.576   7.305   7.339
 2797TIP3   OH230025   2.920   5.886   7.160
 2797TIP3    H130026   2.852   5.823   7.188
 2797TIP3    H230027   2.975   5.833   7.101
 2798TIP3   OH230028   3.433   5.691   7.165
 2798TIP3    H130029   3.495   5.751   7.116
 2798TIP3    H230030   3.346   5.727   7.141
 2799TIP3   OH230031   3.599   5.818   6.994
 2799TIP3    H130032   3.668   5.759   6.955
 2799TIP3    H230033   3.651   5.900   7.007
 2800TIP3   OH230034   2.159   5.750   6.943
 2800TIP3    H130035   2.076   5.730   6.894
 2800TIP3    H230036   2.203   5.662   6.938
 2801TIP3   OH230037   2.604   5.739   6.924
 2801TIP3    H130038   2.693   5.777   6.914
 2801TIP3    H230039   2.602   5.721   7.018
 2802TIP3   OH230040   3.175   5.744   7.085
 2802TIP3    H130041   3.171   5.754   6.989
 2802TIP3    H230042   3.138   5.653   7.097
 2803TIP3   OH230043   3.302   5.743   6.643
 2803TIP3    H130044   3.229   5.808   6.642
 2803TIP3    H230045   3.257   5.663   6.678
 2804TIP3   OH230046   2.007  -0.041   6.651
 2804TIP3    H130047   1.962  -0.035   6.565
 2804TIP3    H230048   2.034   0.051   6.661
 2805TIP3   OH230049   2.713   5.942   6.611
 2805TIP3    H130050   2.745   5.885   6.681
 2805TIP3    H230051   2.725   6.030   6.654
 2806TIP3   OH230052   2.145   5.802   7.889
 2806TIP3    H130053   2.106   5.723   7.930
 2806TIP3    H230054   2.236   5.799   7.927
 2807TIP3   OH230055   2.345   5.743   8.055
 2807TIP3    H130056   2.433   5.709   8.030
 2807TIP3    H230057   2.308   5.662   8.095
 2808TIP3   OH230058   3.186   5.671   8.069
 2808TIP3    H130059   3.197   5.623   8.154
 2808TIP3    H230060   3.278   5.668   8.033
 2809TIP3   OH230061   3.495   7.268   7.950
 2809TIP3    H130062   3.430   7.260   7.878
 2809TIP3    H230063   3.509   7.364   7.948
 2810TIP3   OH230064   4.951   6.661   6.928
 2810TIP3    H130065   4.951   6.759   6.928
 2810TIP3    H230066   4.877   6.642   6.870
 2811TIP3   OH230067   4.837   6.588   7.279
 2811TIP3    H130068   4.836   6.524   7.351
 2811TIP3    H230069   4.801   6.538   7.204
 2812TIP3   OH230070   4.072   6.557   7.435
 2812TIP3    H130071   4.081   6.488   7.504
 2812TIP3    H230072   4.147   6.613   7.457
 2813TIP3   OH230073   5.205   6.881   7.109
 2813TIP3    H130074   5.163   6.811   7.159
 2813TIP3    H230075   5.209   6.954   7.174
 2814TIP3   OH230076   4.169   7.001   7.287
 2814TIP3    H130077   4.135   6.915   7.255
 2814TIP3    H230078   4.263   6.981   7.292
 2815TIP3   OH230079   3.826   6.356   6.838
 2815TIP3    H130080   3.788   6.445   6.828
 2815TIP3    H230081   3.774   6.304   6.775
 2816TIP3   OH230082   3.901   6.579   7.049
 2816TIP3    H130083   3.928   6.497   7.094
 2816TIP3    H230084   3.970   6.590   6.982
 2817TIP3   OH230085   4.673   6.825   7.329
 2817TIP3    H130086   4.707   6.766   7.260
 2817TIP3    H230087   4.755   6.845   7.378
 2818TIP3   OH230088   5.534   5.995   7.399
 2818TIP3    H130089   5.552   6.053   7.476
 2818TIP3    H230090   5.591   6.037   7.333
 2819TIP3   OH230091   4.991   6.276   7.359
 2819TIP3    H130092   5.008   6.180   7.359
 2819TIP3    H230093   4.981   6.289   7.262
 2820TIP3   OH230094   4.302   6.084   7.080
 2820TIP3    H130095   4.314   6.167   7.031
 2820TIP3    H230096   4.263   6.027   7.010
 2821TIP3   OH230097   5.074   6.092   6.924
 2821TIP3    H130098   5.143   6.061   6.986
 2821TIP3    H230099   5.125   6.146   6.861
 2822TIP3   OH230100   3.965   6.326   7.154
 2822TIP3    H130101   4.032   6.272   7.199
 2822TIP3    H230102   3.976   6.294   7.063
 2823TIP3   OH230103   4.480   6.481   7.087
 2823TIP3    H130104   4.549   6.423   7.124
 2823TIP3    H230105   4.430   6.416   7.033
 2824TIP3   OH230106   5.577   6.135   7.626
 2824TIP3    H130107   5.517   6.213   7.615
 2824TIP3    H230108   5.580   6.128   7.723
 2825TIP3   OH230109   4.194   5.974   7.484
 2825TIP3    H130110   4.165   6.032   7.409
 2825TIP3    H230111   4.126   5.997   7.552
 2826TIP3   OH230112   4.926   6.923   6.840
 2826TIP3    H130113   4.895   6.899   6.753
 2826TIP3    H230114   4.894   7.015   6.845
 2827TIP3   OH230115   4.445   6.738   7.508
 2827TIP3    H130116   4.374   6.802   7.530
 2827TIP3    H230117   4.515   6.797   7.478
 2828TIP3   OH230118   5.257   6.027   7.115
 2828TIP3    H130119   5.236   5.951   7.170
 2828TIP3    H230120   5.324   6.071   7.169
 2829TIP3   OH230121   4.151   6.160   7.287
 2829TIP3    H130122   4.213   6.229   7.319
 2829TIP3    H230123   4.202   6.120   7.213
 2830TIP3   OH230124   4.290   6.938   7.591
 2830TIP3    H130125   4.285   7.029   7.555
 2830TIP3    H230126   4.201   6.932   7.632
 2831TIP3   OH230127   3.892   6.905   6.672
 2831TIP3    H130128   3.870   6.934   6.582
 2831TIP3    H230129   3.907   6.988   6.722
 2832TIP3   OH230130   5.260   7.071   7.349
 2832TIP3    H130131   5.162   7.075   7.357
 2832TIP3    H230132   5.286   7.161   7.323
 2833TIP3   OH230133   5.291   5.895   7.484
 2833TIP3    H130134   5.218   5.959   7.474
 2833TIP3    H230135   5.362   5.937   7.431
 2834TIP3   OH230136   4.587   5.707   7.228
 2834TIP3    H130137   4.572   5.611   7.224
 2834TIP3    H230138   4.500   5.739   7.260
 2835TIP3   OH230139   5.085   7.225   6.996
 2835TIP3    H130140   5.135   7.160   6.944
 2835TIP3    H230141   5.126   7.305   6.964
 2836TIP3   OH230142   5.208   7.035   6.857
 2836TIP3    H130143   5.179   6.969   6.791
 2836TIP3    H230144   5.208   6.986   6.941
 2837TIP3   OH230145   5.367   6.899   7.705
 2837TIP3    H130146   5.381   6.832   7.635
 2837TIP3    H230147   5.391   6.982   7.660
 2838TIP3   OH230148   4.814   6.586   6.681
 2838TIP3    H130149   4.746   6.645   6.649
 2838TIP3    H230150   4.889   6.594   6.618
 2839TIP3   OH230151   5.556   6.529   7.509
 2839TIP3    H130152   5.490   6.602   7.513
 2839TIP3    H230153   5.606   6.553   7.429
 2840TIP3   OH230154   5.166   6.609   6.776
 2840TIP3    H130155   5.089   6.632   6.834
 2840TIP3    H230156   5.209   6.539   6.828
 2841TIP3   OH230157   5.155   6.425   7.686
 2841TIP3    H130158   5.155   6.507   7.737
 2841TIP3    H230159   5.092   6.454   7.616
 2842TIP3   OH230160   4.320   6.673   6.968
 2842TIP3    H130161   4.291   6.637   6.881
 2842TIP3    H230162   4.385   6.605   6.998
 2843TIP3   OH230163   4.456   7.010   7.234
 2843TIP3    H130164   4.455   6.959   7.152
 2843TIP3    H230165   4.535   6.976   7.280
 2844TIP3   OH230166   4.356   6.548   7.332
 2844TIP3    H130167   4.410   6.558   7.251
 2844TIP3    H230168   4.395   6.615   7.392
 2845TIP3   OH230169   4.997   7.105   7.402
 2845TIP3    H130170   4.965   7.170   7.464
 2845TIP3    H230171   4.971   7.020   7.444
 2846TIP3   OH230172   4.452   6.995   7.801
 2846TIP3    H130173   4.408   7.067   7.851
 2846TIP3    H230174   4.385   6.972   7.732
 2847TIP3   OH230175   5.047   6.524   6.557
 2847TIP3    H130176   5.104   6.545   6.634
 2847TIP3    H230177   5.086   6.574   6.485
 2848TIP3   OH230178   4.146   6.608   7.716
 2848TIP3    H130179   4.151   6.674   7.787
 2848TIP3    H230180   4.051   6.616   7.695
 2849TIP3   OH230181   4.820   7.198   6.889
 2849TIP3    H130182   4.868   7.230   6.965
 2849TIP3    H230183   4.763   7.270   6.862
 2850TIP3   OH230184   4.273   7.200   7.873
 2850TIP3    H130185   4.270   7.183   7.776
 2850TIP3    H230186   4.181   7.181   7.900
 2851TIP3   OH230187   5.423   5.701   6.540
 2851TIP3    H130188   5.328   5.715   6.553
 2851TIP3    H230189   5.442   5.774   6.481
 2852TIP3   OH230190   4.216   6.582   6.736
 2852TIP3    H130191   4.195   6.653   6.672
 2852TIP3    H230192   4.155   6.513   6.706
 2853TIP3   OH230193   5.537   7.140   6.366
 2853TIP3    H130194   5.544   7.235   6.379
 2853TIP3    H230195   5.627   7.107   6.359
 2854TIP3   OH230196   3.828   6.819   7.617
 2854TIP3    H130197   3.785   6.811   7.530
 2854TIP3    H230198   3.837   6.724   7.638
 2855TIP3   OH230199   3.811   7.098   7.289
 2855TIP3    H130200   3.906   7.083   7.290
 2855TIP3    H230201   3.800   7.173   7.349
 2856TIP3   OH230202   5.626   7.162   7.869
 2856TIP3    H130203   5.615   7.066   7.859
 2856TIP3    H230204   5.537   7.189   7.903
 2857TIP3   OH230205   4.721   7.121   7.745
 2857TIP3    H130206   4.734   7.197   7.802
 2857TIP3    H230207   4.639   7.080   7.777
 2858TIP3   OH230208   5.343   6.310   7.908
 2858TIP3    H130209   5.295   6.355   7.837
 2858TIP3    H230210   5.341   6.217   7.879
 2859TIP3   OH230211   4.058   6.952   7.713
 2859TIP3    H130212   4.080   6.913   7.801
 2859TIP3    H230213   3.973   6.910   7.688
 2860TIP3   OH230214   4.326   5.798   7.305
 2860TIP3    H130215   4.236   5.785   7.269
 2860TIP3    H230216   4.312   5.881   7.354
 2861TIP3   OH230217   4.790   5.764   7.641
 2861TIP3    H130218   4.829   5.722   7.720
 2861TIP3    H230219   4.693   5.753   7.656
 2862TIP3   OH230220   5.119   6.150   7.730
 2862TIP3    H130221   5.063   6.128   7.809
 2862TIP3    H230222   5.100   6.243   7.709
 2863TIP3   OH230223   4.337   6.296   7.433
 2863TIP3    H130224   4.262   6.295   7.495
 2863TIP3    H230225   4.331   6.386   7.394
 2864TIP3   OH230226   4.332   6.305   6.919
 2864TIP3    H130227   4.238   6.283   6.902
 2864TIP3    H230228   4.370   6.280   6.832
 2865TIP3   OH230229   4.881   6.352   6.788
 2865TIP3    H130230   4.844   6.439   6.763
 2865TIP3    H230231   4.952   6.344   6.724
 2866TIP3   OH230232   4.789   6.379   7.937
 2866TIP3    H130233   4.737   6.300   7.968
 2866TIP3    H230234   4.873   6.367   7.986
 2867TIP3   OH230235   4.987   6.307   7.078
 2867TIP3    H130236   4.959   6.363   7.003
 2867TIP3    H230237   4.998   6.222   7.032
 2868TIP3   OH230238   4.098   6.320   7.598
 2868TIP3    H130239   4.107   6.361   7.686
 2868TIP3    H230240   4.054   6.236   7.620
 2869TIP3   OH230241   3.764   6.030   6.998
 2869TIP3    H130242   3.832   6.027   7.068
 2869TIP3    H230243   3.810   5.993   6.920
 2870TIP3   OH230244   4.907   6.465   7.534
 2870TIP3    H130245   4.945   6.396   7.476
 2870TIP3    H230246   4.860   6.412   7.601
 2871TIP3   OH230247   4.588   6.060   7.018
 2871TIP3    H130248   4.494   6.062   7.046
 2871TIP3    H230249   4.635   6.046   7.102
 2872TIP3   OH230250   4.065   6.216   6.909
 2872TIP3    H130251   3.978   6.234   6.867
 2872TIP3    H230252   4.096   6.135   6.865
 2873TIP3   OH230253   4.428   6.229   6.677
 2873TIP3    H130254   4.525   6.228   6.683
 2873TIP3    H230255   4.409   6.283   6.599
 2874TIP3   OH230256   5.028   5.986   7.343
 2874TIP3    H130257   4.960   5.991   7.413
 2874TIP3    H230258   4.977   5.961   7.265
 2875TIP3   OH230259   4.116   6.798   7.933
 2875TIP3    H130260   4.187   6.821   7.996
 2875TIP3    H230261   4.037   6.805   7.990
 2876TIP3   OH230262   4.715   6.338   7.207
 2876TIP3    H130263   4.775   6.285   7.155
 2876TIP3    H230264   4.700   6.283   7.286
 2877TIP3   OH230265   4.216   5.955   6.849
 2877TIP3    H130266   4.186   5.863   6.846
 2877TIP3    H230267   4.296   5.949   6.794
 2878TIP3   OH230268   4.580   6.171   7.449
 2878TIP3    H130269   4.497   6.223   7.457
 2878TIP3    H230270   4.635   6.206   7.521
 2879TIP3   OH230271   5.358   6.713   7.498
 2879TIP3    H130272   5.413   6.764   7.436
 2879TIP3    H230273   5.272   6.718   7.453
 2880TIP3   OH230274   4.786   6.823   7.742
 2880TIP3    H130275   4.753   6.777   7.819
 2880TIP3    H230276   4.763   6.915   7.755
 2881TIP3   OH230277   4.150   6.733   7.199
 2881TIP3    H130278   4.218   6.726   7.129
 2881TIP3    H230279   4.156   6.647   7.244
 2882TIP3   OH230280   3.848   6.573   7.725
 2882TIP3    H130281   3.865   6.528   7.810
 2882TIP3    H230282   3.786   6.512   7.680
 2883TIP3   OH230283   4.549   6.527   7.942
 2883TIP3    H130284   4.517   6.497   7.856
 2883TIP3    H230285   4.642   6.497   7.941
 2884TIP3   OH230286   5.016   7.069   7.731
 2884TIP3    H130287   4.922   7.078   7.714
 2884TIP3    H230288   5.015   7.090   7.828
 2885TIP3   OH230289   5.585   6.864   7.856
 2885TIP3    H130290   5.496   6.888   7.822
 2885TIP3    H230291   5.638   6.862   7.774
 2886TIP3   OH230292   5.424   7.147   6.629
 2886TIP3    H130293   5.373   7.069   6.647
 2886TIP3    H230294   5.435   7.149   6.532
 2887TIP3   OH230295   5.135   6.644   7.328
 2887TIP3    H130296   5.041   6.624   7.316
 2887TIP3    H230297   5.178   6.569   7.283
 2888TIP3   OH230298   4.385   7.079   6.943
 2888TIP3    H130299   4.436   7.154   6.911
 2888TIP3    H230300   4.300   7.097   6.902
 2889TIP3   OH230301   3.969   6.560   6.396
 2889TIP3    H130302   4.024   6.630   6.432
 2889TIP3    H230303   3.880   6.590   6.418
 2890TIP3   OH230304   4.533   6.844   6.901
 2890TIP3    H130305   4.500   6.935   6.895
 2890TIP3    H230306   4.454   6.797   6.933
 2891TIP3   OH230307   4.589   7.239   7.508
 2891TIP3    H130308   4.614   7.332   7.498
 2891TIP3    H230309   4.635   7.219   7.591
 2892TIP3   OH230310   4.361  -0.006   6.811
 2892TIP3    H130311   4.279   0.009   6.858
 2892TIP3    H230312   4.417   0.061   6.858
 2893TIP3   OH230313   4.926   6.862   7.493
 2893TIP3    H130314   4.892   6.840   7.582
 2893TIP3    H230315   4.989   6.790   7.474
 2894TIP3   OH230316   5.207   7.307   7.737
 2894TIP3    H130317   5.130   7.270   7.693
 2894TIP3    H230318   5.218   7.393   7.691
 2895TIP3   OH230319   4.013   6.047   7.681
 2895TIP3    H130320   3.923   6.082   7.678
 2895TIP3    H230321   4.002   5.962   7.726
 2896TIP3   OH230322   5.233   6.833   6.631
 2896TIP3    H130323   5.216   6.754   6.684
 2896TIP3    H230324   5.330   6.839   6.637
 2897TIP3   OH230325   3.974   7.221   7.523
 2897TIP3    H130326   4.006   7.130   7.525
 2897TIP3    H230327   3.995   7.256   7.610
 2898TIP3   OH230328   4.099   6.759   6.541
 2898TIP3    H130329   4.035   6.800   6.600
 2898TIP3    H230330   4.160   6.829   6.514
 2899TIP3   OH230331   4.887   6.024   7.576
 2899TIP3    H130332   4.959   6.030   7.640
 2899TIP3    H230333   4.848   5.936   7.597
 2900TIP3   OH230334   4.740   7.206   6.581
 2900TIP3    H130335   4.646   7.234   6.574
 2900TIP3    H230336   4.784   7.241   6.505
 2901TIP3   OH230337   4.684   6.155   6.765
 2901TIP3    H130338   4.761   6.215   6.769
 2901TIP3    H230339   4.656   6.146   6.858
 2902TIP3   OH230340   4.740   6.259   7.686
 2902TIP3    H130341   4.748   6.314   7.766
 2902TIP3    H230342   4.806   6.189   7.695
 2903TIP3   OH230343   4.771   5.865   6.852
 2903TIP3    H130344   4.734   5.923   6.922
 2903TIP3    H230345   4.839   5.924   6.815
 2904TIP3   OH230346   4.480  -0.032   6.561
 2904TIP3    H130347   4.473   0.052   6.517
 2904TIP3    H230348   4.439  -0.016   6.649
 2905TIP3   OH230349   5.357   6.045   7.771
 2905TIP3    H130350   5.264   6.077   7.757
 2905TIP3    H230351   5.387   6.043   7.678
 2906TIP3   OH230352   5.218   6.424   7.171
 2906TIP3    H130353   5.136   6.379   7.143
 2906TIP3    H230354   5.266   6.355   7.223
 2907TIP3   OH230355   4.074   5.762   7.218
 2907TIP3    H130356   4.054   5.763   7.122
 2907TIP3    H230357   4.033   5.676   7.244
 2908TIP3   OH230358   3.969   7.151   6.822
 2908TIP3    H130359   3.885   7.199   6.834
 2908TIP3    H230360   4.022   7.209   6.767
 2909TIP3   OH230361   4.376   7.282   8.141
 2909TIP3    H130362   4.465   7.246   8.155
 2909TIP3    H230363   4.365   7.266   8.044
 2910TIP3   OH230364   4.911   7.357   6.256
 2910TIP3    H130365   4.814   7.339   6.229
 2910TIP3    H230366   4.910   7.263   6.222
 2911TIP3   OH230367   5.010   7.128   7.987
 2911TIP3    H130368   4.974   7.050   8.031
 2911TIP3    H230369   5.080   7.158   8.047
 2912TIP3   OH230370   5.293   7.267   6.353
 2912TIP3    H130371   5.265   7.173   6.348
 2912TIP3    H230372   5.310   7.275   6.258
 2913TIP3   OH230373   3.879   6.795   8.061
 2913TIP3    H130374   3.897   6.705   8.027
 2913TIP3    H230375   3.808   6.825   8.001
 2914TIP3   OH230376   4.555   6.793   7.996
 2914TIP3    H130377   4.518   6.825   7.912
 2914TIP3    H230378   4.560   6.695   7.985
 2915TIP3   OH230379   4.875   6.872   6.305
 2915TIP3    H130380   4.830   6.955   6.327
 2915TIP3    H230381   4.837   6.856   6.217
 2916TIP3   OH230382   5.122   6.780   7.739
 2916TIP3    H130383   5.201   6.838   7.732
 2916TIP3    H230384   5.052   6.847   7.743
 2917TIP3   OH230385   3.973   6.520   7.999
 2917TIP3    H130386   4.015   6.434   7.990
 2917TIP3    H230387   3.951   6.522   8.094
 2918TIP3   OH230388   4.363   6.413   7.734
 2918TIP3    H130389   4.303   6.486   7.760
 2918TIP3    H230390   4.403   6.450   7.654
 2919TIP3   OH230391   4.871   6.671   8.077
 2919TIP3    H130392   4.966   6.665   8.057
 2919TIP3    H230393   4.854   6.592   8.129
 2920TIP3   OH230394   4.405   6.153   7.838
 2920TIP3    H130395   4.415   6.081   7.773
 2920TIP3    H230396   4.399   6.234   7.783
 2921TIP3   OH230397   4.444   5.990   7.595
 2921TIP3    H130398   4.495   6.036   7.524
 2921TIP3    H230399   4.355   5.982   7.555
 2922TIP3   OH230400   4.597   6.539   7.620
 2922TIP3    H130401   4.673   6.522   7.562
 2922TIP3    H230402   4.561   6.622   7.586
 2923TIP3   OH230403   5.037   6.313   8.112
 2923TIP3    H130404   5.059   6.218   8.108
 2923TIP3    H230405   5.124   6.355   8.117
 2924TIP3   OH230406   5.172   6.594   7.935
 2924TIP3    H130407   5.146   6.665   7.872
 2924TIP3    H230408   5.267   6.591   7.913
 2925TIP3   OH230409   4.252   6.275   8.034
 2925TIP3    H130410   4.173   6.220   8.015
 2925TIP3    H230411   4.314   6.240   7.968
 2926TIP3   OH230412   4.522   5.733   7.635
 2926TIP3    H130413   4.504   5.829   7.625
 2926TIP3    H230414   4.448   5.696   7.584
 2927TIP3   OH230415   4.650   6.166   7.999
 2927TIP3    H130416   4.617   6.144   8.088
 2927TIP3    H230417   4.573   6.147   7.943
 2928TIP3   OH230418   4.922   6.080   7.904
 2928TIP3    H130419   4.826   6.086   7.918
 2928TIP3    H230420   4.949   6.018   7.974
 2929TIP3   OH230421   5.076   5.942   8.094
 2929TIP3    H130422   5.075   5.845   8.099
 2929TIP3    H230423   5.054   5.973   8.185
 2930TIP3   OH230424   4.058   6.071   8.007
 2930TIP3    H130425   4.082   5.996   7.949
 2930TIP3    H230426   4.049   6.027   8.095
 2931TIP3   OH230427   4.545   5.672   7.904
 2931TIP3    H130428   4.613   5.602   7.902
 2931TIP3    H230429   4.533   5.687   7.809
 2932TIP3   OH230430   4.579   5.832   8.114
 2932TIP3    H130431   4.563   5.783   8.031
 2932TIP3    H230432   4.522   5.911   8.104
 2933TIP3   OH230433   3.832   7.332   7.064
 2933TIP3    H130434   3.801   7.244   7.087
 2933TIP3    H230435   3.862   7.368   7.149
 2934TIP3   OH230436   5.401   6.943   8.123
 2934TIP3    H130437   5.310   6.944   8.157
 2934TIP3    H230438   5.437   7.026   8.161
 2935TIP3   OH230439   5.529   6.770   6.659
 2935TIP3    H130440   5.611   6.820   6.679
 2935TIP3    H230441   5.529   6.706   6.733
 2936TIP3   OH230442   5.570   6.583   6.847
 2936TIP3    H130443   5.493   6.539   6.889
 2936TIP3    H230444   5.626   6.601   6.926
 2937TIP3   OH230445   5.542   6.857   7.352
 2937TIP3    H130446   5.623   6.819   7.312
 2937TIP3    H230447   5.556   6.951   7.333
 2938TIP3   OH230448   5.394   7.147   7.579
 2938TIP3    H130449   5.327   7.185   7.638
 2938TIP3    H230450   5.340   7.106   7.508
 2939TIP3   OH230451   5.586   6.564   6.488
 2939TIP3    H130452   5.546   6.617   6.417
 2939TIP3    H230453   5.589   6.637   6.554
 2940TIP3   OH230454   5.350   6.433   6.905
 2940TIP3    H130455   5.332   6.338   6.906
 2940TIP3    H230456   5.317   6.456   6.994
 2941TIP3   OH230457   3.849   6.643   7.314
 2941TIP3    H130458   3.867   6.634   7.217
 2941TIP3    H230459   3.938   6.625   7.349
 2942TIP3   OH230460   5.434   6.631   7.879
 2942TIP3    H130461   5.496   6.555   7.889
 2942TIP3    H230462   5.495   6.708   7.877
 2943TIP3   OH230463   5.583   6.420   7.941
 2943TIP3    H130464   5.495   6.379   7.925
 2943TIP3    H230465   5.641   6.343   7.934
 2944TIP3   OH230466   5.340   6.043   6.262
 2944TIP3    H130467   5.408   5.992   6.306
 2944TIP3    H230468   5.258   5.992   6.269
 2945TIP3   OH230469   5.312   6.191   6.748
 2945TIP3    H130470   5.340   6.099   6.766
 2945TIP3    H230471   5.392   6.233   6.720
 2946TIP3   OH230472   5.379   6.246   7.298
 2946TIP3    H130473   5.475   6.270   7.297
 2946TIP3    H230474   5.360   6.261   7.392
 2947TIP3   OH230475   5.386   6.319   7.576
 2947TIP3    H130476   5.297   6.347   7.608
 2947TIP3    H230477   5.429   6.405   7.554
 2948TIP3   OH230478   3.811   6.172   7.928
 2948TIP3    H130479   3.905   6.151   7.949
 2948TIP3    H230480   3.765   6.090   7.957
 2949TIP3   OH230481   5.628   5.730   8.112
 2949TIP3    H130482   5.643   5.656   8.049
 2949TIP3    H230483   5.616   5.806   8.053
 2950TIP3   OH230484   5.382   5.921   6.756
 2950TIP3    H130485   5.404   5.878   6.843
 2950TIP3    H230486   5.321   5.856   6.716
 2951TIP3   OH230487   3.931   6.002   7.214
 2951TIP3    H130488   3.977   5.919   7.240
 2951TIP3    H230489   3.986   6.071   7.253
 2952TIP3   OH230490   3.759   6.302   7.318
 2952TIP3    H130491   3.815   6.277   7.242
 2952TIP3    H230492   3.806   6.382   7.345
 2953TIP3   OH230493   5.567   5.933   7.946
 2953TIP3    H130494   5.472   5.963   7.944
 2953TIP3    H230495   5.565   5.880   7.865
 2954TIP3   OH230496   3.795   5.928   6.721
 2954TIP3    H130497   3.701   5.950   6.713
 2954TIP3    H230498   3.839   5.979   6.654
 2955TIP3   OH230499   3.790   5.792   7.554
 2955TIP3    H130500   3.723   5.774   7.623
 2955TIP3    H230501   3.744   5.860   7.501
 2956TIP3   OH230502   4.013   7.118   7.970
 2956TIP3    H130503   3.927   7.136   7.928
 2956TIP3    H230504   3.988   7.104   8.063
 2957TIP3   OH230505   4.308   7.213   7.605
 2957TIP3    H130506   4.263   7.289   7.567
 2957TIP3    H230507   4.395   7.216   7.562
 2958TIP3   OH230508   5.468   5.744   7.732
 2958TIP3    H130509   5.385   5.774   7.690
 2958TIP3    H230510   5.484   5.662   7.680
 2959TIP3   OH230511   4.194   7.260   7.137
 2959TIP3    H130512   4.180   7.173   7.178
 2959TIP3    H230513   4.271   7.285   7.195
 2960TIP3   OH230514   4.413   7.265   7.266
 2960TIP3    H130515   4.476   7.204   7.223
 2960TIP3    H230516   4.459   7.305   7.341
 2961TIP3   OH230517   4.804   5.886   7.157
 2961TIP3    H130518   4.738   5.822   7.188
 2961TIP3    H230519   4.862   5.832   7.102
 2962TIP3   OH230520   5.319   5.691   7.165
 2962TIP3    H130521   5.380   5.751   7.114
 2962TIP3    H230522   5.231   5.727   7.144
 2963TIP3   OH230523   5.486   5.817   6.993
 2963TIP3    H130524   5.555   5.759   6.954
 2963TIP3    H230525   5.537   5.899   7.010
 2964TIP3   OH230526   4.042   5.749   6.944
 2964TIP3    H130527   3.963   5.728   6.892
 2964TIP3    H230528   4.089   5.663   6.935
 2965TIP3   OH230529   3.914   5.728   6.509
 2965TIP3    H130530   3.971   5.793   6.465
 2965TIP3    H230531   3.865   5.779   6.575
 2966TIP3   OH230532   4.495   5.738   6.920
 2966TIP3    H130533   4.581   5.781   6.917
 2966TIP3    H230534   4.487   5.720   7.014
 2967TIP3   OH230535   5.060   5.744   7.084
 2967TIP3    H130536   5.058   5.754   6.988
 2967TIP3    H230537   5.023   5.654   7.100
 2968TIP3   OH230538   5.190   5.746   6.656
 2968TIP3    H130539   5.119   5.808   6.642
 2968TIP3    H230540   5.145   5.661   6.676
 2969TIP3   OH230541   4.627   5.942   6.607
 2969TIP3    H130542   4.626   5.890   6.688
 2969TIP3    H230543   4.606   6.030   6.645
 2970TIP3   OH230544   4.031   5.803   7.889
 2970TIP3    H130545   3.991   5.723   7.930
 2970TIP3    H230546   4.122   5.799   7.927
 2971TIP3   OH230547   4.231   5.743   8.056
 2971TIP3    H130548   4.319   5.708   8.030
 2971TIP3    H230549   4.193   5.662   8.095
 2972TIP3   OH230550   5.071   5.669   8.068
 2972TIP3    H130551   5.081   5.623   8.153
 2972TIP3    H230552   5.164   5.667   8.034
 2973TIP3   OH230553   5.382   7.267   7.949
 2973TIP3    H130554   5.314   7.262   7.878
 2973TIP3    H230555   5.390   7.365   7.949
 2974TIP3   OH230556   6.837   6.661   6.930
 2974TIP3    H130557   6.837   6.759   6.927
 2974TIP3    H230558   6.763   6.639   6.871
 2975TIP3   OH230559   6.723   6.588   7.279
 2975TIP3    H130560   6.721   6.524   7.351
 2975TIP3    H230561   6.689   6.537   7.204
 2976TIP3   OH230562   5.959   6.556   7.434
 2976TIP3    H130563   5.966   6.488   7.504
 2976TIP3    H230564   6.033   6.614   7.457
 2977TIP3   OH230565   7.092   6.880   7.110
 2977TIP3    H130566   7.050   6.810   7.160
 2977TIP3    H230567   7.101   6.950   7.176
 2978TIP3   OH230568   6.054   7.001   7.287
 2978TIP3    H130569   6.021   6.915   7.255
 2978TIP3    H230570   6.149   6.982   7.290
 2979TIP3   OH230571   5.722   6.361   6.821
 2979TIP3    H130572   5.673   6.445   6.835
 2979TIP3    H230573   5.656   6.301   6.790
 2980TIP3   OH230574   5.784   6.578   7.045
 2980TIP3    H130575   5.813   6.498   7.093
 2980TIP3    H230576   5.856   6.592   6.983
 2981TIP3   OH230577   6.559   6.825   7.329
 2981TIP3    H130578   6.593   6.766   7.261
 2981TIP3    H230579   6.641   6.845   7.378
 2982TIP3   OH230580   6.875   6.276   7.357
 2982TIP3    H130581   6.895   6.180   7.358
 2982TIP3    H230582   6.867   6.288   7.261
 2983TIP3   OH230583   6.187   6.084   7.080
 2983TIP3    H130584   6.200   6.167   7.032
 2983TIP3    H230585   6.148   6.027   7.010
 2984TIP3   OH230586   6.962   6.098   6.927
 2984TIP3    H130587   7.033   6.059   6.982
 2984TIP3    H230588   7.010   6.142   6.855
 2985TIP3   OH230589   5.853   6.327   7.155
 2985TIP3    H130590   5.918   6.271   7.200
 2985TIP3    H230591   5.862   6.294   7.064
 2986TIP3   OH230592   6.366   6.480   7.085
 2986TIP3    H130593   6.434   6.424   7.126
 2986TIP3    H230594   6.315   6.413   7.037
 2987TIP3   OH230595   6.079   5.975   7.483
 2987TIP3    H130596   6.051   6.032   7.409
 2987TIP3    H230597   6.012   5.998   7.551
 2988TIP3   OH230598   6.810   6.920   6.837
 2988TIP3    H130599   6.781   6.901   6.747
 2988TIP3    H230600   6.781   7.013   6.846
 2989TIP3   OH230601   6.330   6.737   7.508
 2989TIP3    H130602   6.260   6.802   7.530
 2989TIP3    H230603   6.401   6.797   7.479
 2990TIP3   OH230604   7.122   6.024   7.125
 2990TIP3    H130605   7.118   5.944   7.176
 2990TIP3    H230606   7.196   6.072   7.166
 2991TIP3   OH230607   6.037   6.159   7.288
 2991TIP3    H130608   6.099   6.229   7.319
 2991TIP3    H230609   6.088   6.119   7.213
 2992TIP3   OH230610   6.176   6.938   7.591
 2992TIP3    H130611   6.171   7.029   7.555
 2992TIP3    H230612   6.086   6.932   7.632
 2993TIP3   OH230613   5.781   6.907   6.670
 2993TIP3    H130614   5.757   6.934   6.579
 2993TIP3    H230615   5.792   6.990   6.718
 2994TIP3   OH230616   7.138   7.065   7.354
 2994TIP3    H130617   7.041   7.075   7.360
 2994TIP3    H230618   7.168   7.152   7.324
 2995TIP3   OH230619   7.169   5.907   7.471
 2995TIP3    H130620   7.094   5.968   7.473
 2995TIP3    H230621   7.237   5.955   7.424
 2996TIP3   OH230622   6.473   5.707   7.233
 2996TIP3    H130623   6.458   5.611   7.223
 2996TIP3    H230624   6.385   5.739   7.261
 2997TIP3   OH230625   6.973   7.226   6.994
 2997TIP3    H130626   7.021   7.158   6.943
 2997TIP3    H230627   7.013   7.307   6.963
 2998TIP3   OH230628   7.096   7.036   6.853
 2998TIP3    H130629   7.064   6.968   6.793
 2998TIP3    H230630   7.098   6.986   6.937
 2999TIP3   OH230631   7.230   6.909   7.710
 2999TIP3    H130632   7.261   6.838   7.650
 2999TIP3    H230633   7.275   6.985   7.669
 3000TIP3   OH230634   6.705   6.592   6.679
 3000TIP3    H130635   6.632   6.646   6.645
 3000TIP3    H230636   6.771   6.597   6.610
 3001TIP3   OH230637   7.044   6.613   6.772
 3001TIP3    H130638   6.973   6.634   6.836
 3001TIP3    H230639   7.093   6.544   6.824
 3002TIP3   OH230640   7.034   6.422   7.684
 3002TIP3    H130641   7.040   6.503   7.737
 3002TIP3    H230642   6.976   6.455   7.613
 3003TIP3   OH230643   6.211   6.674   6.964
 3003TIP3    H130644   6.176   6.634   6.884
 3003TIP3    H230645   6.271   6.606   7.002
 3004TIP3   OH230646   6.342   7.010   7.232
 3004TIP3    H130647   6.342   6.958   7.152
 3004TIP3    H230648   6.420   6.976   7.280
 3005TIP3   OH230649   6.242   6.549   7.332
 3005TIP3    H130650   6.299   6.559   7.254
 3005TIP3    H230651   6.280   6.615   7.393
 3006TIP3   OH230652   6.879   7.107   7.402
 3006TIP3    H130653   6.851   7.169   7.467
 3006TIP3    H230654   6.857   7.021   7.444
 3007TIP3   OH230655   6.338   6.995   7.801
 3007TIP3    H130656   6.294   7.067   7.851
 3007TIP3    H230657   6.270   6.972   7.732
 3008TIP3   OH230658   6.032   6.608   7.715
 3008TIP3    H130659   6.037   6.674   7.787
 3008TIP3    H230660   5.937   6.616   7.696
 3009TIP3   OH230661   6.702   7.199   6.889
 3009TIP3    H130662   6.754   7.232   6.963
 3009TIP3    H230663   6.652   7.276   6.859
 3010TIP3   OH230664   6.158   7.200   7.873
 3010TIP3    H130665   6.155   7.183   7.777
 3010TIP3    H230666   6.066   7.181   7.900
 3011TIP3   OH230667   5.714   6.820   7.617
 3011TIP3    H130668   5.670   6.811   7.530
 3011TIP3    H230669   5.723   6.725   7.639
 3012TIP3   OH230670   5.696   7.098   7.289
 3012TIP3    H130671   5.791   7.083   7.291
 3012TIP3    H230672   5.685   7.174   7.349
 3013TIP3   OH230673   6.607   7.121   7.745
 3013TIP3    H130674   6.620   7.197   7.802
 3013TIP3    H230675   6.524   7.080   7.776
 3014TIP3   OH230676   7.193   6.318   7.915
 3014TIP3    H130677   7.180   6.357   7.828
 3014TIP3    H230678   7.236   6.233   7.890
 3015TIP3   OH230679   5.944   6.952   7.713
 3015TIP3    H130680   5.965   6.913   7.801
 3015TIP3    H230681   5.858   6.910   7.689
 3016TIP3   OH230682   6.211   5.799   7.304
 3016TIP3    H130683   6.121   5.786   7.269
 3016TIP3    H230684   6.198   5.881   7.353
 3017TIP3   OH230685   6.675   5.764   7.641
 3017TIP3    H130686   6.715   5.722   7.720
 3017TIP3    H230687   6.578   5.753   7.656
 3018TIP3   OH230688   7.001   6.149   7.729
 3018TIP3    H130689   6.949   6.129   7.810
 3018TIP3    H230690   6.986   6.243   7.711
 3019TIP3   OH230691   6.222   6.296   7.431
 3019TIP3    H130692   6.148   6.295   7.495
 3019TIP3    H230693   6.217   6.387   7.394
 3020TIP3   OH230694   6.214   6.316   6.911
 3020TIP3    H130695   6.123   6.279   6.905
 3020TIP3    H230696   6.259   6.271   6.837
 3021TIP3   OH230697   6.769   6.360   6.798
 3021TIP3    H130698   6.729   6.439   6.758
 3021TIP3    H230699   6.835   6.332   6.731
 3022TIP3   OH230700   6.675   6.379   7.937
 3022TIP3    H130701   6.625   6.300   7.968
 3022TIP3    H230702   6.759   6.368   7.985
 3023TIP3   OH230703   6.874   6.310   7.078
 3023TIP3    H130704   6.844   6.361   7.001
 3023TIP3    H230705   6.881   6.222   7.032
 3024TIP3   OH230706   5.984   6.321   7.598
 3024TIP3    H130707   5.992   6.363   7.685
 3024TIP3    H230708   5.939   6.238   7.619
 3025TIP3   OH230709   5.652   6.032   6.994
 3025TIP3    H130710   5.717   6.025   7.068
 3025TIP3    H230711   5.697   5.990   6.918
 3026TIP3   OH230712   6.793   6.464   7.533
 3026TIP3    H130713   6.832   6.395   7.476
 3026TIP3    H230714   6.746   6.412   7.601
 3027TIP3   OH230715   6.470   6.060   7.019
 3027TIP3    H130716   6.378   6.063   7.050
 3027TIP3    H230717   6.521   6.046   7.100
 3028TIP3   OH230718   5.954   6.218   6.899
 3028TIP3    H130719   5.863   6.229   6.866
 3028TIP3    H230720   5.979   6.130   6.866
 3029TIP3   OH230721   6.319   6.227   6.666
 3029TIP3    H130722   6.415   6.229   6.686
 3029TIP3    H230723   6.307   6.289   6.595
 3030TIP3   OH230724   6.910   5.983   7.342
 3030TIP3    H130725   6.842   5.990   7.411
 3030TIP3    H230726   6.860   5.964   7.262
 3031TIP3   OH230727   6.002   6.798   7.933
 3031TIP3    H130728   6.073   6.823   7.995
 3031TIP3    H230729   5.923   6.806   7.992
 3032TIP3   OH230730   6.601   6.338   7.207
 3032TIP3    H130731   6.662   6.285   7.154
 3032TIP3    H230732   6.587   6.282   7.285
 3033TIP3   OH230733   6.102   5.956   6.850
 3033TIP3    H130734   6.068   5.864   6.852
 3033TIP3    H230735   6.182   5.943   6.798
 3034TIP3   OH230736   6.465   6.170   7.450
 3034TIP3    H130737   6.383   6.223   7.458
 3034TIP3    H230738   6.521   6.207   7.521
 3035TIP3   OH230739   6.523   6.786   6.617
 3035TIP3    H130740   6.440   6.751   6.585
 3035TIP3    H230741   6.503   6.810   6.710
 3036TIP3   OH230742   7.228   6.718   7.499
 3036TIP3    H130743   7.292   6.737   7.427
 3036TIP3    H230744   7.146   6.716   7.447
 3037TIP3   OH230745   6.673   6.823   7.741
 3037TIP3    H130746   6.638   6.777   7.819
 3037TIP3    H230747   6.651   6.915   7.755
 3038TIP3   OH230748   6.979   6.282   6.616
 3038TIP3    H130749   7.067   6.244   6.627
 3038TIP3    H230750   6.988   6.338   6.540
 3039TIP3   OH230751   6.034   6.732   7.198
 3039TIP3    H130752   6.104   6.727   7.130
 3039TIP3    H230753   6.041   6.647   7.245
 3040TIP3   OH230754   6.731   6.940   6.527
 3040TIP3    H130755   6.698   7.026   6.557
 3040TIP3    H230756   6.656   6.882   6.543
 3041TIP3   OH230757   5.733   6.574   7.725
 3041TIP3    H130758   5.751   6.529   7.810
 3041TIP3    H230759   5.672   6.511   7.681
 3042TIP3   OH230760   6.435   6.528   7.943
 3042TIP3    H130761   6.403   6.497   7.856
 3042TIP3    H230762   6.527   6.497   7.942
 3043TIP3   OH230763   6.902   7.074   7.731
 3043TIP3    H130764   6.807   7.078   7.714
 3043TIP3    H230765   6.901   7.088   7.828
 3044TIP3   OH230766   7.283   7.159   6.614
 3044TIP3    H130767   7.258   7.074   6.650
 3044TIP3    H230768   7.321   7.133   6.527
 3045TIP3   OH230769   7.014   6.642   7.329
 3045TIP3    H130770   6.920   6.621   7.313
 3045TIP3    H230771   7.061   6.569   7.283
 3046TIP3   OH230772   6.275   7.073   6.929
 3046TIP3    H130773   6.319   7.157   6.913
 3046TIP3    H230774   6.185   7.099   6.906
 3047TIP3   OH230775   6.414   6.843   6.885
 3047TIP3    H130776   6.386   6.936   6.897
 3047TIP3    H230777   6.343   6.798   6.936
 3048TIP3   OH230778   6.475   7.239   7.507
 3048TIP3    H130779   6.500   7.332   7.497
 3048TIP3    H230780   6.520   7.219   7.591
 3049TIP3   OH230781   6.247  -0.011   6.817
 3049TIP3    H130782   6.162   0.011   6.851
 3049TIP3    H230783   6.302   0.060   6.856
 3050TIP3   OH230784   6.814   6.862   7.493
 3050TIP3    H130785   6.778   6.840   7.582
 3050TIP3    H230786   6.875   6.789   7.474
 3051TIP3   OH230787   7.089   7.319   7.742
 3051TIP3    H130788   7.022   7.270   7.694
 3051TIP3    H230789   7.109   7.393   7.682
 3052TIP3   OH230790   5.900   6.048   7.684
 3052TIP3    H130791   5.809   6.082   7.675
 3052TIP3    H230792   5.886   5.959   7.719
 3053TIP3   OH230793   5.861   7.220   7.522
 3053TIP3    H130794   5.891   7.129   7.525
 3053TIP3    H230795   5.881   7.256   7.610
 3054TIP3   OH230796   6.399   6.992   6.229
 3054TIP3    H130797   6.485   6.972   6.194
 3054TIP3    H230798   6.406   7.005   6.327
 3055TIP3   OH230799   6.373   7.027   6.497
 3055TIP3    H130800   6.355   6.979   6.578
 3055TIP3    H230801   6.325   7.112   6.515
 3056TIP3   OH230802   6.770   6.023   7.577
 3056TIP3    H130803   6.845   6.030   7.638
 3056TIP3    H230804   6.734   5.935   7.598
 3057TIP3   OH230805   6.622   7.189   6.549
 3057TIP3    H130806   6.543   7.241   6.580
 3057TIP3    H230807   6.678   7.256   6.507
 3058TIP3   OH230808   6.625   6.257   7.686
 3058TIP3    H130809   6.635   6.315   7.764
 3058TIP3    H230810   6.692   6.188   7.694
 3059TIP3   OH230811   6.658   5.863   6.866
 3059TIP3    H130812   6.620   5.933   6.919
 3059TIP3    H230813   6.718   5.918   6.811
 3060TIP3   OH230814   6.405  -0.031   6.603
 3060TIP3    H130815   6.380   0.033   6.531
 3060TIP3    H230816   6.328  -0.013   6.661
 3061TIP3   OH230817   7.240   6.039   7.760
 3061TIP3    H130818   7.150   6.078   7.756
 3061TIP3    H230819   7.273   6.050   7.670
 3062TIP3   OH230820   7.105   6.425   7.181
 3062TIP3    H130821   7.025   6.383   7.141
 3062TIP3    H230822   7.146   6.349   7.224
 3063TIP3   OH230823   5.871   6.291   6.365
 3063TIP3    H130824   5.876   6.385   6.348
 3063TIP3    H230825   5.805   6.252   6.304
 3064TIP3   OH230826   5.959   5.762   7.218
 3064TIP3    H130827   5.940   5.763   7.122
 3064TIP3    H230828   5.918   5.677   7.244
 3065TIP3   OH230829   5.867   7.153   6.840
 3065TIP3    H130830   5.777   7.191   6.833
 3065TIP3    H230831   5.904   7.200   6.764
 3066TIP3   OH230832   6.263   7.283   8.140
 3066TIP3    H130833   6.350   7.246   8.155
 3066TIP3    H230834   6.251   7.267   8.044
 3067TIP3   OH230835   6.717   7.259   6.277
 3067TIP3    H130836   6.651   7.201   6.315
 3067TIP3    H230837   6.769   7.196   6.226
 3068TIP3   OH230838   6.896   7.132   7.990
 3068TIP3    H130839   6.861   7.051   8.030
 3068TIP3    H230840   6.967   7.155   8.051
 3069TIP3   OH230841   6.998   7.193   6.293
 3069TIP3    H130842   7.080   7.148   6.325
 3069TIP3    H230843   7.061   7.255   6.248
 3070TIP3   OH230844   5.765   6.795   8.060
 3070TIP3    H130845   5.783   6.705   8.027
 3070TIP3    H230846   5.694   6.825   8.001
 3071TIP3   OH230847   6.441   6.793   7.996
 3071TIP3    H130848   6.404   6.825   7.912
 3071TIP3    H230849   6.445   6.695   7.987
 3072TIP3   OH230850   7.005   6.778   7.735
 3072TIP3    H130851   7.084   6.837   7.730
 3072TIP3    H230852   6.938   6.846   7.743
 3073TIP3   OH230853   5.858   6.521   7.999
 3073TIP3    H130854   5.901   6.435   7.990
 3073TIP3    H230855   5.836   6.522   8.094
 3074TIP3   OH230856   6.248   6.413   7.735
 3074TIP3    H130857   6.189   6.486   7.760
 3074TIP3    H230858   6.288   6.450   7.654
 3075TIP3   OH230859   6.753   6.672   8.080
 3075TIP3    H130860   6.847   6.667   8.054
 3075TIP3    H230861   6.740   6.590   8.129
 3076TIP3   OH230862   6.288   6.152   7.838
 3076TIP3    H130863   6.304   6.082   7.772
 3076TIP3    H230864   6.286   6.234   7.784
 3077TIP3   OH230865   6.330   5.990   7.596
 3077TIP3    H130866   6.381   6.036   7.525
 3077TIP3    H230867   6.240   5.982   7.555
 3078TIP3   OH230868   6.483   6.539   7.619
 3078TIP3    H130869   6.559   6.522   7.562
 3078TIP3    H230870   6.448   6.623   7.586
 3079TIP3   OH230871   6.924   6.314   8.118
 3079TIP3    H130872   6.946   6.220   8.105
 3079TIP3    H230873   7.011   6.355   8.115
 3080TIP3   OH230874   7.052   6.595   7.933
 3080TIP3    H130875   7.031   6.667   7.871
 3080TIP3    H230876   7.148   6.590   7.915
 3081TIP3   OH230877   6.139   6.273   8.037
 3081TIP3    H130878   6.059   6.224   8.011
 3081TIP3    H230879   6.201   6.243   7.967
 3082TIP3   OH230880   6.408   5.733   7.634
 3082TIP3    H130881   6.390   5.830   7.625
 3082TIP3    H230882   6.334   5.696   7.584
 3083TIP3   OH230883   6.536   6.165   7.999
 3083TIP3    H130884   6.502   6.144   8.088
 3083TIP3    H230885   6.459   6.147   7.942
 3084TIP3   OH230886   6.806   6.082   7.906
 3084TIP3    H130887   6.709   6.085   7.920
 3084TIP3    H230888   6.836   6.018   7.973
 3085TIP3   OH230889   6.970   5.942   8.099
 3085TIP3    H130890   6.959   5.845   8.100
 3085TIP3    H230891   6.941   5.974   8.188
 3086TIP3   OH230892   5.941   6.085   7.998
 3086TIP3    H130893   5.975   6.015   7.940
 3086TIP3    H230894   5.940   6.060   8.093
 3087TIP3   OH230895   6.427   5.673   7.904
 3087TIP3    H130896   6.496   5.603   7.904
 3087TIP3    H230897   6.420   5.687   7.808
 3088TIP3   OH230898   6.462   5.830   8.116
 3088TIP3    H130899   6.450   5.783   8.030
 3088TIP3    H230900   6.410   5.912   8.103
 3089TIP3   OH230901   5.777   6.984   6.375
 3089TIP3    H130902   5.872   6.991   6.393
 3089TIP3    H230903   5.782   6.919   6.304
 3090TIP3   OH230904   5.719   7.332   7.065
 3090TIP3    H130905   5.687   7.244   7.087
 3090TIP3    H230906   5.746   7.368   7.150
 3091TIP3   OH230907   7.264   6.962   8.104
 3091TIP3    H130908   7.189   6.942   8.163
 3091TIP3    H230909   7.319   7.017   8.162
 3092TIP3   OH230910   7.279   7.143   7.585
 3092TIP3    H130911   7.212   7.183   7.641
 3092TIP3    H230912   7.227   7.105   7.510
 3093TIP3   OH230913   7.193   6.440   6.910
 3093TIP3    H130914   7.216   6.346   6.913
 3093TIP3    H230915   7.196   6.460   7.005
 3094TIP3   OH230916   5.735   6.643   7.313
 3094TIP3    H130917   5.752   6.634   7.217
 3094TIP3    H230918   5.824   6.625   7.349
 3095TIP3   OH230919  -0.034   6.634   7.903
 3095TIP3    H130920   0.026   6.557   7.906
 3095TIP3    H230921   0.023   6.706   7.873
 3096TIP3   OH230922   7.224   6.196   7.292
 3096TIP3    H130923   7.319   6.207   7.275
 3096TIP3    H230924   7.225   6.246   7.376
 3097TIP3   OH230925   7.269   6.320   7.589
 3097TIP3    H130926   7.179   6.350   7.610
 3097TIP3    H230927   7.310   6.397   7.546
 3098TIP3   OH230928   5.695   6.171   7.928
 3098TIP3    H130929   5.789   6.154   7.947
 3098TIP3    H230930   5.648   6.090   7.957
 3099TIP3   OH230931   7.185   5.895   6.817
 3099TIP3    H130932   7.277   5.876   6.840
 3099TIP3    H230933   7.181   5.852   6.728
 3100TIP3   OH230934   5.816   6.002   7.214
 3100TIP3    H130935   5.862   5.919   7.239
 3100TIP3    H230936   5.872   6.071   7.253
 3101TIP3   OH230937   5.644   6.302   7.318
 3101TIP3    H130938   5.701   6.277   7.242
 3101TIP3    H230939   5.691   6.383   7.344
 3102TIP3   OH230940   5.685   5.932   6.737
 3102TIP3    H130941   5.590   5.935   6.717
 3102TIP3    H230942   5.726   5.960   6.654
 3103TIP3   OH230943   5.677   5.794   7.557
 3103TIP3    H130944   5.607   5.773   7.621
 3103TIP3    H230945   5.631   5.860   7.501
 3104TIP3   OH230946   5.898   7.119   7.970
 3104TIP3    H130947   5.812   7.136   7.928
 3104TIP3    H230948   5.874   7.104   8.062
 3105TIP3   OH230949   6.194   7.213   7.605
 3105TIP3    H130950   6.148   7.289   7.567
 3105TIP3    H230951   6.281   7.216   7.562
 3106TIP3   OH230952   6.080   7.260   7.138
 3106TIP3    H130953   6.066   7.173   7.178
 3106TIP3    H230954   6.157   7.285   7.196
 3107TIP3   OH230955   6.299   7.264   7.266
 3107TIP3    H130956   6.362   7.205   7.223
 3107TIP3    H230957   6.345   7.304   7.341
 3108TIP3   OH230958   6.693   5.886   7.160
 3108TIP3    H130959   6.624   5.823   7.186
 3108TIP3    H230960   6.746   5.835   7.098
 3109TIP3   OH230961   7.206   5.690   7.169
 3109TIP3    H130962   7.261   5.754   7.122
 3109TIP3    H230963   7.117   5.724   7.146
 3110TIP3   OH230964   5.926   5.750   6.947
 3110TIP3    H130965   5.848   5.731   6.891
 3110TIP3    H230966   5.974   5.666   6.937
 3111TIP3   OH230967   6.374   5.743   6.923
 3111TIP3    H130968   6.465   5.778   6.913
 3111TIP3    H230969   6.374   5.719   7.016
 3112TIP3   OH230970   6.950   5.740   7.084
 3112TIP3    H130971   6.940   5.756   6.988
 3112TIP3    H230972   6.908   5.651   7.097
 3113TIP3   OH230973   7.073   5.737   6.648
 3113TIP3    H130974   7.004   5.803   6.632
 3113TIP3    H230975   7.021   5.656   6.665
 3114TIP3   OH230976   5.787  -0.042   6.646
 3114TIP3    H130977   5.737  -0.043   6.563
 3114TIP3    H230978   5.808   0.050   6.658
 3115TIP3   OH230979   5.918   5.794   7.877
 3115TIP3    H130980   5.877   5.712   7.914
 3115TIP3    H230981   6.013   5.784   7.904
 3116TIP3   OH230982   6.114   5.743   8.055
 3116TIP3    H130983   6.204   5.711   8.030
 3116TIP3    H230984   6.085   5.657   8.096
 3117TIP3   OH230985   6.958   5.673   8.068
 3117TIP3    H130986   6.966   5.623   8.152
 3117TIP3    H230987   7.049   5.667   8.031
 3118TIP3   OH230988   7.273   7.273   7.948
 3118TIP3    H130989   7.207   7.255   7.879
 3118TIP3    H230990   7.274   7.370   7.947
 3119TIP3   OH230991   1.048   0.779   8.265
 3119TIP3    H130992   1.120   0.789   8.331
 3119TIP3    H230993   1.088   0.714   8.206
 3120TIP3   OH230994   1.272   0.856   8.412
 3120TIP3    H130995   1.313   0.884   8.498
 3120TIP3    H230996   1.311   0.918   8.347
 3121TIP3   OH230997   1.642   0.050   8.410
 3121TIP3    H130998   1.554   0.067   8.442
 3121TIP3    H230999   1.672   0.134   8.375
 3122TIP3   OH231000   1.765   1.483   8.240
 3122TIP3    H131001   1.779   1.575   8.267
 3122TIP3    H231002   1.856   1.450   8.251
 3123TIP3   OH231003   1.307   1.758   8.320
 3123TIP3    H131004   1.349   1.683   8.270
 3123TIP3    H231005   1.313   1.726   8.411
 3124TIP3   OH231006   1.424   0.973   8.205
 3124TIP3    H131007   1.421   0.956   8.108
 3124TIP3    H231008   1.512   1.017   8.208
 3125TIP3   OH231009   0.996   0.346   8.272
 3125TIP3    H131010   0.939   0.370   8.345
 3125TIP3    H231011   0.946   0.277   8.224
 3126TIP3   OH231012   0.666   0.406   8.171
 3126TIP3    H131013   0.616   0.362   8.243
 3126TIP3    H231014   0.594   0.444   8.118
 3127TIP3   OH231015   0.123   0.451   8.408
 3127TIP3    H131016   0.176   0.515   8.356
 3127TIP3    H231017   0.048   0.499   8.441
 3128TIP3   OH231018   0.534   0.675   8.313
 3128TIP3    H131019   0.478   0.645   8.239
 3128TIP3    H231020   0.613   0.703   8.264
 3129TIP3   OH231021   1.244   0.415   8.330
 3129TIP3    H131022   1.154   0.440   8.302
 3129TIP3    H231023   1.285   0.500   8.360
 3130TIP3   OH231024   1.327   0.608   8.482
 3130TIP3    H131025   1.417   0.601   8.518
 3130TIP3    H231026   1.330   0.692   8.432
 3131TIP3   OH231027   1.077   1.281   8.406
 3131TIP3    H131028   1.041   1.365   8.438
 3131TIP3    H231029   1.007   1.219   8.429
 3132TIP3   OH231030   1.793   0.576   8.462
 3132TIP3    H131031   1.751   0.575   8.374
 3132TIP3    H231032   1.822   0.672   8.451
 3133TIP3   OH231033   0.183   0.906   8.278
 3133TIP3    H131034   0.248   0.967   8.323
 3133TIP3    H231035   0.101   0.942   8.309
 3134TIP3   OH231036   1.388   1.310   8.285
 3134TIP3    H131037   1.419   1.276   8.369
 3134TIP3    H231038   1.292   1.295   8.294
 3135TIP3   OH231039   1.829   1.750   8.307
 3135TIP3    H131040   1.906   1.809   8.302
 3135TIP3    H231041   1.762   1.812   8.340
 3136TIP3   OH231042   0.799   1.419   8.132
 3136TIP3    H131043   0.809   1.341   8.076
 3136TIP3    H231044   0.759   1.379   8.213
 3137TIP3   OH231045   0.679   1.368   8.377
 3137TIP3    H131046   0.700   1.324   8.460
 3137TIP3    H231047   0.689   1.461   8.406
 3138TIP3   OH231048   0.313   1.095   8.415
 3138TIP3    H131049   0.266   1.129   8.490
 3138TIP3    H231050   0.381   1.165   8.402
 3139TIP3   OH231051   0.918   1.514   8.380
 3139TIP3    H131052   0.857   1.574   8.429
 3139TIP3    H231053   0.994   1.575   8.370
 3140TIP3   OH231054   0.699   1.643   8.457
 3140TIP3    H131055   0.702   1.720   8.395
 3140TIP3    H231056   0.671   1.685   8.539
 3141TIP3   OH231057   0.553   0.295   8.388
 3141TIP3    H131058   0.527   0.380   8.428
 3141TIP3    H231059   0.641   0.289   8.427
 3142TIP3   OH231060   0.387   1.359   8.316
 3142TIP3    H131061   0.451   1.424   8.347
 3142TIP3    H231062   0.442   1.313   8.250
 3143TIP3   OH231063   0.230   0.629   8.222
 3143TIP3    H131064   0.226   0.721   8.251
 3143TIP3    H231065   0.137   0.607   8.207
 3144TIP3   OH231066   1.001   1.608   8.144
 3144TIP3    H131067   0.933   1.542   8.170
 3144TIP3    H231068   1.072   1.547   8.118
 3145TIP3   OH231069   1.456   1.581   8.160
 3145TIP3    H131070   1.484   1.506   8.215
 3145TIP3    H231071   1.536   1.600   8.108
 3146TIP3   OH231072   0.544   1.172   8.149
 3146TIP3    H131073   0.562   1.097   8.208
 3146TIP3    H231074   0.619   1.164   8.088
 3147TIP3   OH231075   1.093   1.283   8.130
 3147TIP3    H131076   1.063   1.292   8.221
 3147TIP3    H231077   1.069   1.189   8.110
 3148TIP3   OH231078   0.665   0.973   8.383
 3148TIP3    H131079   0.619   0.920   8.450
 3148TIP3    H231080   0.696   0.906   8.318
 3149TIP3   OH231081   0.771   0.795   8.208
 3149TIP3    H131082   0.760   0.788   8.111
 3149TIP3    H231083   0.869   0.803   8.217
 3150TIP3   OH231084   1.690   1.033   8.130
 3150TIP3    H131085   1.684   0.995   8.043
 3150TIP3    H231086   1.713   1.128   8.120
 3151TIP3   OH231087   0.760   1.868   8.321
 3151TIP3    H131088   0.858   1.876   8.324
 3151TIP3    H231089   0.741   1.927   8.246
 3152TIP3   OH231090   0.124   1.331   8.271
 3152TIP3    H131091   0.220   1.339   8.286
 3152TIP3    H231092   0.124   1.266   8.199
 3153TIP3   OH231093   1.770   1.002   8.361
 3153TIP3    H131094   1.790   0.945   8.284
 3153TIP3    H231095   1.838   0.970   8.422
 3154TIP3   OH231096   1.660   0.636   8.229
 3154TIP3    H131097   1.672   0.701   8.159
 3154TIP3    H231098   1.643   0.553   8.180
 3155TIP3   OH231099   1.584   0.380   8.145
 3155TIP3    H131100   1.647   0.339   8.208
 3155TIP3    H231101   1.500   0.336   8.162
 3156TIP3   OH231102   1.794   0.267   8.292
 3156TIP3    H131103   1.838   0.191   8.248
 3156TIP3    H231104   1.867   0.331   8.305
 3157TIP3   OH231105   0.193   0.082   8.411
 3157TIP3    H131106   0.204   0.147   8.341
 3157TIP3    H231107   0.113   0.110   8.457
 3158TIP3   OH231108   0.329   0.268   8.244
 3158TIP3    H131109   0.383   0.202   8.195
 3158TIP3    H231110   0.391   0.292   8.316
 3159TIP3   OH231111   1.025   1.791   8.337
 3159TIP3    H131112   1.116   1.818   8.318
 3159TIP3    H231113   1.006   1.739   8.256
 3160TIP3   OH231114   0.315   1.759   8.196
 3160TIP3    H131115   0.293   1.788   8.286
 3160TIP3    H231116   0.396   1.706   8.212
 3161TIP3   OH231117   2.937   0.784   8.259
 3161TIP3    H131118   3.003   0.788   8.332
 3161TIP3    H231119   2.974   0.711   8.209
 3162TIP3   OH231120   3.160   0.855   8.412
 3162TIP3    H131121   3.199   0.883   8.498
 3162TIP3    H231122   3.196   0.918   8.347
 3163TIP3   OH231123   3.530   0.053   8.412
 3163TIP3    H131124   3.439   0.065   8.440
 3163TIP3    H231125   3.556   0.138   8.375
 3164TIP3   OH231126   3.650   1.482   8.237
 3164TIP3    H131127   3.666   1.574   8.269
 3164TIP3    H231128   3.741   1.450   8.251
 3165TIP3   OH231129   3.193   1.758   8.318
 3165TIP3    H131130   3.234   1.682   8.272
 3165TIP3    H231131   3.198   1.729   8.411
 3166TIP3   OH231132   3.313   0.971   8.208
 3166TIP3    H131133   3.306   0.952   8.111
 3166TIP3    H231134   3.398   1.018   8.208
 3167TIP3   OH231135   2.873   0.361   8.257
 3167TIP3    H131136   2.840   0.366   8.348
 3167TIP3    H231137   2.836   0.275   8.229
 3168TIP3   OH231138   2.558   0.402   8.167
 3168TIP3    H131139   2.505   0.364   8.241
 3168TIP3    H231140   2.480   0.444   8.124
 3169TIP3   OH231141   2.003   0.443   8.407
 3169TIP3    H131142   2.061   0.506   8.360
 3169TIP3    H231143   1.936   0.502   8.445
 3170TIP3   OH231144   2.426   0.694   8.317
 3170TIP3    H131145   2.366   0.641   8.257
 3170TIP3    H231146   2.501   0.703   8.259
 3171TIP3   OH231147   3.139   0.426   8.314
 3171TIP3    H131148   3.042   0.431   8.314
 3171TIP3    H231149   3.168   0.503   8.365
 3172TIP3   OH231150   3.211   0.609   8.485
 3172TIP3    H131151   3.301   0.597   8.518
 3172TIP3    H231152   3.216   0.691   8.432
 3173TIP3   OH231153   2.963   1.282   8.406
 3173TIP3    H131154   2.927   1.365   8.438
 3173TIP3    H231155   2.893   1.220   8.428
 3174TIP3   OH231156   3.716   0.630   8.449
 3174TIP3    H131157   3.651   0.595   8.384
 3174TIP3    H231158   3.714   0.725   8.424
 3175TIP3   OH231159   2.108   0.964   8.238
 3175TIP3    H131160   2.155   0.976   8.324
 3175TIP3    H231161   2.024   0.933   8.279
 3176TIP3   OH231162   3.275   1.309   8.284
 3176TIP3    H131163   3.304   1.276   8.369
 3176TIP3    H231164   3.178   1.297   8.296
 3177TIP3   OH231165   3.715   1.749   8.307
 3177TIP3    H131166   3.792   1.809   8.302
 3177TIP3    H231167   3.648   1.812   8.340
 3178TIP3   OH231168   2.685   1.419   8.132
 3178TIP3    H131169   2.695   1.341   8.076
 3178TIP3    H231170   2.645   1.379   8.213
 3179TIP3   OH231171   2.566   1.369   8.376
 3179TIP3    H131172   2.585   1.324   8.460
 3179TIP3    H231173   2.577   1.461   8.407
 3180TIP3   OH231174   2.209   1.099   8.427
 3180TIP3    H131175   2.145   1.134   8.487
 3180TIP3    H231176   2.269   1.173   8.404
 3181TIP3   OH231177   2.804   1.514   8.380
 3181TIP3    H131178   2.743   1.574   8.429
 3181TIP3    H231179   2.880   1.575   8.370
 3182TIP3   OH231180   2.586   1.642   8.458
 3182TIP3    H131181   2.590   1.719   8.395
 3182TIP3    H231182   2.558   1.685   8.540
 3183TIP3   OH231183   2.449   0.277   8.408
 3183TIP3    H131184   2.414   0.369   8.418
 3183TIP3    H231185   2.540   0.291   8.431
 3184TIP3   OH231186   2.271   1.361   8.316
 3184TIP3    H131187   2.338   1.423   8.347
 3184TIP3    H231188   2.326   1.313   8.251
 3185TIP3   OH231189   2.091   0.654   8.187
 3185TIP3    H131190   2.095   0.725   8.256
 3185TIP3    H231191   2.008   0.613   8.210
 3186TIP3   OH231192   2.887   1.609   8.144
 3186TIP3    H131193   2.817   1.543   8.171
 3186TIP3    H231194   2.956   1.547   8.119
 3187TIP3   OH231195   3.338   1.571   8.145
 3187TIP3    H131196   3.368   1.511   8.217
 3187TIP3    H231197   3.424   1.607   8.116
 3188TIP3   OH231198   2.431   1.172   8.149
 3188TIP3    H131199   2.447   1.097   8.208
 3188TIP3    H231200   2.506   1.164   8.088
 3189TIP3   OH231201   2.982   1.280   8.129
 3189TIP3    H131202   2.948   1.292   8.220
 3189TIP3    H231203   2.953   1.187   8.111
 3190TIP3   OH231204   2.548   0.972   8.384
 3190TIP3    H131205   2.500   0.918   8.449
 3190TIP3    H231206   2.577   0.904   8.319
 3191TIP3   OH231207   2.661   0.796   8.208
 3191TIP3    H131208   2.641   0.788   8.112
 3191TIP3    H231209   2.758   0.804   8.216
 3192TIP3   OH231210   3.592   1.032   8.160
 3192TIP3    H131211   3.575   0.993   8.072
 3192TIP3    H231212   3.604   1.126   8.134
 3193TIP3   OH231213   2.644   1.869   8.321
 3193TIP3    H131214   2.742   1.876   8.324
 3193TIP3    H231215   2.627   1.927   8.246
 3194TIP3   OH231216   1.997   1.329   8.262
 3194TIP3    H131217   2.093   1.334   8.284
 3194TIP3    H231218   2.002   1.257   8.195
 3195TIP3   OH231219   3.717   0.908   8.365
 3195TIP3    H131220   3.666   0.949   8.290
 3195TIP3    H231221   3.714   0.974   8.437
 3196TIP3   OH231222   3.549   0.638   8.229
 3196TIP3    H131223   3.555   0.701   8.156
 3196TIP3    H231224   3.529   0.555   8.181
 3197TIP3   OH231225   3.473   0.382   8.146
 3197TIP3    H131226   3.534   0.337   8.207
 3197TIP3    H231227   3.388   0.338   8.164
 3198TIP3   OH231228   3.680   0.269   8.292
 3198TIP3    H131229   3.722   0.191   8.248
 3198TIP3    H231230   3.754   0.332   8.304
 3199TIP3   OH231231   2.026   0.067   8.403
 3199TIP3    H131232   2.084   0.128   8.353
 3199TIP3    H231233   1.977   0.128   8.457
 3200TIP3   OH231234   2.220   0.182   8.276
 3200TIP3    H131235   2.266   0.197   8.193
 3200TIP3    H231236   2.251   0.269   8.314
 3201TIP3   OH231237   2.910   1.792   8.338
 3201TIP3    H131238   3.001   1.818   8.318
 3201TIP3    H231239   2.890   1.740   8.257
 3202TIP3   OH231240   2.205   1.762   8.197
 3202TIP3    H131241   2.178   1.786   8.287
 3202TIP3    H231242   2.282   1.703   8.211
 3203TIP3   OH231243   4.837   0.784   8.251
 3203TIP3    H131244   4.909   0.787   8.319
 3203TIP3    H231245   4.870   0.710   8.198
 3204TIP3   OH231246   5.042   0.855   8.415
 3204TIP3    H131247   5.084   0.885   8.500
 3204TIP3    H231248   5.085   0.915   8.350
 3205TIP3   OH231249   5.417   0.053   8.416
 3205TIP3    H131250   5.324   0.065   8.438
 3205TIP3    H231251   5.442   0.135   8.372
 3206TIP3   OH231252   5.536   1.482   8.240
 3206TIP3    H131253   5.550   1.574   8.268
 3206TIP3    H231254   5.628   1.451   8.252
 3207TIP3   OH231255   5.078   1.757   8.319
 3207TIP3    H131256   5.120   1.683   8.270
 3207TIP3    H231257   5.084   1.726   8.410
 3208TIP3   OH231258   5.197   0.971   8.205
 3208TIP3    H131259   5.190   0.955   8.108
 3208TIP3    H231260   5.281   1.020   8.206
 3209TIP3   OH231261   4.749   0.367   8.259
 3209TIP3    H131262   4.725   0.359   8.352
 3209TIP3    H231263   4.727   0.277   8.227
 3210TIP3   OH231264   4.436   0.408   8.172
 3210TIP3    H131265   4.388   0.360   8.242
 3210TIP3    H231266   4.364   0.442   8.117
 3211TIP3   OH231267   3.886   0.441   8.408
 3211TIP3    H131268   3.943   0.506   8.361
 3211TIP3    H231269   3.822   0.503   8.447
 3212TIP3   OH231270   4.308   0.674   8.314
 3212TIP3    H131271   4.246   0.644   8.243
 3212TIP3    H231272   4.381   0.703   8.259
 3213TIP3   OH231273   5.019   0.421   8.333
 3213TIP3    H131274   4.926   0.432   8.307
 3213TIP3    H231275   5.053   0.508   8.360
 3214TIP3   OH231276   5.095   0.612   8.485
 3214TIP3    H131277   5.185   0.598   8.516
 3214TIP3    H231278   5.103   0.694   8.432
 3215TIP3   OH231279   4.848   1.281   8.402
 3215TIP3    H131280   4.816   1.364   8.440
 3215TIP3    H231281   4.778   1.222   8.429
 3216TIP3   OH231282   5.601   0.630   8.450
 3216TIP3    H131283   5.539   0.595   8.382
 3216TIP3    H231284   5.602   0.724   8.422
 3217TIP3   OH231285   3.966   0.908   8.273
 3217TIP3    H131286   4.023   0.969   8.324
 3217TIP3    H231287   3.877   0.934   8.304
 3218TIP3   OH231288   5.161   1.307   8.287
 3218TIP3    H131289   5.188   1.275   8.373
 3218TIP3    H231290   5.064   1.297   8.297
 3219TIP3   OH231291   5.600   1.750   8.306
 3219TIP3    H131292   5.677   1.809   8.302
 3219TIP3    H231293   5.533   1.812   8.340
 3220TIP3   OH231294   4.574   1.419   8.134
 3220TIP3    H131295   4.579   1.342   8.075
 3220TIP3    H231296   4.529   1.379   8.212
 3221TIP3   OH231297   4.452   1.369   8.378
 3221TIP3    H131298   4.471   1.325   8.462
 3221TIP3    H231299   4.463   1.462   8.407
 3222TIP3   OH231300   4.087   1.100   8.415
 3222TIP3    H131301   4.033   1.131   8.489
 3222TIP3    H231302   4.155   1.169   8.403
 3223TIP3   OH231303   4.690   1.515   8.380
 3223TIP3    H131304   4.629   1.574   8.429
 3223TIP3    H231305   4.765   1.575   8.370
 3224TIP3   OH231306   4.470   1.643   8.458
 3224TIP3    H131307   4.476   1.720   8.396
 3224TIP3    H231308   4.445   1.684   8.541
 3225TIP3   OH231309   4.322   0.295   8.390
 3225TIP3    H131310   4.299   0.380   8.430
 3225TIP3    H231311   4.412   0.287   8.425
 3226TIP3   OH231312   4.158   1.361   8.315
 3226TIP3    H131313   4.224   1.423   8.346
 3226TIP3    H231314   4.211   1.314   8.248
 3227TIP3   OH231315   3.990   0.627   8.234
 3227TIP3    H131316   3.991   0.723   8.252
 3227TIP3    H231317   3.902   0.609   8.201
 3228TIP3   OH231318   4.773   1.608   8.144
 3228TIP3    H131319   4.703   1.542   8.169
 3228TIP3    H231320   4.844   1.547   8.119
 3229TIP3   OH231321   5.227   1.580   8.158
 3229TIP3    H131322   5.256   1.507   8.215
 3229TIP3    H231323   5.307   1.601   8.108
 3230TIP3   OH231324   4.316   1.174   8.152
 3230TIP3    H131325   4.332   1.096   8.206
 3230TIP3    H231326   4.386   1.167   8.084
 3231TIP3   OH231327   4.864   1.284   8.129
 3231TIP3    H131328   4.833   1.295   8.220
 3231TIP3    H231329   4.841   1.189   8.111
 3232TIP3   OH231330   4.449   0.966   8.390
 3232TIP3    H131331   4.384   0.923   8.448
 3232TIP3    H231332   4.457   0.905   8.315
 3233TIP3   OH231333   4.552   0.793   8.212
 3233TIP3    H131334   4.524   0.787   8.116
 3233TIP3    H231335   4.647   0.810   8.196
 3234TIP3   OH231336   5.478   1.034   8.159
 3234TIP3    H131337   5.461   0.994   8.072
 3234TIP3    H231338   5.486   1.129   8.133
 3235TIP3   OH231339   4.531   1.873   8.324
 3235TIP3    H131340   4.629   1.876   8.324
 3235TIP3    H231341   4.513   1.927   8.246
 3236TIP3   OH231342   3.883   1.326   8.264
 3236TIP3    H131343   3.978   1.337   8.284
 3236TIP3    H231344   3.890   1.260   8.192
 3237TIP3   OH231345   5.601   0.905   8.365
 3237TIP3    H131346   5.550   0.947   8.291
 3237TIP3    H231347   5.602   0.974   8.435
 3238TIP3   OH231348   5.436   0.639   8.232
 3238TIP3    H131349   5.440   0.700   8.156
 3238TIP3    H231350   5.414   0.555   8.186
 3239TIP3   OH231351   5.358   0.391   8.159
 3239TIP3    H131352   5.419   0.334   8.208
 3239TIP3    H231353   5.277   0.338   8.153
 3240TIP3   OH231354   5.567   0.268   8.292
 3240TIP3    H131355   5.607   0.191   8.247
 3240TIP3    H231356   5.640   0.332   8.302
 3241TIP3   OH231357   3.925   0.070   8.404
 3241TIP3    H131358   3.965   0.137   8.348
 3241TIP3    H231359   3.863   0.123   8.454
 3242TIP3   OH231360   4.099   0.266   8.246
 3242TIP3    H131361   4.153   0.203   8.195
 3242TIP3    H231362   4.162   0.292   8.316
 3243TIP3   OH231363   4.796   1.791   8.337
 3243TIP3    H131364   4.887   1.818   8.318
 3243TIP3    H231365   4.777   1.739   8.256
 3244TIP3   OH231366   4.090   1.766   8.200
 3244TIP3    H131367   4.064   1.786   8.291
 3244TIP3    H231368   4.165   1.703   8.209
 3245TIP3   OH231369   6.706   0.784   8.261
 3245TIP3    H131370   6.775   0.788   8.330
 3245TIP3    H231371   6.743   0.713   8.208
 3246TIP3   OH231372   6.930   0.856   8.414
 3246TIP3    H131373   6.972   0.884   8.498
 3246TIP3    H231374   6.968   0.916   8.346
 3247TIP3   OH231375   7.273   0.047   8.390
 3247TIP3    H131376   7.200   0.069   8.449
 3247TIP3    H231377   7.317   0.129   8.372
 3248TIP3   OH231378   6.963   1.758   8.316
 3248TIP3    H131379   7.005   1.682   8.269
 3248TIP3    H231380   6.965   1.728   8.409
 3249TIP3   OH231381   7.087   0.967   8.206
 3249TIP3    H131382   7.078   0.951   8.109
 3249TIP3    H231383   7.166   1.020   8.208
 3250TIP3   OH231384   6.640   0.362   8.258
 3250TIP3    H131385   6.611   0.364   8.350
 3250TIP3    H231386   6.608   0.275   8.229
 3251TIP3   OH231387   6.321   0.407   8.170
 3251TIP3    H131388   6.274   0.361   8.243
 3251TIP3    H231389   6.249   0.445   8.118
 3252TIP3   OH231390   5.772   0.442   8.410
 3252TIP3    H131391   5.829   0.505   8.361
 3252TIP3    H231392   5.708   0.504   8.446
 3253TIP3   OH231393   6.192   0.674   8.313
 3253TIP3    H131394   6.135   0.645   8.239
 3253TIP3    H231395   6.270   0.704   8.264
 3254TIP3   OH231396   6.907   0.421   8.318
 3254TIP3    H131397   6.810   0.431   8.309
 3254TIP3    H231398   6.935   0.503   8.364
 3255TIP3   OH231399   6.983   0.611   8.484
 3255TIP3    H131400   7.072   0.597   8.514
 3255TIP3    H231401   6.984   0.693   8.431
 3256TIP3   OH231402   6.733   1.282   8.406
 3256TIP3    H131403   6.697   1.366   8.439
 3256TIP3    H231404   6.663   1.219   8.429
 3257TIP3   OH231405   5.849   0.909   8.272
 3257TIP3    H131406   5.908   0.969   8.324
 3257TIP3    H231407   5.761   0.935   8.304
 3258TIP3   OH231408   7.044   1.306   8.286
 3258TIP3    H131409   7.070   1.275   8.372
 3258TIP3    H231410   6.947   1.296   8.293
 3259TIP3   OH231411   6.454   1.419   8.131
 3259TIP3    H131412   6.468   1.341   8.077
 3259TIP3    H231413   6.416   1.379   8.212
 3260TIP3   OH231414   6.336   1.368   8.376
 3260TIP3    H131415   6.357   1.324   8.460
 3260TIP3    H231416   6.348   1.461   8.407
 3261TIP3   OH231417   5.972   1.099   8.416
 3261TIP3    H131418   5.919   1.130   8.489
 3261TIP3    H231419   6.040   1.168   8.404
 3262TIP3   OH231420   6.575   1.514   8.380
 3262TIP3    H131421   6.515   1.574   8.429
 3262TIP3    H231422   6.651   1.575   8.370
 3263TIP3   OH231423   6.357   1.642   8.458
 3263TIP3    H131424   6.361   1.718   8.395
 3263TIP3    H231425   6.329   1.685   8.540
 3264TIP3   OH231426   6.208   0.295   8.389
 3264TIP3    H131427   6.187   0.381   8.429
 3264TIP3    H231428   6.299   0.289   8.424
 3265TIP3   OH231429   6.042   1.361   8.317
 3265TIP3    H131430   6.109   1.423   8.348
 3265TIP3    H231431   6.097   1.314   8.252
 3266TIP3   OH231432   5.877   0.629   8.232
 3266TIP3    H131433   5.876   0.725   8.252
 3266TIP3    H231434   5.789   0.608   8.202
 3267TIP3   OH231435   6.658   1.607   8.142
 3267TIP3    H131436   6.589   1.542   8.170
 3267TIP3    H231437   6.730   1.546   8.119
 3268TIP3   OH231438   7.112   1.583   8.165
 3268TIP3    H131439   7.140   1.505   8.215
 3268TIP3    H231440   7.189   1.600   8.107
 3269TIP3   OH231441   6.200   1.169   8.144
 3269TIP3    H131442   6.218   1.099   8.209
 3269TIP3    H231443   6.281   1.163   8.091
 3270TIP3   OH231444   6.751   1.284   8.129
 3270TIP3    H131445   6.719   1.293   8.221
 3270TIP3    H231446   6.726   1.190   8.111
 3271TIP3   OH231447   6.320   0.973   8.383
 3271TIP3    H131448   6.276   0.920   8.450
 3271TIP3    H231449   6.352   0.906   8.319
 3272TIP3   OH231450   6.430   0.795   8.209
 3272TIP3    H131451   6.417   0.784   8.112
 3272TIP3    H231452   6.528   0.803   8.217
 3273TIP3   OH231453   6.416   1.869   8.321
 3273TIP3    H131454   6.513   1.876   8.324
 3273TIP3    H231455   6.398   1.928   8.245
 3274TIP3   OH231456   5.768   1.324   8.265
 3274TIP3    H131457   5.863   1.336   8.285
 3274TIP3    H231458   5.775   1.259   8.193
 3275TIP3   OH231459   7.304   0.637   8.231
 3275TIP3    H131460   7.325   0.698   8.159
 3275TIP3    H231461   7.294   0.552   8.182
 3276TIP3   OH231462   7.246   0.382   8.145
 3276TIP3    H131463   7.300   0.338   8.211
 3276TIP3    H231464   7.159   0.340   8.158
 3277TIP3   OH231465   5.811   0.070   8.404
 3277TIP3    H131466   5.850   0.137   8.348
 3277TIP3    H231467   5.749   0.123   8.454
 3278TIP3   OH231468   5.985   0.266   8.246
 3278TIP3    H131469   6.039   0.203   8.195
 3278TIP3    H231470   6.049   0.293   8.316
 3279TIP3   OH231471   6.681   1.791   8.337
 3279TIP3    H131472   6.773   1.818   8.317
 3279TIP3    H231473   6.663   1.739   8.256
 3280TIP3   OH231474   5.976   1.762   8.197
 3280TIP3    H131475   5.949   1.786   8.287
 3280TIP3    H231476   6.053   1.703   8.211
 3281TIP3   OH231477   1.050   2.669   8.263
 3281TIP3    H131478   1.120   2.673   8.331
 3281TIP3    H231479   1.086   2.599   8.208
 3282TIP3   OH231480   1.274   2.741   8.412
 3282TIP3    H131481   1.313   2.771   8.498
 3282TIP3    H231482   1.311   2.803   8.346
 3283TIP3   OH231483   1.652   1.936   8.425
 3283TIP3    H131484   1.556   1.937   8.434
 3283TIP3    H231485   1.671   2.015   8.372
 3284TIP3   OH231486   1.765   3.367   8.241
 3284TIP3    H131487   1.780   3.459   8.267
 3284TIP3    H231488   1.857   3.335   8.251
 3285TIP3   OH231489   1.301   3.639   8.317
 3285TIP3    H131490   1.351   3.568   8.271
 3285TIP3    H231491   1.314   3.616   8.411
 3286TIP3   OH231492   1.428   2.857   8.206
 3286TIP3    H131493   1.420   2.840   8.108
 3286TIP3    H231494   1.511   2.906   8.206
 3287TIP3   OH231495   0.981   2.247   8.257
 3287TIP3    H131496   0.953   2.249   8.350
 3287TIP3    H231497   0.952   2.158   8.229
 3288TIP3   OH231498   0.666   2.287   8.169
 3288TIP3    H131499   0.617   2.248   8.245
 3288TIP3    H231500   0.595   2.330   8.118
 3289TIP3   OH231501   0.124   2.334   8.406
 3289TIP3    H131502   0.176   2.400   8.356
 3289TIP3    H231503   0.049   2.383   8.441
 3290TIP3   OH231504   0.534   2.560   8.313
 3290TIP3    H131505   0.478   2.530   8.239
 3290TIP3    H231506   0.613   2.589   8.264
 3291TIP3   OH231507   1.252   2.304   8.320
 3291TIP3    H131508   1.157   2.318   8.309
 3291TIP3    H231509   1.283   2.388   8.360
 3292TIP3   OH231510   1.326   2.496   8.487
 3292TIP3    H131511   1.418   2.485   8.514
 3292TIP3    H231512   1.328   2.575   8.431
 3293TIP3   OH231513   1.079   3.165   8.407
 3293TIP3    H131514   1.044   3.249   8.438
 3293TIP3    H231515   1.008   3.104   8.429
 3294TIP3   OH231516   1.828   2.514   8.450
 3294TIP3    H131517   1.767   2.479   8.381
 3294TIP3    H231518   1.828   2.608   8.425
 3295TIP3   OH231519   0.183   2.791   8.278
 3295TIP3    H131520   0.248   2.852   8.323
 3295TIP3    H231521   0.101   2.828   8.309
 3296TIP3   OH231522   1.390   3.192   8.284
 3296TIP3    H131523   1.418   3.161   8.371
 3296TIP3    H231524   1.293   3.183   8.295
 3297TIP3   OH231525   1.838   3.627   8.300
 3297TIP3    H131526   1.910   3.692   8.300
 3297TIP3    H231527   1.767   3.687   8.334
 3298TIP3   OH231528   0.797   3.306   8.134
 3298TIP3    H131529   0.810   3.229   8.075
 3298TIP3    H231530   0.760   3.261   8.212
 3299TIP3   OH231531   0.668   3.262   8.383
 3299TIP3    H131532   0.703   3.206   8.456
 3299TIP3    H231533   0.710   3.346   8.404
 3300TIP3   OH231534   0.314   2.981   8.415
 3300TIP3    H131535   0.265   3.014   8.490
 3300TIP3    H231536   0.381   3.050   8.402
 3301TIP3   OH231537   0.919   3.396   8.380
 3301TIP3    H131538   0.863   3.460   8.428
 3301TIP3    H231539   0.996   3.456   8.368
 3302TIP3   OH231540   0.722   3.542   8.459
 3302TIP3    H131541   0.721   3.617   8.392
 3302TIP3    H231542   0.698   3.588   8.541
 3303TIP3   OH231543   0.552   2.186   8.390
 3303TIP3    H131544   0.531   2.270   8.432
 3303TIP3    H231545   0.641   2.173   8.427
 3304TIP3   OH231546   0.388   3.245   8.318
 3304TIP3    H131547   0.456   3.307   8.339
 3304TIP3    H231548   0.438   3.196   8.250
 3305TIP3   OH231549   0.230   2.514   8.221
 3305TIP3    H131550   0.226   2.606   8.250
 3305TIP3    H231551   0.137   2.492   8.207
 3306TIP3   OH231552   0.999   3.493   8.144
 3306TIP3    H131553   0.933   3.426   8.169
 3306TIP3    H231554   1.072   3.434   8.119
 3307TIP3   OH231555   1.455   3.464   8.157
 3307TIP3    H131556   1.485   3.391   8.215
 3307TIP3    H231557   1.536   3.486   8.108
 3308TIP3   OH231558   0.546   3.060   8.153
 3308TIP3    H131559   0.562   2.981   8.207
 3308TIP3    H231560   0.618   3.049   8.087
 3309TIP3   OH231561   1.093   3.169   8.130
 3309TIP3    H131562   1.062   3.179   8.221
 3309TIP3    H231563   1.069   3.075   8.111
 3310TIP3   OH231564   0.665   2.858   8.383
 3310TIP3    H131565   0.619   2.806   8.450
 3310TIP3    H231566   0.696   2.791   8.318
 3311TIP3   OH231567   0.771   2.681   8.208
 3311TIP3    H131568   0.760   2.673   8.111
 3311TIP3    H231569   0.869   2.689   8.217
 3312TIP3   OH231570   1.705   2.919   8.159
 3312TIP3    H131571   1.690   2.879   8.071
 3312TIP3    H231572   1.715   3.014   8.133
 3313TIP3   OH231573   0.759   3.757   8.318
 3313TIP3    H131574   0.857   3.763   8.322
 3313TIP3    H231575   0.742   3.817   8.244
 3314TIP3   OH231576   0.123   3.217   8.271
 3314TIP3    H131577   0.220   3.222   8.285
 3314TIP3    H231578   0.122   3.151   8.199
 3315TIP3   OH231579   1.831   2.793   8.364
 3315TIP3    H131580   1.778   2.834   8.291
 3315TIP3    H231581   1.829   2.859   8.437
 3316TIP3   OH231582   1.664   2.523   8.228
 3316TIP3    H131583   1.670   2.587   8.156
 3316TIP3    H231584   1.644   2.439   8.181
 3317TIP3   OH231585   1.587   2.266   8.142
 3317TIP3    H131586   1.647   2.224   8.206
 3317TIP3    H231587   1.501   2.226   8.162
 3318TIP3   OH231588   1.792   2.153   8.294
 3318TIP3    H131589   1.836   2.079   8.247
 3318TIP3    H231590   1.866   2.216   8.306
 3319TIP3   OH231591   0.191   1.970   8.409
 3319TIP3    H131592   0.208   2.035   8.341
 3319TIP3    H231593   0.111   2.000   8.454
 3320TIP3   OH231594   0.332   2.154   8.245
 3320TIP3    H131595   0.384   2.087   8.197
 3320TIP3    H231596   0.394   2.175   8.318
 3321TIP3   OH231597   1.021   3.676   8.336
 3321TIP3    H131598   1.114   3.703   8.321
 3321TIP3    H231599   1.007   3.624   8.254
 3322TIP3   OH231600   0.314   3.643   8.197
 3322TIP3    H131601   0.290   3.674   8.287
 3322TIP3    H231602   0.396   3.592   8.210
 3323TIP3   OH231603   2.935   2.670   8.262
 3323TIP3    H131604   3.005   2.673   8.331
 3323TIP3    H231605   2.972   2.599   8.208
 3324TIP3   OH231606   3.160   2.740   8.413
 3324TIP3    H131607   3.199   2.769   8.499
 3324TIP3    H231608   3.195   2.804   8.348
 3325TIP3   OH231609   3.537   1.933   8.421
 3325TIP3    H131610   3.442   1.939   8.437
 3325TIP3    H231611   3.556   2.016   8.374
 3326TIP3   OH231612   3.651   3.367   8.240
 3326TIP3    H131613   3.664   3.460   8.268
 3326TIP3    H231614   3.742   3.336   8.252
 3327TIP3   OH231615   3.193   3.643   8.319
 3327TIP3    H131616   3.235   3.568   8.270
 3327TIP3    H231617   3.199   3.612   8.410
 3328TIP3   OH231618   3.314   2.856   8.205
 3328TIP3    H131619   3.305   2.839   8.108
 3328TIP3    H231620   3.396   2.907   8.208
 3329TIP3   OH231621   2.866   2.247   8.257
 3329TIP3    H131622   2.839   2.249   8.350
 3329TIP3    H231623   2.838   2.158   8.228
 3330TIP3   OH231624   2.550   2.287   8.170
 3330TIP3    H131625   2.502   2.247   8.246
 3330TIP3    H231626   2.479   2.330   8.121
 3331TIP3   OH231627   1.999   2.323   8.406
 3331TIP3    H131628   2.057   2.390   8.362
 3331TIP3    H231629   1.937   2.387   8.447
 3332TIP3   OH231630   2.421   2.560   8.313
 3332TIP3    H131631   2.364   2.530   8.240
 3332TIP3    H231632   2.499   2.589   8.264
 3333TIP3   OH231633   3.138   2.305   8.318
 3333TIP3    H131634   3.042   2.318   8.311
 3333TIP3    H231635   3.169   2.387   8.363
 3334TIP3   OH231636   3.210   2.496   8.485
 3334TIP3    H131637   3.300   2.483   8.518
 3334TIP3    H231638   3.216   2.577   8.431
 3335TIP3   OH231639   2.963   3.167   8.406
 3335TIP3    H131640   2.927   3.251   8.438
 3335TIP3    H231641   2.893   3.105   8.428
 3336TIP3   OH231642   3.715   2.516   8.449
 3336TIP3    H131643   3.651   2.479   8.383
 3336TIP3    H231644   3.714   2.610   8.424
 3337TIP3   OH231645   2.078   2.794   8.273
 3337TIP3    H131646   2.137   2.854   8.325
 3337TIP3    H231647   1.990   2.820   8.305
 3338TIP3   OH231648   3.276   3.192   8.284
 3338TIP3    H131649   3.304   3.161   8.370
 3338TIP3    H231650   3.179   3.183   8.294
 3339TIP3   OH231651   3.715   3.635   8.306
 3339TIP3    H131652   3.792   3.695   8.302
 3339TIP3    H231653   3.647   3.697   8.340
 3340TIP3   OH231654   2.685   3.305   8.132
 3340TIP3    H131655   2.695   3.227   8.076
 3340TIP3    H231656   2.645   3.265   8.213
 3341TIP3   OH231657   2.565   3.254   8.376
 3341TIP3    H131658   2.585   3.210   8.460
 3341TIP3    H231659   2.577   3.347   8.407
 3342TIP3   OH231660   2.200   2.985   8.416
 3342TIP3    H131661   2.148   3.016   8.489
 3342TIP3    H231662   2.269   3.054   8.404
 3343TIP3   OH231663   2.804   3.400   8.380
 3343TIP3    H131664   2.743   3.459   8.429
 3343TIP3    H231665   2.880   3.461   8.370
 3344TIP3   OH231666   2.586   3.528   8.458
 3344TIP3    H131667   2.589   3.604   8.395
 3344TIP3    H231668   2.558   3.571   8.540
 3345TIP3   OH231669   2.436   2.186   8.391
 3345TIP3    H131670   2.418   2.272   8.431
 3345TIP3    H231671   2.525   2.172   8.426
 3346TIP3   OH231672   2.271   3.247   8.315
 3346TIP3    H131673   2.337   3.310   8.347
 3346TIP3    H231674   2.327   3.199   8.251
 3347TIP3   OH231675   2.105   2.513   8.231
 3347TIP3    H131676   2.105   2.609   8.250
 3347TIP3    H231677   2.016   2.494   8.202
 3348TIP3   OH231678   2.887   3.494   8.144
 3348TIP3    H131679   2.818   3.427   8.170
 3348TIP3    H231680   2.958   3.432   8.119
 3349TIP3   OH231681   3.341   3.465   8.159
 3349TIP3    H131682   3.370   3.392   8.215
 3349TIP3    H231683   3.421   3.486   8.108
 3350TIP3   OH231684   2.430   3.057   8.148
 3350TIP3    H131685   2.448   2.982   8.208
 3350TIP3    H231686   2.506   3.049   8.087
 3351TIP3   OH231687   2.979   3.169   8.130
 3351TIP3    H131688   2.949   3.178   8.221
 3351TIP3    H231689   2.954   3.075   8.111
 3352TIP3   OH231690   2.550   2.858   8.383
 3352TIP3    H131691   2.505   2.806   8.450
 3352TIP3    H231692   2.580   2.791   8.318
 3353TIP3   OH231693   2.659   2.680   8.207
 3353TIP3    H131694   2.646   2.673   8.110
 3353TIP3    H231695   2.756   2.689   8.216
 3354TIP3   OH231696   3.591   2.919   8.158
 3354TIP3    H131697   3.575   2.879   8.071
 3354TIP3    H231698   3.601   3.015   8.135
 3355TIP3   OH231699   2.644   3.754   8.321
 3355TIP3    H131700   2.742   3.761   8.324
 3355TIP3    H231701   2.627   3.813   8.245
 3356TIP3   OH231702   1.997   3.211   8.265
 3356TIP3    H131703   2.092   3.221   8.285
 3356TIP3    H231704   2.003   3.145   8.193
 3357TIP3   OH231705   3.716   2.793   8.365
 3357TIP3    H131706   3.665   2.834   8.291
 3357TIP3    H231707   3.714   2.859   8.437
 3358TIP3   OH231708   3.549   2.523   8.230
 3358TIP3    H131709   3.556   2.586   8.158
 3358TIP3    H231710   3.530   2.439   8.181
 3359TIP3   OH231711   3.473   2.267   8.142
 3359TIP3    H131712   3.532   2.224   8.206
 3359TIP3    H231713   3.387   2.226   8.162
 3360TIP3   OH231714   3.678   2.152   8.296
 3360TIP3    H131715   3.721   2.078   8.247
 3360TIP3    H231716   3.751   2.216   8.305
 3361TIP3   OH231717   2.038   1.957   8.399
 3361TIP3    H131718   2.086   2.023   8.347
 3361TIP3    H231719   1.980   2.014   8.449
 3362TIP3   OH231720   2.217   2.151   8.248
 3362TIP3    H131721   2.268   2.087   8.195
 3362TIP3    H231722   2.282   2.176   8.316
 3363TIP3   OH231723   2.910   3.677   8.337
 3363TIP3    H131724   3.001   3.703   8.318
 3363TIP3    H231725   2.891   3.625   8.256
 3364TIP3   OH231726   2.208   3.648   8.196
 3364TIP3    H131727   2.179   3.672   8.286
 3364TIP3    H231728   2.283   3.588   8.211
 3365TIP3   OH231729   4.820   2.670   8.262
 3365TIP3    H131730   4.889   2.671   8.332
 3365TIP3    H231731   4.857   2.600   8.208
 3366TIP3   OH231732   5.048   2.741   8.411
 3366TIP3    H131733   5.083   2.767   8.500
 3366TIP3    H231734   5.077   2.808   8.347
 3367TIP3   OH231735   5.423   1.933   8.420
 3367TIP3    H131736   5.328   1.939   8.437
 3367TIP3    H231737   5.442   2.016   8.374
 3368TIP3   OH231738   5.539   3.364   8.242
 3368TIP3    H131739   5.548   3.458   8.267
 3368TIP3    H231740   5.632   3.339   8.252
 3369TIP3   OH231741   5.084   3.647   8.319
 3369TIP3    H131742   5.112   3.566   8.269
 3369TIP3    H231743   5.083   3.611   8.409
 3370TIP3   OH231744   5.204   2.854   8.206
 3370TIP3    H131745   5.183   2.836   8.110
 3370TIP3    H231746   5.277   2.911   8.187
 3371TIP3   OH231747   4.752   2.247   8.257
 3371TIP3    H131748   4.724   2.249   8.350
 3371TIP3    H231749   4.723   2.158   8.228
 3372TIP3   OH231750   4.435   2.288   8.170
 3372TIP3    H131751   4.387   2.248   8.245
 3372TIP3    H231752   4.365   2.330   8.119
 3373TIP3   OH231753   3.884   2.324   8.405
 3373TIP3    H131754   3.942   2.390   8.362
 3373TIP3    H231755   3.823   2.387   8.447
 3374TIP3   OH231756   4.306   2.560   8.313
 3374TIP3    H131757   4.250   2.530   8.240
 3374TIP3    H231758   4.384   2.589   8.264
 3375TIP3   OH231759   5.023   2.306   8.317
 3375TIP3    H131760   4.927   2.318   8.311
 3375TIP3    H231761   5.055   2.386   8.363
 3376TIP3   OH231762   5.095   2.496   8.486
 3376TIP3    H131763   5.185   2.481   8.518
 3376TIP3    H231764   5.101   2.576   8.430
 3377TIP3   OH231765   4.849   3.153   8.425
 3377TIP3    H131766   4.818   3.246   8.430
 3377TIP3    H231767   4.770   3.102   8.428
 3378TIP3   OH231768   5.601   2.515   8.449
 3378TIP3    H131769   5.538   2.477   8.384
 3378TIP3    H231770   5.600   2.609   8.423
 3379TIP3   OH231771   3.964   2.794   8.273
 3379TIP3    H131772   4.023   2.854   8.325
 3379TIP3    H231773   3.875   2.821   8.305
 3380TIP3   OH231774   5.177   3.149   8.293
 3380TIP3    H131775   5.183   3.164   8.388
 3380TIP3    H231776   5.085   3.191   8.285
 3381TIP3   OH231777   5.600   3.636   8.306
 3381TIP3    H131778   5.677   3.695   8.302
 3381TIP3    H231779   5.533   3.698   8.340
 3382TIP3   OH231780   4.561   3.307   8.128
 3382TIP3    H131781   4.588   3.228   8.078
 3382TIP3    H231782   4.534   3.265   8.212
 3383TIP3   OH231783   4.445   3.255   8.379
 3383TIP3    H131784   4.473   3.210   8.459
 3383TIP3    H231785   4.464   3.347   8.405
 3384TIP3   OH231786   4.086   2.985   8.416
 3384TIP3    H131787   4.033   3.016   8.489
 3384TIP3    H231788   4.155   3.054   8.404
 3385TIP3   OH231789   4.685   3.401   8.380
 3385TIP3    H131790   4.629   3.463   8.431
 3385TIP3    H231791   4.766   3.453   8.367
 3386TIP3   OH231792   4.467   3.528   8.459
 3386TIP3    H131793   4.477   3.604   8.395
 3386TIP3    H231794   4.443   3.572   8.541
 3387TIP3   OH231795   4.321   2.186   8.391
 3387TIP3    H131796   4.304   2.272   8.430
 3387TIP3    H231797   4.411   2.172   8.426
 3388TIP3   OH231798   4.157   3.247   8.315
 3388TIP3    H131799   4.225   3.308   8.347
 3388TIP3    H231800   4.211   3.199   8.250
 3389TIP3   OH231801   3.992   2.514   8.231
 3389TIP3    H131802   3.990   2.610   8.251
 3389TIP3    H231803   3.902   2.494   8.202
 3390TIP3   OH231804   4.755   3.502   8.132
 3390TIP3    H131805   4.700   3.430   8.171
 3390TIP3    H231806   4.836   3.446   8.130
 3391TIP3   OH231807   5.240   3.479   8.163
 3391TIP3    H131808   5.251   3.396   8.212
 3391TIP3    H231809   5.316   3.486   8.104
 3392TIP3   OH231810   4.316   3.057   8.149
 3392TIP3    H131811   4.334   2.982   8.208
 3392TIP3    H231812   4.392   3.049   8.088
 3393TIP3   OH231813   4.802   3.145   8.116
 3393TIP3    H131814   4.838   3.178   8.202
 3393TIP3    H231815   4.834   3.052   8.114
 3394TIP3   OH231816   4.436   2.858   8.383
 3394TIP3    H131817   4.390   2.806   8.450
 3394TIP3    H231818   4.466   2.791   8.318
 3395TIP3   OH231819   4.544   2.680   8.208
 3395TIP3    H131820   4.531   2.673   8.111
 3395TIP3    H231821   4.642   2.689   8.217
 3396TIP3   OH231822   5.484   2.918   8.148
 3396TIP3    H131823   5.464   2.877   8.060
 3396TIP3    H231824   5.493   3.012   8.118
 3397TIP3   OH231825   4.530   3.754   8.321
 3397TIP3    H131826   4.628   3.759   8.323
 3397TIP3    H231827   4.513   3.813   8.246
 3398TIP3   OH231828   3.883   3.211   8.265
 3398TIP3    H131829   3.978   3.222   8.285
 3398TIP3    H231830   3.890   3.145   8.193
 3399TIP3   OH231831   5.595   2.792   8.369
 3399TIP3    H131832   5.564   2.833   8.284
 3399TIP3    H231833   5.611   2.861   8.436
 3400TIP3   OH231834   5.433   2.526   8.227
 3400TIP3    H131835   5.442   2.585   8.151
 3400TIP3    H231836   5.416   2.439   8.183
 3401TIP3   OH231837   5.358   2.267   8.142
 3401TIP3    H131838   5.418   2.223   8.206
 3401TIP3    H231839   5.273   2.226   8.162
 3402TIP3   OH231840   5.564   2.152   8.296
 3402TIP3    H131841   5.607   2.078   8.247
 3402TIP3    H231842   5.637   2.216   8.305
 3403TIP3   OH231843   3.923   1.958   8.400
 3403TIP3    H131844   3.971   2.023   8.347
 3403TIP3    H231845   3.865   2.015   8.449
 3404TIP3   OH231846   4.103   2.151   8.247
 3404TIP3    H131847   4.154   2.085   8.195
 3404TIP3    H231848   4.168   2.176   8.316
 3405TIP3   OH231849   4.794   3.682   8.336
 3405TIP3    H131850   4.887   3.704   8.318
 3405TIP3    H231851   4.777   3.625   8.257
 3406TIP3   OH231852   4.091   3.647   8.197
 3406TIP3    H131853   4.064   3.672   8.287
 3406TIP3    H231854   4.169   3.589   8.211
 3407TIP3   OH231855   6.706   2.670   8.261
 3407TIP3    H131856   6.775   2.674   8.331
 3407TIP3    H231857   6.743   2.599   8.208
 3408TIP3   OH231858   6.931   2.741   8.414
 3408TIP3    H131859   6.972   2.769   8.498
 3408TIP3    H231860   6.968   2.801   8.346
 3409TIP3   OH231861   7.275   1.926   8.403
 3409TIP3    H131862   7.194   1.951   8.447
 3409TIP3    H231863   7.312   2.008   8.369
 3410TIP3   OH231864   7.046   3.660   8.288
 3410TIP3    H131865   7.016   3.572   8.255
 3410TIP3    H231866   7.001   3.643   8.376
 3411TIP3   OH231867   7.087   2.852   8.206
 3411TIP3    H131868   7.078   2.837   8.108
 3411TIP3    H231869   7.166   2.906   8.208
 3412TIP3   OH231870   6.637   2.247   8.257
 3412TIP3    H131871   6.609   2.249   8.350
 3412TIP3    H231872   6.609   2.158   8.228
 3413TIP3   OH231873   6.321   2.287   8.170
 3413TIP3    H131874   6.273   2.248   8.245
 3413TIP3    H231875   6.251   2.330   8.119
 3414TIP3   OH231876   5.771   2.323   8.407
 3414TIP3    H131877   5.828   2.389   8.362
 3414TIP3    H231878   5.708   2.386   8.447
 3415TIP3   OH231879   6.192   2.560   8.313
 3415TIP3    H131880   6.135   2.530   8.240
 3415TIP3    H231881   6.270   2.589   8.264
 3416TIP3   OH231882   6.907   2.305   8.317
 3416TIP3    H131883   6.811   2.317   8.309
 3416TIP3    H231884   6.936   2.387   8.363
 3417TIP3   OH231885   6.982   2.496   8.484
 3417TIP3    H131886   7.072   2.483   8.514
 3417TIP3    H231887   6.984   2.577   8.430
 3418TIP3   OH231888   6.734   3.167   8.407
 3418TIP3    H131889   6.701   3.253   8.438
 3418TIP3    H231890   6.663   3.107   8.430
 3419TIP3   OH231891   5.848   2.793   8.273
 3419TIP3    H131892   5.909   2.853   8.323
 3419TIP3    H231893   5.762   2.821   8.306
 3420TIP3   OH231894   7.045   3.184   8.283
 3420TIP3    H131895   7.069   3.163   8.374
 3420TIP3    H231896   6.948   3.181   8.292
 3421TIP3   OH231897   6.453   3.305   8.130
 3421TIP3    H131898   6.466   3.226   8.076
 3421TIP3    H231899   6.417   3.266   8.213
 3422TIP3   OH231900   6.336   3.254   8.377
 3422TIP3    H131901   6.354   3.208   8.460
 3422TIP3    H231902   6.349   3.347   8.407
 3423TIP3   OH231903   5.971   2.986   8.415
 3423TIP3    H131904   5.921   3.016   8.491
 3423TIP3    H231905   6.041   3.053   8.404
 3424TIP3   OH231906   6.579   3.403   8.375
 3424TIP3    H131907   6.521   3.463   8.428
 3424TIP3    H231908   6.660   3.460   8.373
 3425TIP3   OH231909   6.353   3.528   8.455
 3425TIP3    H131910   6.362   3.606   8.394
 3425TIP3    H231911   6.332   3.571   8.539
 3426TIP3   OH231912   6.207   2.186   8.391
 3426TIP3    H131913   6.189   2.272   8.431
 3426TIP3    H231914   6.297   2.172   8.426
 3427TIP3   OH231915   6.042   3.246   8.315
 3427TIP3    H131916   6.109   3.308   8.348
 3427TIP3    H231917   6.097   3.199   8.251
 3428TIP3   OH231918   5.877   2.513   8.232
 3428TIP3    H131919   5.876   2.609   8.251
 3428TIP3    H231920   5.788   2.494   8.202
 3429TIP3   OH231921   6.658   3.492   8.136
 3429TIP3    H131922   6.591   3.429   8.172
 3429TIP3    H231923   6.733   3.432   8.124
 3430TIP3   OH231924   7.109   3.449   8.150
 3430TIP3    H131925   7.143   3.390   8.218
 3430TIP3    H231926   7.190   3.485   8.109
 3431TIP3   OH231927   6.202   3.057   8.149
 3431TIP3    H131928   6.219   2.982   8.208
 3431TIP3    H231929   6.277   3.049   8.088
 3432TIP3   OH231930   6.749   3.168   8.128
 3432TIP3    H131931   6.720   3.180   8.220
 3432TIP3    H231932   6.725   3.073   8.111
 3433TIP3   OH231933   6.323   2.860   8.383
 3433TIP3    H131934   6.276   2.807   8.450
 3433TIP3    H231935   6.352   2.792   8.319
 3434TIP3   OH231936   6.430   2.680   8.208
 3434TIP3    H131937   6.417   2.673   8.111
 3434TIP3    H231938   6.527   2.689   8.216
 3435TIP3   OH231939   6.403   3.759   8.324
 3435TIP3    H131940   6.502   3.758   8.320
 3435TIP3    H231941   6.394   3.815   8.245
 3436TIP3   OH231942   5.768   3.207   8.267
 3436TIP3    H131943   5.864   3.223   8.285
 3436TIP3    H231944   5.778   3.145   8.192
 3437TIP3   OH231945   7.304   2.522   8.231
 3437TIP3    H131946   7.325   2.583   8.160
 3437TIP3    H231947   7.294   2.437   8.182
 3438TIP3   OH231948   7.245   2.268   8.143
 3438TIP3    H131949   7.300   2.223   8.208
 3438TIP3    H231950   7.159   2.226   8.157
 3439TIP3   OH231951   5.809   1.958   8.399
 3439TIP3    H131952   5.857   2.023   8.347
 3439TIP3    H231953   5.751   2.015   8.449
 3440TIP3   OH231954   5.989   2.151   8.248
 3440TIP3    H131955   6.039   2.087   8.195
 3440TIP3    H231956   6.054   2.176   8.317
 3441TIP3   OH231957   6.652   3.725   8.271
 3441TIP3    H131958   6.738   3.719   8.317
 3441TIP3    H231959   6.652   3.630   8.244
 3442TIP3   OH231960   5.977   3.648   8.197
 3442TIP3    H131961   5.950   3.673   8.287
 3442TIP3    H231962   6.053   3.589   8.211
 3443TIP3   OH231963   1.047   4.553   8.262
 3443TIP3    H131964   1.117   4.559   8.331
 3443TIP3    H231965   1.089   4.484   8.208
 3444TIP3   OH231966   1.273   4.627   8.412
 3444TIP3    H131967   1.313   4.654   8.498
 3444TIP3    H231968   1.310   4.689   8.346
 3445TIP3   OH231969   1.668   3.796   8.386
 3445TIP3    H131970   1.577   3.797   8.424
 3445TIP3    H231971   1.674   3.892   8.376
 3446TIP3   OH231972   1.767   5.249   8.241
 3446TIP3    H131973   1.775   5.343   8.268
 3446TIP3    H231974   1.860   5.225   8.253
 3447TIP3   OH231975   1.307   5.528   8.319
 3447TIP3    H131976   1.349   5.454   8.270
 3447TIP3    H231977   1.313   5.497   8.410
 3448TIP3   OH231978   1.431   4.741   8.207
 3448TIP3    H131979   1.418   4.725   8.110
 3448TIP3    H231980   1.511   4.794   8.204
 3449TIP3   OH231981   0.974   4.133   8.256
 3449TIP3    H131982   0.957   4.133   8.351
 3449TIP3    H231983   0.953   4.041   8.230
 3450TIP3   OH231984   0.663   4.182   8.167
 3450TIP3    H131985   0.625   4.135   8.245
 3450TIP3    H231986   0.581   4.203   8.121
 3451TIP3   OH231987   0.124   4.220   8.405
 3451TIP3    H131988   0.177   4.286   8.356
 3451TIP3    H231989   0.050   4.269   8.441
 3452TIP3   OH231990   0.536   4.444   8.312
 3452TIP3    H131991   0.475   4.417   8.241
 3452TIP3    H231992   0.614   4.477   8.267
 3453TIP3   OH231993   1.251   4.196   8.312
 3453TIP3    H131994   1.155   4.203   8.313
 3453TIP3    H231995   1.283   4.272   8.365
 3454TIP3   OH231996   1.323   4.384   8.487
 3454TIP3    H131997   1.414   4.364   8.517
 3454TIP3    H231998   1.333   4.462   8.430
 3455TIP3   OH231999   1.077   5.053   8.405
 3455TIP3    H132000   1.041   5.137   8.439
 3455TIP3    H232001   1.007   4.991   8.428
 3456TIP3   OH232002   1.830   4.400   8.449
 3456TIP3    H132003   1.765   4.360   8.386
 3456TIP3    H232004   1.825   4.493   8.420
 3457TIP3   OH232005   0.183   4.677   8.278
 3457TIP3    H132006   0.248   4.738   8.323
 3457TIP3    H232007   0.101   4.714   8.309
 3458TIP3   OH232008   1.390   5.078   8.285
 3458TIP3    H132009   1.416   5.047   8.372
 3458TIP3    H232010   1.293   5.069   8.294
 3459TIP3   OH232011   1.829   5.520   8.306
 3459TIP3    H132012   1.906   5.580   8.302
 3459TIP3    H232013   1.762   5.583   8.339
 3460TIP3   OH232014   0.799   5.191   8.132
 3460TIP3    H132015   0.809   5.113   8.076
 3460TIP3    H232016   0.759   5.151   8.213
 3461TIP3   OH232017   0.679   5.139   8.377
 3461TIP3    H132018   0.700   5.095   8.460
 3461TIP3    H232019   0.689   5.232   8.406
 3462TIP3   OH232020   0.313   4.866   8.414
 3462TIP3    H132021   0.266   4.900   8.490
 3462TIP3    H232022   0.381   4.936   8.402
 3463TIP3   OH232023   0.918   5.286   8.380
 3463TIP3    H132024   0.857   5.345   8.429
 3463TIP3    H232025   0.994   5.346   8.370
 3464TIP3   OH232026   0.698   5.414   8.458
 3464TIP3    H132027   0.702   5.490   8.395
 3464TIP3    H232028   0.671   5.457   8.539
 3465TIP3   OH232029   0.554   4.073   8.386
 3465TIP3    H132030   0.530   4.153   8.434
 3465TIP3    H232031   0.641   4.057   8.428
 3466TIP3   OH232032   0.387   5.130   8.316
 3466TIP3    H132033   0.451   5.196   8.347
 3466TIP3    H232034   0.442   5.084   8.250
 3467TIP3   OH232035   0.230   4.400   8.221
 3467TIP3    H132036   0.224   4.492   8.252
 3467TIP3    H232037   0.137   4.378   8.209
 3468TIP3   OH232038   1.001   5.379   8.144
 3468TIP3    H132039   0.933   5.313   8.170
 3468TIP3    H232040   1.072   5.318   8.119
 3469TIP3   OH232041   1.456   5.352   8.158
 3469TIP3    H132042   1.484   5.278   8.215
 3469TIP3    H232043   1.536   5.372   8.108
 3470TIP3   OH232044   0.543   4.941   8.148
 3470TIP3    H132045   0.562   4.869   8.209
 3470TIP3    H232046   0.620   4.935   8.088
 3471TIP3   OH232047   1.093   5.055   8.129
 3471TIP3    H132048   1.064   5.064   8.221
 3471TIP3    H232049   1.069   4.960   8.111
 3472TIP3   OH232050   0.664   4.744   8.381
 3472TIP3    H132051   0.619   4.693   8.451
 3472TIP3    H232052   0.697   4.676   8.320
 3473TIP3   OH232053   0.771   4.558   8.206
 3473TIP3    H132054   0.768   4.572   8.110
 3473TIP3    H232055   0.868   4.576   8.223
 3474TIP3   OH232056   1.715   4.807   8.158
 3474TIP3    H132057   1.688   4.764   8.074
 3474TIP3    H232058   1.710   4.902   8.131
 3475TIP3   OH232059   0.760   5.640   8.321
 3475TIP3    H132060   0.858   5.647   8.324
 3475TIP3    H232061   0.741   5.699   8.247
 3476TIP3   OH232062   0.124   5.102   8.271
 3476TIP3    H132063   0.220   5.110   8.286
 3476TIP3    H232064   0.124   5.037   8.199
 3477TIP3   OH232065   1.821   4.661   8.357
 3477TIP3    H132066   1.769   4.707   8.284
 3477TIP3    H232067   1.788   4.700   8.441
 3478TIP3   OH232068   1.664   4.411   8.228
 3478TIP3    H132069   1.669   4.471   8.153
 3478TIP3    H232070   1.644   4.325   8.184
 3479TIP3   OH232071   1.588   4.149   8.140
 3479TIP3    H132072   1.646   4.110   8.208
 3479TIP3    H232073   1.502   4.112   8.165
 3480TIP3   OH232074   1.793   4.041   8.294
 3480TIP3    H132075   1.834   3.964   8.249
 3480TIP3    H232076   1.867   4.102   8.308
 3481TIP3   OH232077   0.197   3.856   8.412
 3481TIP3    H132078   0.206   3.919   8.340
 3481TIP3    H232079   0.112   3.882   8.453
 3482TIP3   OH232080   0.335   4.044   8.242
 3482TIP3    H132081   0.383   3.971   8.197
 3482TIP3    H232082   0.393   4.059   8.320
 3483TIP3   OH232083   1.025   5.562   8.337
 3483TIP3    H132084   1.116   5.589   8.318
 3483TIP3    H232085   1.006   5.511   8.256
 3484TIP3   OH232086   0.315   5.530   8.196
 3484TIP3    H132087   0.293   5.559   8.286
 3484TIP3    H232088   0.396   5.477   8.212
 3485TIP3   OH232089   2.935   4.555   8.262
 3485TIP3    H132090   3.005   4.559   8.331
 3485TIP3    H232091   2.972   4.484   8.208
 3486TIP3   OH232092   3.161   4.626   8.412
 3486TIP3    H132093   3.199   4.654   8.498
 3486TIP3    H232094   3.196   4.689   8.347
 3487TIP3   OH232095   3.537   3.818   8.420
 3487TIP3    H132096   3.442   3.824   8.437
 3487TIP3    H232097   3.556   3.902   8.374
 3488TIP3   OH232098   3.653   5.251   8.255
 3488TIP3    H132099   3.663   5.348   8.262
 3488TIP3    H232100   3.745   5.225   8.242
 3489TIP3   OH232101   3.193   5.528   8.319
 3489TIP3    H132102   3.235   5.454   8.270
 3489TIP3    H232103   3.199   5.497   8.410
 3490TIP3   OH232104   3.314   4.742   8.206
 3490TIP3    H132105   3.305   4.724   8.109
 3490TIP3    H232106   3.397   4.792   8.206
 3491TIP3   OH232107   2.866   4.132   8.257
 3491TIP3    H132108   2.838   4.135   8.350
 3491TIP3    H232109   2.838   4.044   8.228
 3492TIP3   OH232110   2.550   4.173   8.170
 3492TIP3    H132111   2.502   4.133   8.245
 3492TIP3    H232112   2.480   4.216   8.119
 3493TIP3   OH232113   2.000   4.207   8.408
 3493TIP3    H132114   2.057   4.273   8.362
 3493TIP3    H232115   1.936   4.269   8.447
 3494TIP3   OH232116   2.421   4.445   8.314
 3494TIP3    H132117   2.365   4.413   8.241
 3494TIP3    H232118   2.499   4.475   8.264
 3495TIP3   OH232119   3.138   4.191   8.317
 3495TIP3    H132120   3.042   4.204   8.311
 3495TIP3    H232121   3.169   4.272   8.363
 3496TIP3   OH232122   3.210   4.381   8.485
 3496TIP3    H132123   3.300   4.368   8.518
 3496TIP3    H232124   3.216   4.462   8.431
 3497TIP3   OH232125   2.963   5.053   8.405
 3497TIP3    H132126   2.927   5.136   8.438
 3497TIP3    H232127   2.893   4.990   8.429
 3498TIP3   OH232128   3.715   4.401   8.449
 3498TIP3    H132129   3.652   4.365   8.384
 3498TIP3    H232130   3.714   4.496   8.424
 3499TIP3   OH232131   2.077   4.682   8.271
 3499TIP3    H132132   2.140   4.736   8.325
 3499TIP3    H232133   1.987   4.700   8.301
 3500TIP3   OH232134   3.275   5.079   8.285
 3500TIP3    H132135   3.301   5.045   8.371
 3500TIP3    H232136   3.178   5.069   8.294
 3501TIP3   OH232137   3.716   5.519   8.307
 3501TIP3    H132138   3.789   5.584   8.298
 3501TIP3    H232139   3.647   5.582   8.338
 3502TIP3   OH232140   2.686   5.190   8.132
 3502TIP3    H132141   2.696   5.112   8.076
 3502TIP3    H232142   2.645   5.151   8.213
 3503TIP3   OH232143   2.564   5.139   8.378
 3503TIP3    H132144   2.586   5.095   8.461
 3503TIP3    H232145   2.577   5.232   8.407
 3504TIP3   OH232146   2.189   4.879   8.411
 3504TIP3    H132147   2.160   4.906   8.497
 3504TIP3    H232148   2.272   4.933   8.405
 3505TIP3   OH232149   2.804   5.286   8.380
 3505TIP3    H132150   2.743   5.345   8.429
 3505TIP3    H232151   2.879   5.346   8.370
 3506TIP3   OH232152   2.586   5.413   8.458
 3506TIP3    H132153   2.590   5.490   8.395
 3506TIP3    H232154   2.558   5.456   8.540
 3507TIP3   OH232155   2.436   4.071   8.391
 3507TIP3    H132156   2.418   4.157   8.430
 3507TIP3    H232157   2.526   4.057   8.426
 3508TIP3   OH232158   2.269   5.132   8.311
 3508TIP3    H132159   2.336   5.193   8.348
 3508TIP3    H232160   2.330   5.085   8.251
 3509TIP3   OH232161   2.106   4.399   8.233
 3509TIP3    H132162   2.105   4.495   8.251
 3509TIP3    H232163   2.018   4.377   8.202
 3510TIP3   OH232164   2.888   5.379   8.144
 3510TIP3    H132165   2.818   5.313   8.170
 3510TIP3    H232166   2.958   5.318   8.119
 3511TIP3   OH232167   3.340   5.352   8.158
 3511TIP3    H132168   3.368   5.277   8.214
 3511TIP3    H232169   3.419   5.373   8.106
 3512TIP3   OH232170   2.426   4.940   8.146
 3512TIP3    H132171   2.449   4.869   8.209
 3512TIP3    H232172   2.506   4.935   8.090
 3513TIP3   OH232173   2.979   5.055   8.129
 3513TIP3    H132174   2.949   5.063   8.221
 3513TIP3    H232175   2.954   4.960   8.111
 3514TIP3   OH232176   2.550   4.744   8.383
 3514TIP3    H132177   2.506   4.691   8.450
 3514TIP3    H232178   2.580   4.676   8.318
 3515TIP3   OH232179   2.659   4.566   8.208
 3515TIP3    H132180   2.646   4.559   8.111
 3515TIP3    H232181   2.756   4.575   8.217
 3516TIP3   OH232182   3.593   4.807   8.160
 3516TIP3    H132183   3.576   4.765   8.073
 3516TIP3    H232184   3.600   4.901   8.132
 3517TIP3   OH232185   2.644   5.640   8.321
 3517TIP3    H132186   2.742   5.647   8.324
 3517TIP3    H232187   2.627   5.699   8.246
 3518TIP3   OH232188   1.997   5.089   8.268
 3518TIP3    H132189   2.093   5.109   8.286
 3518TIP3    H232190   2.007   5.029   8.192
 3519TIP3   OH232191   3.715   4.678   8.363
 3519TIP3    H132192   3.663   4.719   8.290
 3519TIP3    H232193   3.713   4.742   8.436
 3520TIP3   OH232194   3.549   4.410   8.229
 3520TIP3    H132195   3.556   4.472   8.156
 3520TIP3    H232196   3.530   4.326   8.182
 3521TIP3   OH232197   3.473   4.152   8.142
 3521TIP3    H132198   3.533   4.109   8.206
 3521TIP3    H232199   3.387   4.112   8.162
 3522TIP3   OH232200   3.678   4.038   8.295
 3522TIP3    H132201   3.721   3.964   8.247
 3522TIP3    H232202   3.751   4.102   8.305
 3523TIP3   OH232203   2.040   3.843   8.401
 3523TIP3    H132204   2.086   3.909   8.347
 3523TIP3    H232205   1.978   3.899   8.448
 3524TIP3   OH232206   2.217   4.037   8.248
 3524TIP3    H132207   2.268   3.972   8.195
 3524TIP3    H232208   2.282   4.062   8.317
 3525TIP3   OH232209   2.910   5.562   8.337
 3525TIP3    H132210   3.001   5.589   8.318
 3525TIP3    H232211   2.891   5.511   8.256
 3526TIP3   OH232212   2.204   5.530   8.195
 3526TIP3    H132213   2.178   5.558   8.285
 3526TIP3    H232214   2.283   5.476   8.212
 3527TIP3   OH232215   4.823   4.558   8.259
 3527TIP3    H132216   4.890   4.558   8.332
 3527TIP3    H232217   4.856   4.482   8.209
 3528TIP3   OH232218   5.046   4.628   8.412
 3528TIP3    H132219   5.086   4.655   8.497
 3528TIP3    H232220   5.084   4.688   8.346
 3529TIP3   OH232221   5.423   3.819   8.421
 3529TIP3    H132222   5.328   3.824   8.437
 3529TIP3    H232223   5.442   3.902   8.374
 3530TIP3   OH232224   5.536   5.253   8.240
 3530TIP3    H132225   5.550   5.345   8.267
 3530TIP3    H232226   5.627   5.222   8.251
 3531TIP3   OH232227   5.078   5.529   8.319
 3531TIP3    H132228   5.119   5.455   8.270
 3531TIP3    H232229   5.084   5.498   8.411
 3532TIP3   OH232230   5.196   4.747   8.204
 3532TIP3    H132231   5.194   4.722   8.108
 3532TIP3    H232232   5.283   4.790   8.208
 3533TIP3   OH232233   4.752   4.132   8.257
 3533TIP3    H132234   4.724   4.135   8.350
 3533TIP3    H232235   4.723   4.044   8.228
 3534TIP3   OH232236   4.435   4.173   8.170
 3534TIP3    H132237   4.387   4.133   8.245
 3534TIP3    H232238   4.365   4.216   8.119
 3535TIP3   OH232239   3.885   4.209   8.407
 3535TIP3    H132240   3.942   4.275   8.362
 3535TIP3    H232241   3.823   4.272   8.447
 3536TIP3   OH232242   4.306   4.445   8.313
 3536TIP3    H132243   4.249   4.416   8.240
 3536TIP3    H232244   4.384   4.474   8.264
 3537TIP3   OH232245   5.024   4.192   8.318
 3537TIP3    H132246   4.928   4.204   8.311
 3537TIP3    H232247   5.055   4.272   8.363
 3538TIP3   OH232248   5.095   4.385   8.489
 3538TIP3    H132249   5.187   4.366   8.513
 3538TIP3    H232250   5.102   4.461   8.428
 3539TIP3   OH232251   4.847   5.053   8.400
 3539TIP3    H132252   4.814   5.136   8.439
 3539TIP3    H232253   4.779   4.991   8.430
 3540TIP3   OH232254   5.600   4.401   8.450
 3540TIP3    H132255   5.538   4.365   8.383
 3540TIP3    H232256   5.601   4.496   8.423
 3541TIP3   OH232257   3.963   4.681   8.271
 3541TIP3    H132258   4.022   4.739   8.325
 3541TIP3    H232259   3.875   4.705   8.305
 3542TIP3   OH232260   5.159   5.076   8.284
 3542TIP3    H132261   5.190   5.047   8.371
 3542TIP3    H232262   5.063   5.070   8.298
 3543TIP3   OH232263   5.601   5.521   8.304
 3543TIP3    H132264   5.678   5.580   8.304
 3543TIP3    H232265   5.533   5.582   8.340
 3544TIP3   OH232266   4.574   5.189   8.133
 3544TIP3    H132267   4.578   5.111   8.076
 3544TIP3    H232268   4.530   5.152   8.213
 3545TIP3   OH232269   4.452   5.140   8.376
 3545TIP3    H132270   4.469   5.095   8.460
 3545TIP3    H232271   4.461   5.232   8.408
 3546TIP3   OH232272   4.081   4.875   8.412
 3546TIP3    H132273   4.039   4.897   8.495
 3546TIP3    H232274   4.159   4.935   8.408
 3547TIP3   OH232275   4.689   5.286   8.379
 3547TIP3    H132276   4.628   5.344   8.429
 3547TIP3    H232277   4.765   5.346   8.370
 3548TIP3   OH232278   4.471   5.414   8.458
 3548TIP3    H132279   4.477   5.491   8.396
 3548TIP3    H232280   4.444   5.457   8.540
 3549TIP3   OH232281   4.322   4.071   8.391
 3549TIP3    H132282   4.304   4.157   8.430
 3549TIP3    H232283   4.411   4.057   8.426
 3550TIP3   OH232284   4.156   5.135   8.315
 3550TIP3    H132285   4.226   5.193   8.348
 3550TIP3    H232286   4.210   5.084   8.252
 3551TIP3   OH232287   3.992   4.400   8.232
 3551TIP3    H132288   3.990   4.495   8.252
 3551TIP3    H232289   3.902   4.380   8.202
 3552TIP3   OH232290   4.773   5.380   8.144
 3552TIP3    H132291   4.703   5.314   8.171
 3552TIP3    H232292   4.844   5.320   8.120
 3553TIP3   OH232293   5.224   5.348   8.156
 3553TIP3    H132294   5.257   5.279   8.216
 3553TIP3    H232295   5.305   5.372   8.108
 3554TIP3   OH232296   4.314   4.942   8.149
 3554TIP3    H132297   4.333   4.868   8.208
 3554TIP3    H232298   4.389   4.935   8.088
 3555TIP3   OH232299   4.866   5.048   8.125
 3555TIP3    H132300   4.836   5.070   8.216
 3555TIP3    H232301   4.831   4.956   8.122
 3556TIP3   OH232302   4.436   4.744   8.382
 3556TIP3    H132303   4.391   4.693   8.451
 3556TIP3    H232304   4.466   4.675   8.318
 3557TIP3   OH232305   4.545   4.568   8.208
 3557TIP3    H132306   4.531   4.557   8.111
 3557TIP3    H232307   4.642   4.573   8.218
 3558TIP3   OH232308   5.478   4.805   8.160
 3558TIP3    H132309   5.464   4.764   8.072
 3558TIP3    H232310   5.488   4.900   8.134
 3559TIP3   OH232311   4.530   5.640   8.320
 3559TIP3    H132312   4.628   5.648   8.324
 3559TIP3    H232313   4.513   5.698   8.245
 3560TIP3   OH232314   3.884   5.098   8.272
 3560TIP3    H132315   3.982   5.104   8.280
 3560TIP3    H232316   3.885   5.033   8.196
 3561TIP3   OH232317   5.602   4.679   8.365
 3561TIP3    H132318   5.550   4.720   8.291
 3561TIP3    H232319   5.599   4.745   8.437
 3562TIP3   OH232320   5.433   4.409   8.228
 3562TIP3    H132321   5.442   4.472   8.156
 3562TIP3    H232322   5.415   4.325   8.181
 3563TIP3   OH232323   5.357   4.153   8.143
 3563TIP3    H132324   5.418   4.109   8.206
 3563TIP3    H232325   5.272   4.111   8.163
 3564TIP3   OH232326   5.565   4.039   8.295
 3564TIP3    H132327   5.607   3.964   8.247
 3564TIP3    H232328   5.639   4.102   8.305
 3565TIP3   OH232329   3.923   3.843   8.399
 3565TIP3    H132330   3.971   3.909   8.347
 3565TIP3    H232331   3.865   3.900   8.449
 3566TIP3   OH232332   4.103   4.037   8.248
 3566TIP3    H132333   4.154   3.972   8.196
 3566TIP3    H232334   4.168   4.062   8.317
 3567TIP3   OH232335   4.796   5.563   8.338
 3567TIP3    H132336   4.888   5.588   8.317
 3567TIP3    H232337   4.776   5.512   8.257
 3568TIP3   OH232338   4.087   5.528   8.198
 3568TIP3    H132339   4.067   5.562   8.286
 3568TIP3    H232340   4.169   5.476   8.210
 3569TIP3   OH232341   6.706   4.554   8.262
 3569TIP3    H132342   6.776   4.559   8.330
 3569TIP3    H232343   6.743   4.484   8.208
 3570TIP3   OH232344   6.930   4.627   8.414
 3570TIP3    H132345   6.972   4.655   8.498
 3570TIP3    H232346   6.968   4.687   8.346
 3571TIP3   OH232347   7.281   3.815   8.410
 3571TIP3    H132348   7.193   3.832   8.442
 3571TIP3    H232349   7.308   3.896   8.367
 3572TIP3   OH232350   6.963   5.529   8.316
 3572TIP3    H132351   7.005   5.453   8.269
 3572TIP3    H232352   6.965   5.499   8.409
 3573TIP3   OH232353   7.087   4.738   8.206
 3573TIP3    H132354   7.079   4.722   8.108
 3573TIP3    H232355   7.166   4.792   8.208
 3574TIP3   OH232356   6.643   4.129   8.258
 3574TIP3    H132357   6.608   4.133   8.348
 3574TIP3    H232358   6.611   4.043   8.227
 3575TIP3   OH232359   6.361   4.124   8.162
 3575TIP3    H132360   6.299   4.127   8.238
 3575TIP3    H232361   6.298   4.178   8.108
 3576TIP3   OH232362   5.769   4.208   8.409
 3576TIP3    H132363   5.829   4.272   8.362
 3576TIP3    H232364   5.708   4.275   8.447
 3577TIP3   OH232365   6.182   4.528   8.339
 3577TIP3    H132366   6.121   4.466   8.290
 3577TIP3    H232367   6.257   4.491   8.289
 3578TIP3   OH232368   6.910   4.191   8.318
 3578TIP3    H132369   6.814   4.202   8.308
 3578TIP3    H232370   6.937   4.273   8.364
 3579TIP3   OH232371   6.983   4.382   8.484
 3579TIP3    H132372   7.072   4.369   8.514
 3579TIP3    H232373   6.984   4.463   8.430
 3580TIP3   OH232374   6.733   5.053   8.406
 3580TIP3    H132375   6.697   5.137   8.439
 3580TIP3    H232376   6.663   4.991   8.429
 3581TIP3   OH232377   5.848   4.682   8.270
 3581TIP3    H132378   5.909   4.738   8.325
 3581TIP3    H232379   5.761   4.707   8.306
 3582TIP3   OH232380   7.044   5.078   8.286
 3582TIP3    H132381   7.070   5.046   8.372
 3582TIP3    H232382   6.947   5.068   8.293
 3583TIP3   OH232383   6.455   5.191   8.132
 3583TIP3    H132384   6.466   5.113   8.076
 3583TIP3    H232385   6.416   5.151   8.213
 3584TIP3   OH232386   6.336   5.140   8.377
 3584TIP3    H132387   6.357   5.095   8.460
 3584TIP3    H232388   6.348   5.232   8.407
 3585TIP3   OH232389   5.971   4.871   8.415
 3585TIP3    H132390   5.919   4.902   8.489
 3585TIP3    H232391   6.041   4.939   8.404
 3586TIP3   OH232392   6.575   5.286   8.380
 3586TIP3    H132393   6.515   5.345   8.429
 3586TIP3    H232394   6.651   5.346   8.370
 3587TIP3   OH232395   6.357   5.414   8.458
 3587TIP3    H132396   6.361   5.490   8.395
 3587TIP3    H232397   6.330   5.456   8.540
 3588TIP3   OH232398   6.207   4.058   8.402
 3588TIP3    H132399   6.188   4.153   8.418
 3588TIP3    H232400   6.300   4.057   8.428
 3589TIP3   OH232401   6.043   5.132   8.315
 3589TIP3    H132402   6.110   5.194   8.347
 3589TIP3    H232403   6.097   5.082   8.251
 3590TIP3   OH232404   5.868   4.402   8.237
 3590TIP3    H132405   5.874   4.498   8.249
 3590TIP3    H232406   5.783   4.382   8.199
 3591TIP3   OH232407   6.658   5.379   8.143
 3591TIP3    H132408   6.589   5.313   8.170
 3591TIP3    H232409   6.730   5.318   8.119
 3592TIP3   OH232410   7.112   5.354   8.165
 3592TIP3    H132411   7.140   5.276   8.215
 3592TIP3    H232412   7.189   5.371   8.107
 3593TIP3   OH232413   6.202   4.942   8.150
 3593TIP3    H132414   6.219   4.866   8.207
 3593TIP3    H232415   6.277   4.934   8.088
 3594TIP3   OH232416   6.751   5.055   8.130
 3594TIP3    H132417   6.719   5.064   8.221
 3594TIP3    H232418   6.726   4.961   8.111
 3595TIP3   OH232419   6.326   4.748   8.388
 3595TIP3    H132420   6.272   4.692   8.447
 3595TIP3    H232421   6.348   4.680   8.320
 3596TIP3   OH232422   6.432   4.570   8.208
 3596TIP3    H132423   6.415   4.556   8.112
 3596TIP3    H232424   6.529   4.574   8.215
 3597TIP3   OH232425   6.414   5.642   8.320
 3597TIP3    H132426   6.512   5.647   8.324
 3597TIP3    H232427   6.400   5.700   8.244
 3598TIP3   OH232428   5.767   5.095   8.266
 3598TIP3    H132429   5.863   5.107   8.285
 3598TIP3    H232430   5.774   5.030   8.193
 3599TIP3   OH232431   7.304   4.408   8.231
 3599TIP3    H132432   7.324   4.469   8.160
 3599TIP3    H232433   7.293   4.323   8.182
 3600TIP3   OH232434   7.246   4.156   8.143
 3600TIP3    H132435   7.302   4.110   8.206
 3600TIP3    H232436   7.160   4.113   8.157
 3601TIP3   OH232437   5.808   3.843   8.398
 3601TIP3    H132438   5.859   3.910   8.348
 3601TIP3    H232439   5.751   3.901   8.449
 3602TIP3   OH232440   5.983   4.023   8.256
 3602TIP3    H132441   6.041   3.975   8.194
 3602TIP3    H232442   6.052   4.068   8.310
 3603TIP3   OH232443   6.681   5.562   8.337
 3603TIP3    H132444   6.772   5.589   8.318
 3603TIP3    H232445   6.663   5.510   8.256
 3604TIP3   OH232446   5.980   5.542   8.197
 3604TIP3    H132447   5.948   5.552   8.289
 3604TIP3    H232448   6.051   5.475   8.209
 3605TIP3   OH232449   1.050   6.441   8.262
 3605TIP3    H132450   1.120   6.444   8.331
 3605TIP3    H232451   1.086   6.370   8.208
 3606TIP3   OH232452   1.275   6.512   8.412
 3606TIP3    H132453   1.314   6.540   8.499
 3606TIP3    H232454   1.311   6.575   8.347
 3607TIP3   OH232455   1.652   5.704   8.420
 3607TIP3    H132456   1.557   5.710   8.437
 3607TIP3    H232457   1.671   5.787   8.374
 3608TIP3   OH232458   1.767   7.138   8.244
 3608TIP3    H132459   1.777   7.232   8.268
 3608TIP3    H232460   1.859   7.107   8.252
 3609TIP3   OH232461   1.428   6.628   8.206
 3609TIP3    H132462   1.419   6.610   8.108
 3609TIP3    H232463   1.511   6.677   8.206
 3610TIP3   OH232464   0.980   6.018   8.257
 3610TIP3    H132465   0.953   6.020   8.350
 3610TIP3    H232466   0.952   5.930   8.228
 3611TIP3   OH232467   0.666   6.058   8.169
 3611TIP3    H132468   0.617   6.019   8.245
 3611TIP3    H232469   0.595   6.101   8.119
 3612TIP3   OH232470   0.124   6.106   8.406
 3612TIP3    H132471   0.176   6.171   8.356
 3612TIP3    H232472   0.049   6.154   8.441
 3613TIP3   OH232473   0.534   6.332   8.313
 3613TIP3    H132474   0.479   6.301   8.239
 3613TIP3    H232475   0.613   6.360   8.264
 3614TIP3   OH232476   1.252   6.077   8.318
 3614TIP3    H132477   1.156   6.089   8.311
 3614TIP3    H232478   1.283   6.158   8.363
 3615TIP3   OH232479   1.324   6.267   8.485
 3615TIP3    H132480   1.415   6.254   8.518
 3615TIP3    H232481   1.331   6.348   8.431
 3616TIP3   OH232482   1.079   6.937   8.407
 3616TIP3    H132483   1.041   7.021   8.436
 3616TIP3    H232484   1.007   6.876   8.429
 3617TIP3   OH232485   1.830   6.287   8.449
 3617TIP3    H132486   1.766   6.250   8.384
 3617TIP3    H232487   1.828   6.381   8.424
 3618TIP3   OH232488   0.183   6.563   8.278
 3618TIP3    H132489   0.248   6.623   8.323
 3618TIP3    H232490   0.101   6.599   8.309
 3619TIP3   OH232491   1.390   6.957   8.281
 3619TIP3    H132492   1.418   6.933   8.369
 3619TIP3    H232493   1.293   6.955   8.292
 3620TIP3   OH232494   0.799   7.075   8.131
 3620TIP3    H132495   0.807   6.995   8.076
 3620TIP3    H232496   0.760   7.036   8.213
 3621TIP3   OH232497   0.676   7.024   8.379
 3621TIP3    H132498   0.700   6.979   8.461
 3621TIP3    H232499   0.687   7.117   8.405
 3622TIP3   OH232500   0.313   6.753   8.414
 3622TIP3    H132501   0.267   6.787   8.491
 3622TIP3    H232502   0.381   6.823   8.402
 3623TIP3   OH232503   0.922   7.164   8.392
 3623TIP3    H132504   0.861   7.228   8.434
 3623TIP3    H232505   0.995   7.224   8.366
 3624TIP3   OH232506   0.710  -0.036   8.461
 3624TIP3    H132507   0.697   0.036   8.396
 3624TIP3    H232508   0.662  -0.005   8.538
 3625TIP3   OH232509   0.552   5.957   8.390
 3625TIP3    H132510   0.531   6.041   8.432
 3625TIP3    H232511   0.642   5.944   8.427
 3626TIP3   OH232512   0.387   7.015   8.316
 3626TIP3    H132513   0.447   7.084   8.349
 3626TIP3    H232514   0.443   6.971   8.249
 3627TIP3   OH232515   0.230   6.285   8.220
 3627TIP3    H132516   0.226   6.377   8.250
 3627TIP3    H232517   0.137   6.263   8.207
 3628TIP3   OH232518   1.003   7.260   8.157
 3628TIP3    H132519   0.931   7.193   8.169
 3628TIP3    H232520   1.072   7.205   8.118
 3629TIP3   OH232521   1.462   7.232   8.172
 3629TIP3    H132522   1.493   7.154   8.219
 3629TIP3    H232523   1.539   7.253   8.114
 3630TIP3   OH232524   0.545   6.832   8.148
 3630TIP3    H132525   0.561   6.756   8.206
 3630TIP3    H232526   0.620   6.821   8.087
 3631TIP3   OH232527   1.095   6.939   8.129
 3631TIP3    H132528   1.062   6.951   8.220
 3631TIP3    H232529   1.070   6.846   8.112
 3632TIP3   OH232530   0.665   6.629   8.382
 3632TIP3    H132531   0.620   6.577   8.450
 3632TIP3    H232532   0.696   6.562   8.318
 3633TIP3   OH232533   0.771   6.452   8.208
 3633TIP3    H132534   0.760   6.445   8.111
 3633TIP3    H232535   0.869   6.460   8.217
 3634TIP3   OH232536   1.707   6.689   8.159
 3634TIP3    H132537   1.690   6.650   8.071
 3634TIP3    H232538   1.715   6.785   8.134
 3635TIP3   OH232539   0.124   6.988   8.271
 3635TIP3    H132540   0.220   6.994   8.287
 3635TIP3    H232541   0.124   6.921   8.200
 3636TIP3   OH232542   1.832   6.563   8.365
 3636TIP3    H132543   1.779   6.604   8.292
 3636TIP3    H232544   1.829   6.630   8.437
 3637TIP3   OH232545   1.663   6.295   8.229
 3637TIP3    H132546   1.670   6.358   8.156
 3637TIP3    H232547   1.644   6.211   8.181
 3638TIP3   OH232548   1.587   6.038   8.142
 3638TIP3    H132549   1.647   5.995   8.206
 3638TIP3    H232550   1.501   5.997   8.162
 3639TIP3   OH232551   1.792   5.923   8.296
 3639TIP3    H132552   1.836   5.850   8.247
 3639TIP3    H232553   1.865   5.987   8.306
 3640TIP3   OH232554   0.191   5.741   8.409
 3640TIP3    H132555   0.208   5.806   8.341
 3640TIP3    H232556   0.111   5.771   8.454
 3641TIP3   OH232557   0.332   5.925   8.245
 3641TIP3    H132558   0.384   5.858   8.197
 3641TIP3    H232559   0.394   5.946   8.318
 3642TIP3   OH232560   2.935   6.441   8.262
 3642TIP3    H132561   3.005   6.444   8.331
 3642TIP3    H232562   2.972   6.370   8.208
 3643TIP3   OH232563   3.161   6.512   8.412
 3643TIP3    H132564   3.199   6.540   8.499
 3643TIP3    H232565   3.196   6.575   8.347
 3644TIP3   OH232566   3.537   5.702   8.419
 3644TIP3    H132567   3.443   5.709   8.437
 3644TIP3    H232568   3.556   5.786   8.375
 3645TIP3   OH232569   3.653   7.139   8.244
 3645TIP3    H132570   3.663   7.232   8.268
 3645TIP3    H232571   3.744   7.105   8.252
 3646TIP3   OH232572   3.314   6.628   8.206
 3646TIP3    H132573   3.305   6.610   8.108
 3646TIP3    H232574   3.396   6.677   8.206
 3647TIP3   OH232575   2.866   6.018   8.257
 3647TIP3    H132576   2.838   6.020   8.350
 3647TIP3    H232577   2.838   5.930   8.228
 3648TIP3   OH232578   2.550   6.059   8.170
 3648TIP3    H132579   2.502   6.019   8.245
 3648TIP3    H232580   2.480   6.101   8.119
 3649TIP3   OH232581   2.000   6.094   8.406
 3649TIP3    H132582   2.057   6.161   8.362
 3649TIP3    H232583   1.937   6.157   8.447
 3650TIP3   OH232584   2.421   6.331   8.314
 3650TIP3    H132585   2.364   6.300   8.240
 3650TIP3    H232586   2.499   6.360   8.264
 3651TIP3   OH232587   3.138   6.077   8.318
 3651TIP3    H132588   3.042   6.089   8.311
 3651TIP3    H232589   3.169   6.158   8.363
 3652TIP3   OH232590   3.210   6.267   8.485
 3652TIP3    H132591   3.300   6.254   8.518
 3652TIP3    H232592   3.216   6.348   8.431
 3653TIP3   OH232593   2.964   6.938   8.407
 3653TIP3    H132594   2.928   7.023   8.436
 3653TIP3    H232595   2.893   6.877   8.429
 3654TIP3   OH232596   3.716   6.287   8.449
 3654TIP3    H132597   3.652   6.251   8.384
 3654TIP3    H232598   3.714   6.381   8.424
 3655TIP3   OH232599   2.078   6.566   8.272
 3655TIP3    H132600   2.137   6.624   8.325
 3655TIP3    H232601   1.990   6.592   8.305
 3656TIP3   OH232602   3.275   6.957   8.281
 3656TIP3    H132603   3.304   6.933   8.369
 3656TIP3    H232604   3.178   6.955   8.292
 3657TIP3   OH232605   2.684   7.074   8.131
 3657TIP3    H132606   2.694   6.994   8.078
 3657TIP3    H232607   2.645   7.037   8.213
 3658TIP3   OH232608   2.562   7.025   8.379
 3658TIP3    H132609   2.586   6.979   8.461
 3658TIP3    H232610   2.576   7.117   8.406
 3659TIP3   OH232611   2.200   6.757   8.415
 3659TIP3    H132612   2.148   6.788   8.489
 3659TIP3    H232613   2.269   6.826   8.404
 3660TIP3   OH232614   2.808   7.165   8.391
 3660TIP3    H132615   2.748   7.230   8.433
 3660TIP3    H232616   2.880   7.227   8.367
 3661TIP3   OH232617   2.592  -0.037   8.458
 3661TIP3    H132618   2.583   0.038   8.397
 3661TIP3    H232619   2.550  -0.004   8.538
 3662TIP3   OH232620   2.436   5.956   8.391
 3662TIP3    H132621   2.418   6.042   8.430
 3662TIP3    H232622   2.526   5.943   8.426
 3663TIP3   OH232623   2.269   7.020   8.314
 3663TIP3    H132624   2.334   7.083   8.349
 3663TIP3    H232625   2.325   6.974   8.250
 3664TIP3   OH232626   2.106   6.285   8.232
 3664TIP3    H132627   2.105   6.381   8.252
 3664TIP3    H232628   2.017   6.265   8.202
 3665TIP3   OH232629   2.886   7.260   8.152
 3665TIP3    H132630   2.817   7.193   8.171
 3665TIP3    H232631   2.959   7.205   8.120
 3666TIP3   OH232632   3.349   7.232   8.172
 3666TIP3    H132633   3.379   7.154   8.218
 3666TIP3    H232634   3.424   7.252   8.112
 3667TIP3   OH232635   2.431   6.831   8.149
 3667TIP3    H132636   2.447   6.755   8.207
 3667TIP3    H232637   2.507   6.821   8.087
 3668TIP3   OH232638   2.980   6.939   8.129
 3668TIP3    H132639   2.947   6.951   8.219
 3668TIP3    H232640   2.956   6.845   8.112
 3669TIP3   OH232641   2.550   6.629   8.382
 3669TIP3    H132642   2.505   6.577   8.450
 3669TIP3    H232643   2.580   6.562   8.318
 3670TIP3   OH232644   2.659   6.451   8.208
 3670TIP3    H132645   2.646   6.444   8.111
 3670TIP3    H232646   2.756   6.460   8.217
 3671TIP3   OH232647   3.593   6.689   8.159
 3671TIP3    H132648   3.576   6.650   8.071
 3671TIP3    H232649   3.600   6.785   8.134
 3672TIP3   OH232650   1.999   6.983   8.263
 3672TIP3    H132651   2.094   6.993   8.286
 3672TIP3    H232652   2.005   6.914   8.193
 3673TIP3   OH232653   3.717   6.563   8.365
 3673TIP3    H132654   3.665   6.604   8.292
 3673TIP3    H232655   3.714   6.630   8.437
 3674TIP3   OH232656   3.549   6.295   8.229
 3674TIP3    H132657   3.556   6.358   8.156
 3674TIP3    H232658   3.530   6.211   8.181
 3675TIP3   OH232659   3.473   6.038   8.142
 3675TIP3    H132660   3.532   5.995   8.206
 3675TIP3    H232661   3.387   5.997   8.162
 3676TIP3   OH232662   3.678   5.923   8.295
 3676TIP3    H132663   3.721   5.850   8.247
 3676TIP3    H232664   3.751   5.987   8.305
 3677TIP3   OH232665   2.037   5.728   8.399
 3677TIP3    H132666   2.085   5.794   8.347
 3677TIP3    H232667   1.980   5.786   8.449
 3678TIP3   OH232668   2.217   5.922   8.248
 3678TIP3    H132669   2.268   5.858   8.195
 3678TIP3    H232670   2.282   5.947   8.316
 3679TIP3   OH232671   4.821   6.441   8.261
 3679TIP3    H132672   4.889   6.442   8.333
 3679TIP3    H232673   4.858   6.370   8.208
 3680TIP3   OH232674   5.047   6.513   8.411
 3680TIP3    H132675   5.083   6.539   8.499
 3680TIP3    H232676   5.084   6.576   8.346
 3681TIP3   OH232677   5.423   5.702   8.418
 3681TIP3    H132678   5.329   5.708   8.437
 3681TIP3    H232679   5.441   5.787   8.376
 3682TIP3   OH232680   5.537   7.140   8.243
 3682TIP3    H132681   5.549   7.232   8.268
 3682TIP3    H232682   5.629   7.105   8.252
 3683TIP3   OH232683   5.200   6.628   8.205
 3683TIP3    H132684   5.191   6.610   8.108
 3683TIP3    H232685   5.283   6.678   8.205
 3684TIP3   OH232686   4.751   6.018   8.257
 3684TIP3    H132687   4.724   6.021   8.351
 3684TIP3    H232688   4.723   5.929   8.229
 3685TIP3   OH232689   4.436   6.059   8.171
 3685TIP3    H132690   4.388   6.018   8.246
 3685TIP3    H232691   4.366   6.101   8.120
 3686TIP3   OH232692   3.885   6.094   8.406
 3686TIP3    H132693   3.942   6.161   8.362
 3686TIP3    H232694   3.823   6.158   8.447
 3687TIP3   OH232695   4.304   6.334   8.312
 3687TIP3    H132696   4.249   6.302   8.239
 3687TIP3    H232697   4.385   6.359   8.265
 3688TIP3   OH232698   5.024   6.078   8.314
 3688TIP3    H132699   4.927   6.090   8.314
 3688TIP3    H232700   5.055   6.156   8.364
 3689TIP3   OH232701   5.097   6.269   8.475
 3689TIP3    H132702   5.182   6.254   8.519
 3689TIP3    H232703   5.103   6.353   8.429
 3690TIP3   OH232704   4.850   6.937   8.408
 3690TIP3    H132705   4.813   7.023   8.436
 3690TIP3    H232706   4.778   6.877   8.429
 3691TIP3   OH232707   5.601   6.287   8.449
 3691TIP3    H132708   5.536   6.250   8.385
 3691TIP3    H232709   5.599   6.381   8.424
 3692TIP3   OH232710   3.963   6.566   8.272
 3692TIP3    H132711   4.022   6.624   8.325
 3692TIP3    H232712   3.875   6.592   8.305
 3693TIP3   OH232713   5.161   6.957   8.281
 3693TIP3    H132714   5.189   6.933   8.370
 3693TIP3    H232715   5.064   6.955   8.293
 3694TIP3   OH232716   4.570   7.075   8.132
 3694TIP3    H132717   4.578   6.995   8.077
 3694TIP3    H232718   4.531   7.036   8.213
 3695TIP3   OH232719   4.447   7.024   8.379
 3695TIP3    H132720   4.471   6.978   8.461
 3695TIP3    H232721   4.463   7.117   8.406
 3696TIP3   OH232722   4.086   6.757   8.415
 3696TIP3    H132723   4.034   6.788   8.489
 3696TIP3    H232724   4.155   6.826   8.404
 3697TIP3   OH232725   4.693   7.166   8.391
 3697TIP3    H132726   4.634   7.230   8.434
 3697TIP3    H232727   4.766   7.227   8.367
 3698TIP3   OH232728   4.476  -0.038   8.459
 3698TIP3    H132729   4.472   0.037   8.397
 3698TIP3    H232730   4.437  -0.003   8.539
 3699TIP3   OH232731   4.323   5.957   8.392
 3699TIP3    H132732   4.304   6.043   8.431
 3699TIP3    H232733   4.413   5.945   8.428
 3700TIP3   OH232734   4.155   7.019   8.314
 3700TIP3    H132735   4.221   7.082   8.347
 3700TIP3    H232736   4.211   6.971   8.250
 3701TIP3   OH232737   3.991   6.285   8.232
 3701TIP3    H132738   3.990   6.381   8.251
 3701TIP3    H232739   3.902   6.265   8.202
 3702TIP3   OH232740   4.772   7.260   8.151
 3702TIP3    H132741   4.704   7.193   8.170
 3702TIP3    H232742   4.846   7.207   8.119
 3703TIP3   OH232743   5.235   7.231   8.175
 3703TIP3    H132744   5.266   7.152   8.219
 3703TIP3    H232745   5.307   7.253   8.113
 3704TIP3   OH232746   4.317   6.831   8.148
 3704TIP3    H132747   4.332   6.755   8.207
 3704TIP3    H232748   4.392   6.821   8.087
 3705TIP3   OH232749   4.866   6.939   8.129
 3705TIP3    H132750   4.833   6.951   8.220
 3705TIP3    H232751   4.841   6.845   8.112
 3706TIP3   OH232752   4.435   6.630   8.382
 3706TIP3    H132753   4.391   6.577   8.450
 3706TIP3    H232754   4.466   6.562   8.319
 3707TIP3   OH232755   4.545   6.451   8.209
 3707TIP3    H132756   4.532   6.445   8.112
 3707TIP3    H232757   4.642   6.459   8.218
 3708TIP3   OH232758   5.478   6.689   8.159
 3708TIP3    H132759   5.461   6.650   8.071
 3708TIP3    H232760   5.486   6.784   8.134
 3709TIP3   OH232761   3.886   6.986   8.261
 3709TIP3    H132762   3.980   6.992   8.285
 3709TIP3    H232763   3.890   6.915   8.194
 3710TIP3   OH232764   5.602   6.563   8.365
 3710TIP3    H132765   5.550   6.605   8.292
 3710TIP3    H232766   5.602   6.629   8.437
 3711TIP3   OH232767   5.433   6.295   8.228
 3711TIP3    H132768   5.441   6.358   8.156
 3711TIP3    H232769   5.415   6.211   8.181
 3712TIP3   OH232770   5.360   6.036   8.139
 3712TIP3    H132771   5.415   5.997   8.209
 3712TIP3    H232772   5.273   5.998   8.160
 3713TIP3   OH232773   5.563   5.924   8.296
 3713TIP3    H132774   5.605   5.849   8.249
 3713TIP3    H232775   5.635   5.988   8.308
 3714TIP3   OH232776   3.922   5.726   8.400
 3714TIP3    H132777   3.971   5.792   8.348
 3714TIP3    H232778   3.865   5.785   8.449
 3715TIP3   OH232779   4.104   5.922   8.248
 3715TIP3    H132780   4.154   5.858   8.195
 3715TIP3    H232781   4.169   5.947   8.317
 3716TIP3   OH232782   6.704   6.441   8.262
 3716TIP3    H132783   6.774   6.445   8.331
 3716TIP3    H232784   6.743   6.370   8.208
 3717TIP3   OH232785   6.930   6.513   8.414
 3717TIP3    H132786   6.971   6.540   8.498
 3717TIP3    H232787   6.968   6.573   8.346
 3718TIP3   OH232788   7.275   5.698   8.403
 3718TIP3    H132789   7.194   5.722   8.447
 3718TIP3    H232790   7.312   5.779   8.369
 3719TIP3   OH232791   7.087   6.624   8.206
 3719TIP3    H132792   7.078   6.608   8.108
 3719TIP3    H232793   7.166   6.677   8.208
 3720TIP3   OH232794   6.637   6.018   8.257
 3720TIP3    H132795   6.610   6.020   8.350
 3720TIP3    H232796   6.609   5.929   8.228
 3721TIP3   OH232797   6.319   6.053   8.166
 3721TIP3    H132798   6.276   6.022   8.248
 3721TIP3    H232799   6.253   6.107   8.121
 3722TIP3   OH232800   5.770   6.094   8.403
 3722TIP3    H132801   5.827   6.163   8.364
 3722TIP3    H232802   5.709   6.156   8.448
 3723TIP3   OH232803   6.192   6.325   8.312
 3723TIP3    H132804   6.134   6.304   8.238
 3723TIP3    H232805   6.269   6.361   8.266
 3724TIP3   OH232806   6.907   6.076   8.317
 3724TIP3    H132807   6.811   6.088   8.309
 3724TIP3    H232808   6.936   6.158   8.363
 3725TIP3   OH232809   6.982   6.267   8.484
 3725TIP3    H132810   7.072   6.254   8.514
 3725TIP3    H232811   6.984   6.349   8.430
 3726TIP3   OH232812   6.735   6.938   8.408
 3726TIP3    H132813   6.698   7.023   8.436
 3726TIP3    H232814   6.663   6.877   8.430
 3727TIP3   OH232815   5.848   6.566   8.270
 3727TIP3    H132816   5.907   6.623   8.324
 3727TIP3    H232817   5.761   6.591   8.306
 3728TIP3   OH232818   7.045   6.954   8.282
 3728TIP3    H132819   7.071   6.931   8.372
 3728TIP3    H232820   6.949   6.955   8.291
 3729TIP3   OH232821   6.457   7.075   8.130
 3729TIP3    H132822   6.464   6.995   8.076
 3729TIP3    H232823   6.417   7.037   8.213
 3730TIP3   OH232824   6.346   7.031   8.371
 3730TIP3    H132825   6.351   6.979   8.454
 3730TIP3    H232826   6.348   7.121   8.407
 3731TIP3   OH232827   5.963   6.768   8.404
 3731TIP3    H132828   5.926   6.782   8.492
 3731TIP3    H232829   6.044   6.824   8.406
 3732TIP3   OH232830   6.580   7.166   8.391
 3732TIP3    H132831   6.520   7.230   8.434
 3732TIP3    H232832   6.653   7.227   8.367
 3733TIP3   OH232833   6.361  -0.038   8.459
 3733TIP3    H132834   6.358   0.036   8.397
 3733TIP3    H232835   6.322  -0.003   8.539
 3734TIP3   OH232836   6.209   5.958   8.390
 3734TIP3    H132837   6.192   6.042   8.432
 3734TIP3    H232838   6.298   5.943   8.427
 3735TIP3   OH232839   6.040   7.024   8.308
 3735TIP3    H132840   6.107   7.080   8.349
 3735TIP3    H232841   6.097   6.971   8.250
 3736TIP3   OH232842   5.877   6.282   8.229
 3736TIP3    H132843   5.879   6.377   8.256
 3736TIP3    H232844   5.786   6.268   8.204
 3737TIP3   OH232845   6.657   7.260   8.152
 3737TIP3    H132846   6.588   7.193   8.171
 3737TIP3    H232847   6.730   7.205   8.120
 3738TIP3   OH232848   7.125   7.234   8.175
 3738TIP3    H132849   7.148   7.153   8.220
 3738TIP3    H232850   7.196   7.249   8.111
 3739TIP3   OH232851   6.203   6.832   8.145
 3739TIP3    H132852   6.216   6.758   8.206
 3739TIP3    H232853   6.280   6.820   8.086
 3740TIP3   OH232854   6.752   6.940   8.130
 3740TIP3    H132855   6.716   6.951   8.220
 3740TIP3    H232856   6.727   6.846   8.112
 3741TIP3   OH232857   6.323   6.630   8.381
 3741TIP3    H132858   6.274   6.584   8.453
 3741TIP3    H232859   6.351   6.559   8.320
 3742TIP3   OH232860   6.430   6.450   8.207
 3742TIP3    H132861   6.415   6.442   8.110
 3742TIP3    H232862   6.528   6.459   8.214
 3743TIP3   OH232863   5.771   6.986   8.261
 3743TIP3    H132864   5.866   6.990   8.287
 3743TIP3    H232865   5.774   6.916   8.193
 3744TIP3   OH232866   7.304   6.293   8.231
 3744TIP3    H132867   7.325   6.355   8.160
 3744TIP3    H232868   7.294   6.208   8.182
 3745TIP3   OH232869   7.245   6.039   8.143
 3745TIP3    H132870   7.300   5.994   8.208
 3745TIP3    H232871   7.158   5.997   8.157
 3746TIP3   OH232872   5.807   5.730   8.395
 3746TIP3    H132873   5.859   5.798   8.354
 3746TIP3    H232874   5.751   5.784   8.451
 3747TIP3   OH232875   5.995   5.922   8.263
 3747TIP3    H132876   6.054   5.856   8.222
 3747TIP3    H232877   6.059   5.953   8.332
 3748TIP3   OH232878   1.180   1.007   0.679
 3748TIP3    H132879   1.179   1.105   0.676
 3748TIP3    H232880   1.107   0.983   0.620
 3749TIP3   OH232881   1.066   0.932   1.029
 3749TIP3    H132882   1.065   0.867   1.102
 3749TIP3    H232883   1.030   0.880   0.955
 3750TIP3   OH232884   0.305   0.899   1.182
 3750TIP3    H132885   0.310   0.830   1.252
 3750TIP3    H232886   0.378   0.957   1.207
 3751TIP3   OH232887   1.434   1.226   0.858
 3751TIP3    H132888   1.394   1.154   0.908
 3751TIP3    H232889   1.435   1.296   0.926
 3752TIP3   OH232890   0.389   1.345   1.036
 3752TIP3    H132891   0.359   1.258   1.004
 3752TIP3    H232892   0.485   1.327   1.039
 3753TIP3   OH232893   0.079   0.703   0.557
 3753TIP3    H132894   0.028   0.782   0.587
 3753TIP3    H232895   0.005   0.645   0.542
 3754TIP3   OH232896   0.126   0.920   0.795
 3754TIP3    H132897   0.153   0.842   0.846
 3754TIP3    H232898   0.200   0.932   0.734
 3755TIP3   OH232899   1.146   1.744   0.881
 3755TIP3    H132900   1.209   1.673   0.853
 3755TIP3    H232901   1.125   1.709   0.968
 3756TIP3   OH232902   0.903   1.172   1.078
 3756TIP3    H132903   0.937   1.110   1.012
 3756TIP3    H232904   0.984   1.187   1.130
 3757TIP3   OH232905   1.765   0.336   1.149
 3757TIP3    H132906   1.780   0.397   1.226
 3757TIP3    H232907   1.819   0.380   1.082
 3758TIP3   OH232908   1.220   0.619   1.110
 3758TIP3    H132909   1.236   0.522   1.110
 3758TIP3    H232910   1.210   0.633   1.014
 3759TIP3   OH232911   0.533   0.431   0.830
 3759TIP3    H132912   0.543   0.514   0.779
 3759TIP3    H232913   0.493   0.372   0.763
 3760TIP3   OH232914   1.306   0.434   0.666
 3760TIP3    H132915   1.370   0.406   0.735
 3760TIP3    H232916   1.362   0.493   0.612
 3761TIP3   OH232917   0.196   0.665   0.896
 3761TIP3    H132918   0.264   0.616   0.946
 3761TIP3    H232919   0.211   0.634   0.806
 3762TIP3   OH232920   0.709   0.824   0.836
 3762TIP3    H132921   0.777   0.766   0.874
 3762TIP3    H232922   0.658   0.758   0.784
 3763TIP3   OH232923   1.805   0.477   1.376
 3763TIP3    H132924   1.746   0.554   1.368
 3763TIP3    H232925   1.813   0.470   1.473
 3764TIP3   OH232926   0.422   0.321   1.235
 3764TIP3    H132927   0.394   0.375   1.158
 3764TIP3    H232928   0.353   0.341   1.302
 3765TIP3   OH232929   1.151   1.265   0.589
 3765TIP3    H132930   1.123   1.238   0.499
 3765TIP3    H232931   1.120   1.358   0.593
 3766TIP3   OH232932   0.675   1.082   1.255
 3766TIP3    H132933   0.603   1.144   1.281
 3766TIP3    H232934   0.745   1.143   1.228
 3767TIP3   OH232935   1.486   0.371   0.866
 3767TIP3    H132936   1.463   0.295   0.920
 3767TIP3    H232937   1.554   0.413   0.923
 3768TIP3   OH232938   0.378   0.500   1.036
 3768TIP3    H132939   0.438   0.570   1.070
 3768TIP3    H232940   0.433   0.461   0.964
 3769TIP3   OH232941   0.517   1.281   1.337
 3769TIP3    H132942   0.513   1.374   1.307
 3769TIP3    H232943   0.430   1.275   1.383
 3770TIP3   OH232944   0.127   1.250   0.416
 3770TIP3    H132945   0.105   1.280   0.326
 3770TIP3    H232946   0.133   1.330   0.471
 3771TIP3   OH232947   1.487   1.411   1.094
 3771TIP3    H132948   1.390   1.420   1.107
 3771TIP3    H232949   1.512   1.503   1.075
 3772TIP3   OH232950   1.523   0.241   1.240
 3772TIP3    H132951   1.448   0.300   1.222
 3772TIP3    H232952   1.592   0.279   1.181
 3773TIP3   OH232953   0.845   0.070   0.978
 3773TIP3    H132954   0.833  -0.025   0.976
 3773TIP3    H232955   0.754   0.095   1.001
 3774TIP3   OH232956   1.316   1.589   0.757
 3774TIP3    H132957   1.354   1.516   0.702
 3774TIP3    H232958   1.356   1.668   0.714
 3775TIP3   OH232959   1.437   1.382   0.606
 3775TIP3    H132960   1.406   1.314   0.543
 3775TIP3    H232961   1.437   1.331   0.689
 3776TIP3   OH232962   1.593   1.242   1.454
 3776TIP3    H132963   1.611   1.175   1.384
 3776TIP3    H232964   1.617   1.326   1.410
 3777TIP3   OH232965   1.045   0.930   0.429
 3777TIP3    H132966   0.977   0.988   0.391
 3777TIP3    H232967   1.117   0.940   0.364
 3778TIP3   OH232968   1.048   0.781   0.141
 3778TIP3    H132969   1.122   0.784   0.203
 3778TIP3    H232970   1.084   0.723   0.074
 3779TIP3   OH232971   1.783   0.870   1.254
 3779TIP3    H132972   1.721   0.945   1.264
 3779TIP3    H232973   1.834   0.897   1.177
 3780TIP3   OH232974   1.390   0.951   0.525
 3780TIP3    H132975   1.316   0.975   0.586
 3780TIP3    H232976   1.439   0.884   0.576
 3781TIP3   OH232977   1.383   0.767   1.432
 3781TIP3    H132978   1.385   0.847   1.488
 3781TIP3    H232979   1.319   0.799   1.366
 3782TIP3   OH232980   0.554   1.019   0.715
 3782TIP3    H132981   0.519   0.978   0.633
 3782TIP3    H232982   0.614   0.948   0.749
 3783TIP3   OH232983   0.684   1.355   0.983
 3783TIP3    H132984   0.683   1.303   0.902
 3783TIP3    H232985   0.762   1.320   1.029
 3784TIP3   OH232986   0.586   0.892   1.082
 3784TIP3    H132987   0.640   0.902   1.001
 3784TIP3    H232988   0.624   0.959   1.143
 3785TIP3   OH232989   1.227   1.449   1.152
 3785TIP3    H132990   1.198   1.513   1.218
 3785TIP3    H232991   1.200   1.364   1.195
 3786TIP3   OH232992   0.682   1.338   1.551
 3786TIP3    H132993   0.639   1.409   1.602
 3786TIP3    H232994   0.614   1.314   1.484
 3787TIP3   OH232995   1.280   0.869   0.290
 3787TIP3    H132996   1.333   0.890   0.371
 3787TIP3    H232997   1.321   0.924   0.220
 3788TIP3   OH232998   0.377   0.950   1.472
 3788TIP3    H132999   0.382   1.023   1.537
 3788TIP3    H233000   0.285   0.960   1.443
 3789TIP3   OH233001   1.050   1.543   0.639
 3789TIP3    H133002   1.093   1.575   0.719
 3789TIP3    H233003   0.994   1.618   0.612
 3790TIP3   OH233004   0.503   1.536   1.622
 3790TIP3    H133005   0.497   1.528   1.526
 3790TIP3    H233006   0.411   1.525   1.652
 3791TIP3   OH233007   1.652   0.054   0.275
 3791TIP3    H133008   1.558   0.054   0.304
 3791TIP3    H233009   1.668   0.139   0.234
 3792TIP3   OH233010   0.451   0.919   0.474
 3792TIP3    H133011   0.422   0.997   0.424
 3792TIP3    H233012   0.383   0.854   0.453
 3793TIP3   OH233013   1.760   1.479   0.121
 3793TIP3    H133014   1.775   1.575   0.130
 3793TIP3    H233015   1.852   1.449   0.110
 3794TIP3   OH233016   0.100   1.154   1.347
 3794TIP3    H133017   0.029   1.159   1.280
 3794TIP3    H233018   0.075   1.067   1.383
 3795TIP3   OH233019   0.051   1.452   1.025
 3795TIP3    H133020   0.139   1.419   1.046
 3795TIP3    H233021   0.032   1.510   1.100
 3796TIP3   OH233022   1.856   1.507   1.610
 3796TIP3    H133023   1.847   1.410   1.613
 3796TIP3    H233024   1.771   1.531   1.653
 3797TIP3   OH233025   0.953   1.461   1.495
 3797TIP3    H133026   0.959   1.543   1.551
 3797TIP3    H233027   0.868   1.423   1.524
 3798TIP3   OH233028   0.996   1.834   0.478
 3798TIP3    H133029   0.989   1.829   0.381
 3798TIP3    H233030   1.001   1.930   0.495
 3799TIP3   OH233031   0.362   1.723   0.660
 3799TIP3    H133032   0.376   1.680   0.747
 3799TIP3    H233033   0.279   1.680   0.634
 3800TIP3   OH233034   1.301   1.757   0.175
 3800TIP3    H133035   1.348   1.681   0.134
 3800TIP3    H233036   1.307   1.730   0.269
 3801TIP3   OH233037   1.272   1.752   0.456
 3801TIP3    H133038   1.176   1.757   0.473
 3801TIP3    H233039   1.297   1.676   0.511
 3802TIP3   OH233040   1.587   0.655   1.643
 3802TIP3    H133041   1.519   0.699   1.591
 3802TIP3    H233042   1.568   0.560   1.633
 3803TIP3   OH233043   0.288   1.298   1.465
 3803TIP3    H133044   0.305   1.256   1.552
 3803TIP3    H233045   0.203   1.256   1.436
 3804TIP3   OH233046   0.550   0.158   1.062
 3804TIP3    H133047   0.463   0.138   1.021
 3804TIP3    H233048   0.532   0.239   1.110
 3805TIP3   OH233049   1.017   0.106   1.393
 3805TIP3    H133050   1.055   0.072   1.475
 3805TIP3    H233051   0.921   0.101   1.410
 3806TIP3   OH233052   1.344   0.488   1.475
 3806TIP3    H133053   1.293   0.473   1.558
 3806TIP3    H233054   1.334   0.584   1.460
 3807TIP3   OH233055   1.426   0.981   0.075
 3807TIP3    H133056   1.433   0.962  -0.020
 3807TIP3    H233057   1.515   1.022   0.088
 3808TIP3   OH233058   0.990   0.354   0.124
 3808TIP3    H133059   0.956   0.368   0.216
 3808TIP3    H233060   0.941   0.274   0.106
 3809TIP3   OH233061   0.565   0.639   1.182
 3809TIP3    H133062   0.491   0.638   1.246
 3809TIP3    H233063   0.558   0.730   1.145
 3810TIP3   OH233064   0.562   0.649   0.668
 3810TIP3    H133065   0.468   0.626   0.654
 3810TIP3    H233066   0.600   0.621   0.582
 3811TIP3   OH233067   1.114   0.701   0.540
 3811TIP3    H133068   1.073   0.784   0.508
 3811TIP3    H233069   1.182   0.685   0.473
 3812TIP3   OH233070   1.019   0.725   1.694
 3812TIP3    H133071   0.967   0.644   1.719
 3812TIP3    H233072   1.104   0.708   1.737
 3813TIP3   OH233073   1.217   0.650   0.829
 3813TIP3    H133074   1.188   0.706   0.756
 3813TIP3    H233075   1.226   0.565   0.782
 3814TIP3   OH233076   0.330   0.661   1.348
 3814TIP3    H133077   0.332   0.706   1.434
 3814TIP3    H233078   0.282   0.579   1.367
 3815TIP3   OH233079   0.682   0.422   0.063
 3815TIP3    H133080   0.626   0.364   0.119
 3815TIP3    H233081   0.619   0.464   0.005
 3816TIP3   OH233082   0.019   0.396   0.732
 3816TIP3    H133083   0.063   0.371   0.816
 3816TIP3    H233084   0.048   0.331   0.668
 3817TIP3   OH233085   0.124   0.457   0.284
 3817TIP3    H133086   0.175   0.512   0.221
 3817TIP3    H233087   0.051   0.516   0.307
 3818TIP3   OH233088   1.135   0.808   1.284
 3818TIP3    H133089   1.174   0.739   1.226
 3818TIP3    H233090   1.088   0.755   1.351
 3819TIP3   OH233091   0.816   0.406   0.767
 3819TIP3    H133092   0.723   0.402   0.797
 3819TIP3    H233093   0.865   0.391   0.849
 3820TIP3   OH233094   0.306   0.559   0.651
 3820TIP3    H133095   0.216   0.578   0.617
 3820TIP3    H233096   0.328   0.472   0.611
 3821TIP3   OH233097   0.662   0.565   0.415
 3821TIP3    H133098   0.757   0.579   0.435
 3821TIP3    H233099   0.637   0.633   0.349
 3822TIP3   OH233100   1.257   0.328   1.090
 3822TIP3    H133101   1.189   0.334   1.160
 3822TIP3    H233102   1.207   0.304   1.011
 3823TIP3   OH233103   0.534   0.681   0.177
 3823TIP3    H133104   0.477   0.649   0.105
 3823TIP3    H233105   0.615   0.705   0.129
 3824TIP3   OH233106   1.574   1.908   1.725
 3824TIP3    H133107   1.610   1.924   1.634
 3824TIP3    H233108   1.654   1.921   1.777
 3825TIP3   OH233109   0.344   1.136   1.682
 3825TIP3    H133110   0.418   1.166   1.737
 3825TIP3    H233111   0.271   1.159   1.741
 3826TIP3   OH233112   0.945   0.680   0.956
 3826TIP3    H133113   1.003   0.624   0.904
 3826TIP3    H233114   0.930   0.627   1.036
 3827TIP3   OH233115   0.444   0.302   0.599
 3827TIP3    H133116   0.411   0.210   0.603
 3827TIP3    H233117   0.524   0.291   0.546
 3828TIP3   OH233118   0.808   0.512   1.199
 3828TIP3    H133119   0.726   0.566   1.207
 3828TIP3    H233120   0.864   0.549   1.270
 3829TIP3   OH233121   0.867   1.134   0.371
 3829TIP3    H133122   0.787   1.089   0.337
 3829TIP3    H233123   0.844   1.148   0.465
 3830TIP3   OH233124   1.587   1.058   1.248
 3830TIP3    H133125   1.642   1.106   1.184
 3830TIP3    H233126   1.500   1.061   1.202
 3831TIP3   OH233127   1.251   0.417   0.182
 3831TIP3    H133128   1.157   0.438   0.175
 3831TIP3    H233129   1.287   0.501   0.218
 3832TIP3   OH233130   1.019   1.165   1.489
 3832TIP3    H133131   0.981   1.121   1.566
 3832TIP3    H233132   0.989   1.255   1.502
 3833TIP3   OH233133   1.324   0.607   0.349
 3833TIP3    H133134   1.413   0.596   0.388
 3833TIP3    H233135   1.333   0.690   0.299
 3834TIP3   OH233136   0.380   1.077   0.948
 3834TIP3    H133137   0.446   1.067   0.878
 3834TIP3    H233138   0.385   0.992   0.994
 3835TIP3   OH233139   1.077   1.283   0.276
 3835TIP3    H133140   1.040   1.367   0.308
 3835TIP3    H233141   1.003   1.220   0.293
 3836TIP3   OH233142   0.099   0.895   1.450
 3836TIP3    H133143   0.109   0.870   1.543
 3836TIP3    H233144   0.015   0.854   1.426
 3837TIP3   OH233145   0.776   0.867   1.699
 3837TIP3    H133146   0.747   0.846   1.608
 3837TIP3    H233147   0.871   0.843   1.692
 3838TIP3   OH233148   1.247   1.407   1.490
 3838TIP3    H133149   1.155   1.424   1.465
 3838TIP3    H233150   1.244   1.436   1.583
 3839TIP3   OH233151   1.811   0.626   0.329
 3839TIP3    H133152   1.758   0.594   0.255
 3839TIP3    H233153   1.822   0.719   0.299
 3840TIP3   OH233154   1.812   1.212   1.607
 3840TIP3    H133155   1.721   1.228   1.570
 3840TIP3    H233156   1.866   1.203   1.526
 3841TIP3   OH233157   1.643   1.506   0.365
 3841TIP3    H133158   1.606   1.424   0.399
 3841TIP3    H233159   1.673   1.486   0.274
 3842TIP3   OH233160   1.363   0.988   1.077
 3842TIP3    H133161   1.269   0.966   1.065
 3842TIP3    H233162   1.407   0.912   1.033
 3843TIP3   OH233163   0.614   1.422   0.688
 3843TIP3    H133164   0.665   1.502   0.667
 3843TIP3    H233165   0.527   1.445   0.654
 3844TIP3   OH233166   0.178   0.902   0.148
 3844TIP3    H133167   0.247   0.965   0.178
 3844TIP3    H233168   0.097   0.940   0.179
 3845TIP3   OH233169   0.757   1.188   0.639
 3845TIP3    H133170   0.725   1.280   0.647
 3845TIP3    H233171   0.685   1.138   0.683
 3846TIP3   OH233172   0.803   1.607   1.277
 3846TIP3    H133173   0.848   1.688   1.251
 3846TIP3    H233174   0.864   1.572   1.345
 3847TIP3   OH233175   0.625   1.687   0.591
 3847TIP3    H133176   0.529   1.701   0.606
 3847TIP3    H233177   0.661   1.770   0.626
 3848TIP3   OH233178   1.154   1.205   1.240
 3848TIP3    H133179   1.122   1.187   1.331
 3848TIP3    H233180   1.218   1.134   1.224
 3849TIP3   OH233181   1.382   1.313   0.157
 3849TIP3    H133182   1.415   1.263   0.234
 3849TIP3    H233183   1.287   1.293   0.162
 3850TIP3   OH233184   1.435   1.667   1.493
 3850TIP3    H133185   1.367   1.616   1.444
 3850TIP3    H233186   1.455   1.734   1.425
 3851TIP3   OH233187   1.836   1.752   0.176
 3851TIP3    H133188   1.905   1.815   0.150
 3851TIP3    H233189   1.764   1.811   0.205
 3852TIP3   OH233190   0.243   0.389   1.434
 3852TIP3    H133191   0.152   0.422   1.426
 3852TIP3    H233192   0.229   0.299   1.470
 3853TIP3   OH233193   1.466   1.177   0.378
 3853TIP3    H133194   1.442   1.095   0.426
 3853TIP3    H233195   1.561   1.182   0.395
 3854TIP3   OH233196   0.208   1.572   1.269
 3854TIP3    H133197   0.230   1.477   1.271
 3854TIP3    H233198   0.228   1.596   1.360
 3855TIP3   OH233199   0.679   1.377   0.243
 3855TIP3    H133200   0.705   1.321   0.317
 3855TIP3    H233201   0.687   1.468   0.278
 3856TIP3   OH233202   0.325   1.099   0.287
 3856TIP3    H133203   0.263   1.140   0.351
 3856TIP3    H233204   0.383   1.174   0.266
 3857TIP3   OH233205   1.117   0.364   1.325
 3857TIP3    H133206   1.189   0.373   1.389
 3857TIP3    H233207   1.079   0.276   1.343
 3858TIP3   OH233208   1.195   0.322   0.435
 3858TIP3    H133209   1.214   0.374   0.355
 3858TIP3    H233210   1.244   0.373   0.502
 3859TIP3   OH233211   0.958   1.542   0.318
 3859TIP3    H133212   0.876   1.594   0.323
 3859TIP3    H233213   1.013   1.591   0.253
 3860TIP3   OH233214   0.912   0.496   0.516
 3860TIP3    H133215   0.989   0.555   0.517
 3860TIP3    H233216   0.886   0.486   0.609
 3861TIP3   OH233217   0.972   0.602   1.429
 3861TIP3    H133218   0.975   0.656   1.510
 3861TIP3    H233219   1.035   0.530   1.444
 3862TIP3   OH233220   0.999   0.203   0.611
 3862TIP3    H133221   0.965   0.272   0.670
 3862TIP3    H233222   1.063   0.256   0.558
 3863TIP3   OH233223   0.698   1.645   0.320
 3863TIP3    H133224   0.710   1.727   0.268
 3863TIP3    H233225   0.669   1.680   0.408
 3864TIP3   OH233226   0.567   0.312   0.280
 3864TIP3    H133227   0.557   0.404   0.313
 3864TIP3    H233228   0.658   0.297   0.309
 3865TIP3   OH233229   1.584   0.383   1.521
 3865TIP3    H133230   1.493   0.420   1.510
 3865TIP3    H233231   1.616   0.388   1.429
 3866TIP3   OH233232   1.447   0.767   0.920
 3866TIP3    H133233   1.365   0.723   0.893
 3866TIP3    H233234   1.495   0.699   0.972
 3867TIP3   OH233235   0.386   1.361   0.180
 3867TIP3    H133236   0.453   1.422   0.212
 3867TIP3    H233237   0.439   1.312   0.113
 3868TIP3   OH233238   0.233   0.627   0.096
 3868TIP3    H133239   0.227   0.722   0.114
 3868TIP3    H233240   0.143   0.606   0.069
 3869TIP3   OH233241   1.557   1.690   1.079
 3869TIP3    H133242   1.539   1.767   1.022
 3869TIP3    H233243   1.647   1.701   1.116
 3870TIP3   OH233244   0.284   0.120   0.969
 3870TIP3    H133245   0.286   0.109   0.871
 3870TIP3    H233246   0.271   0.027   0.994
 3871TIP3   OH233247   0.202   1.498   0.584
 3871TIP3    H133248   0.115   1.538   0.578
 3871TIP3    H233249   0.247   1.546   0.512
 3872TIP3   OH233250   0.134   1.763   1.713
 3872TIP3    H133251   0.186   1.728   1.784
 3872TIP3    H233252   0.081   1.684   1.690
 3873TIP3   OH233253   1.039   1.610   0.071
 3873TIP3    H133254   0.954   1.563   0.061
 3873TIP3    H233255   1.088   1.566   0.002
 3874TIP3   OH233256   1.238   1.492   1.746
 3874TIP3    H133257   1.204   1.404   1.775
 3874TIP3    H233258   1.315   1.505   1.804
 3875TIP3   OH233259   1.459   1.584   0.032
 3875TIP3    H133260   1.482   1.502   0.080
 3875TIP3    H233261   1.537   1.602  -0.021
 3876TIP3   OH233262   0.119   1.144   1.807
 3876TIP3    H133263   0.128   1.050   1.783
 3876TIP3    H233264   0.038   1.166   1.760
 3877TIP3   OH233265   0.553   1.181   0.027
 3877TIP3    H133266   0.560   1.098   0.075
 3877TIP3    H233267   0.608   1.158  -0.050
 3878TIP3   OH233268   1.351   1.126   1.488
 3878TIP3    H133269   1.431   1.183   1.482
 3878TIP3    H233270   1.281   1.193   1.493
 3879TIP3   OH233271   0.191   0.859   1.748
 3879TIP3    H133272   0.244   0.782   1.734
 3879TIP3    H233273   0.182   0.869   1.845
 3880TIP3   OH233274   0.667   0.978   0.256
 3880TIP3    H133275   0.615   0.925   0.318
 3880TIP3    H233276   0.697   0.910   0.192
 3881TIP3   OH233277   0.589   0.756   1.486
 3881TIP3    H133278   0.533   0.831   1.510
 3881TIP3    H233279   0.631   0.792   1.405
 3882TIP3   OH233280   0.772   0.802   0.075
 3882TIP3    H133281   0.763   0.780  -0.019
 3882TIP3    H233282   0.870   0.808   0.086
 3883TIP3   OH233283   1.100   1.017   1.835
 3883TIP3    H133284   1.192   1.010   1.802
 3883TIP3    H233285   1.088   0.930   1.873
 3884TIP3   OH233286   1.669   1.062   8.569
 3884TIP3    H133287   1.673   1.003   8.489
 3884TIP3    H233288   1.714   1.131   8.518
 3885TIP3   OH233289   0.627   0.495   1.592
 3885TIP3    H133290   0.645   0.424   1.527
 3885TIP3    H233291   0.629   0.575   1.536
 3886TIP3   OH233292   0.674   0.334   1.345
 3886TIP3    H133293   0.724   0.381   1.275
 3886TIP3    H233294   0.584   0.323   1.306
 3887TIP3   OH233295   0.827   0.882   1.369
 3887TIP3    H133296   0.903   0.866   1.312
 3887TIP3    H233297   0.790   0.966   1.337
 3888TIP3   OH233298   1.396   0.936   1.676
 3888TIP3    H133299   1.379   1.012   1.617
 3888TIP3    H233300   1.494   0.932   1.671
 3889TIP3   OH233301   0.482   0.619   1.775
 3889TIP3    H133302   0.418   0.556   1.737
 3889TIP3    H233303   0.556   0.591   1.717
 3890TIP3   OH233304   0.744   0.092   1.401
 3890TIP3    H133305   0.733   0.188   1.379
 3890TIP3    H233306   0.677   0.052   1.343
 3891TIP3   OH233307   0.877   0.511   1.745
 3891TIP3    H133308   0.845   0.481   1.832
 3891TIP3    H233309   0.799   0.488   1.692
 3892TIP3   OH233310   1.151   0.425   1.652
 3892TIP3    H133311   1.055   0.428   1.666
 3892TIP3    H233312   1.180   0.365   1.723
 3893TIP3   OH233313   1.310   0.297   1.855
 3893TIP3    H133314   1.301   0.198   1.846
 3893TIP3    H233315   1.280   0.315   1.943
 3894TIP3   OH233316   0.295   0.407   1.760
 3894TIP3    H133317   0.314   0.336   1.696
 3894TIP3    H233318   0.281   0.351   1.841
 3895TIP3   OH233319   0.769   7.358   1.653
 3895TIP3    H133320   0.837   7.291   1.666
 3895TIP3    H233321   0.766   7.378   1.558
 3896TIP3   OH233322   0.757   1.867   0.176
 3896TIP3    H133323   0.854   1.878   0.189
 3896TIP3    H233324   0.736   1.935   0.112
 3897TIP3   OH233325   0.115   1.325   0.133
 3897TIP3    H133326   0.211   1.338   0.152
 3897TIP3    H233327   0.117   1.268   0.055
 3898TIP3   OH233328   7.357   1.874   0.616
 3898TIP3    H133329   7.271   1.848   0.580
 3898TIP3    H233330   7.372   1.808   0.688
 3899TIP3   OH233331   0.066   1.682   0.809
 3899TIP3    H133332   0.038   1.592   0.833
 3899TIP3    H233333   0.096   1.712   0.897
 3900TIP3   OH233334   1.828   1.764   1.119
 3900TIP3    H133335   1.832   1.775   1.217
 3900TIP3    H233336   1.904   1.819   1.094
 3901TIP3   OH233337   1.785   1.717   1.402
 3901TIP3    H133338   1.735   1.640   1.366
 3901TIP3    H233339   1.832   1.673   1.474
 3902TIP3   OH233340   1.629   1.296   1.874
 3902TIP3    H133341   1.539   1.281   1.904
 3902TIP3    H233342   1.664   1.373   1.917
 3903TIP3   OH233343   1.761   1.122   0.412
 3903TIP3    H133344   1.846   1.163   0.434
 3903TIP3    H233345   1.757   1.051   0.480
 3904TIP3   OH233346   1.795   0.930   0.601
 3904TIP3    H133347   1.720   0.880   0.639
 3904TIP3    H233348   1.854   0.943   0.678
 3905TIP3   OH233349   1.771   1.200   1.099
 3905TIP3    H133350   1.852   1.161   1.061
 3905TIP3    H233351   1.786   1.295   1.083
 3906TIP3   OH233352   1.626   1.491   1.324
 3906TIP3    H133353   1.558   1.522   1.386
 3906TIP3    H233354   1.570   1.449   1.255
 3907TIP3   OH233355   1.821   0.911   0.239
 3907TIP3    H133356   1.765   0.949   0.170
 3907TIP3    H233357   1.816   0.982   0.306
 3908TIP3   OH233358   1.608   0.644   0.108
 3908TIP3    H133359   1.661   0.700   0.047
 3908TIP3    H233360   1.640   0.562   0.063
 3909TIP3   OH233361   1.577   0.777   0.659
 3909TIP3    H133362   1.562   0.682   0.653
 3909TIP3    H233363   1.545   0.798   0.748
 3910TIP3   OH233364   0.074   0.983   1.062
 3910TIP3    H133365   0.094   0.980   0.966
 3910TIP3    H233366   0.164   0.971   1.100
 3911TIP3   OH233367   1.660   0.972   1.624
 3911TIP3    H133368   1.721   0.898   1.643
 3911TIP3    H233369   1.720   1.048   1.627
 3912TIP3   OH233370   1.817   0.763   1.689
 3912TIP3    H133371   1.725   0.726   1.681
 3912TIP3    H233372   1.867   0.680   1.683
 3913TIP3   OH233373   1.581   0.377   0.002
 3913TIP3    H133374   1.647   0.343   0.066
 3913TIP3    H233375   1.497   0.338   0.027
 3914TIP3   OH233376   1.543   0.537   0.506
 3914TIP3    H133377   1.574   0.445   0.516
 3914TIP3    H233378   1.621   0.576   0.464
 3915TIP3   OH233379   1.608   0.592   1.047
 3915TIP3    H133380   1.704   0.613   1.047
 3915TIP3    H233381   1.588   0.603   1.142
 3916TIP3   OH233382   1.613   0.664   1.323
 3916TIP3    H133383   1.528   0.692   1.364
 3916TIP3    H233384   1.658   0.750   1.304
 3917TIP3   OH233385   0.063   0.513   1.691
 3917TIP3    H133386   0.150   0.472   1.694
 3917TIP3    H233387   0.000   0.438   1.706
 3918TIP3   OH233388   1.849   0.062   1.862
 3918TIP3    H133389   1.876  -0.002   1.795
 3918TIP3    H233390   1.847   0.148   1.814
 3919TIP3   OH233391   1.611   0.262   0.508
 3919TIP3    H133392   1.631   0.218   0.593
 3919TIP3    H233393   1.552   0.197   0.463
 3920TIP3   OH233394   0.154   0.348   0.965
 3920TIP3    H133395   0.204   0.267   0.988
 3920TIP3    H233396   0.213   0.413   1.005
 3921TIP3   OH233397   0.060   0.696   1.110
 3921TIP3    H133398   0.068   0.659   1.020
 3921TIP3    H233399   0.038   0.786   1.085
 3922TIP3   OH233400   1.797   0.274   1.691
 3922TIP3    H133401   1.704   0.304   1.692
 3922TIP3    H233402   1.797   0.218   1.612
 3923TIP3   OH233403   1.793   0.274   0.160
 3923TIP3    H133404   1.837   0.197   0.118
 3923TIP3    H233405   1.867   0.337   0.163
 3924TIP3   OH233406   7.410   0.262   0.448
 3924TIP3    H133407   7.316   0.288   0.457
 3924TIP3    H233408   7.436   0.332   0.384
 3925TIP3   OH233409   1.499   1.763   0.673
 3925TIP3    H133410   1.565   1.737   0.605
 3925TIP3    H233411   1.547   1.822   0.732
 3926TIP3   OH233412   7.376   0.136   1.320
 3926TIP3    H133413   7.301   0.111   1.374
 3926TIP3    H233414   7.326   0.189   1.255
 3927TIP3   OH233415   0.243   1.471   1.725
 3927TIP3    H133416   0.159   1.476   1.679
 3927TIP3    H233417   0.218   1.442   1.814
 3928TIP3   OH233418   0.533   1.559   1.348
 3928TIP3    H133419   0.497   1.644   1.320
 3928TIP3    H233420   0.626   1.566   1.319
 3929TIP3   OH233421   0.968   1.694   1.635
 3929TIP3    H133422   0.980   1.666   1.729
 3929TIP3    H233423   1.056   1.732   1.616
 3930TIP3   OH233424   1.195   1.828   1.571
 3930TIP3    H133425   1.266   1.767   1.545
 3930TIP3    H233426   1.230   1.866   1.654
 3931TIP3   OH233427   1.698   0.090   1.476
 3931TIP3    H133428   1.614   0.122   1.442
 3931TIP3    H233429   1.712   0.007   1.428
 3932TIP3   OH233430   0.277   1.883   1.349
 3932TIP3    H133431   0.201   1.929   1.309
 3932TIP3    H233432   0.241   1.861   1.436
 3933TIP3   OH233433   0.523   1.839   1.255
 3933TIP3    H133434   0.435   1.855   1.296
 3933TIP3    H233435   0.517   1.899   1.178
 3934TIP3   OH233436   0.993   1.829   1.173
 3934TIP3    H133437   0.947   1.885   1.108
 3934TIP3    H233438   1.006   1.893   1.247
 3935TIP3   OH233439   1.221   1.710   1.276
 3935TIP3    H133440   1.136   1.738   1.238
 3935TIP3    H233441   1.270   1.794   1.267
 3936TIP3   OH233442   1.481   1.866   1.297
 3936TIP3    H133443   1.473   1.962   1.274
 3936TIP3    H233444   1.500   1.829   1.210
 3937TIP3   OH233445   0.220   1.745   1.040
 3937TIP3    H133446   0.215   1.702   1.128
 3937TIP3    H233447   0.301   1.706   1.003
 3938TIP3   OH233448   0.430   1.615   0.906
 3938TIP3    H133449   0.411   1.523   0.932
 3938TIP3    H233450   0.514   1.632   0.953
 3939TIP3   OH233451   0.690   1.666   0.996
 3939TIP3    H133452   0.705   1.573   0.969
 3939TIP3    H233453   0.694   1.659   1.092
 3940TIP3   OH233454   1.032   0.239   0.906
 3940TIP3    H133455   0.969   0.170   0.937
 3940TIP3    H233456   1.095   0.184   0.857
 3941TIP3   OH233457   1.547   0.038   0.918
 3941TIP3    H133458   1.608   0.091   0.863
 3941TIP3    H233459   1.460   0.071   0.893
 3942TIP3   OH233460   1.718   0.163   0.740
 3942TIP3    H133461   1.786   0.102   0.705
 3942TIP3    H233462   1.769   0.246   0.753
 3943TIP3   OH233463   0.282   0.097   0.676
 3943TIP3    H133464   0.192   0.072   0.647
 3943TIP3    H233465   0.313   0.009   0.700
 3944TIP3   OH233466   0.159   0.116   0.210
 3944TIP3    H133467   0.229   0.182   0.196
 3944TIP3    H233468   0.116   0.139   0.293
 3945TIP3   OH233469   0.746   0.128   0.707
 3945TIP3    H133470   0.840   0.126   0.681
 3945TIP3    H233471   0.735   0.061   0.774
 3946TIP3   OH233472   1.270   0.112   0.839
 3946TIP3    H133473   1.284   0.112   0.744
 3946TIP3    H233474   1.260   0.015   0.853
 3947TIP3   OH233475   1.415   0.090   0.407
 3947TIP3    H133476   1.343   0.151   0.387
 3947TIP3    H233477   1.375   0.003   0.417
 3948TIP3   OH233478   0.158   1.670   0.360
 3948TIP3    H133479   0.078   1.662   0.303
 3948TIP3    H233480   0.145   1.764   0.382
 3949TIP3   OH233481   0.337   0.271   0.107
 3949TIP3    H133482   0.383   0.200   0.060
 3949TIP3    H233483   0.399   0.296   0.177
 3950TIP3   OH233484   0.830   0.284   0.359
 3950TIP3    H133485   0.864   0.231   0.433
 3950TIP3    H233486   0.839   0.372   0.403
 3951TIP3   OH233487   1.023   1.823   0.203
 3951TIP3    H133488   1.120   1.820   0.189
 3951TIP3    H233489   1.006   1.749   0.141
 3952TIP3   OH233490   1.697   1.743   0.476
 3952TIP3    H133491   1.677   1.666   0.417
 3952TIP3    H233492   1.690   1.815   0.410
 3953TIP3   OH233493   0.248   0.157   1.645
 3953TIP3    H133494   0.221   0.070   1.679
 3953TIP3    H233495   0.343   0.145   1.668
 3954TIP3   OH233496   0.444   0.101   1.797
 3954TIP3    H133497   0.538   0.079   1.783
 3954TIP3    H233498   0.426   0.015   1.840
 3955TIP3   OH233499   0.328   1.763   0.064
 3955TIP3    H133500   0.294   1.788   0.151
 3955TIP3    H233501   0.399   1.704   0.084
 3956TIP3   OH233502   1.298   7.386   1.816
 3956TIP3    H133503   1.297   7.318   1.887
 3956TIP3    H233504   1.379   7.356   1.774
 3957TIP3   OH233505   1.619   1.623   1.691
 3957TIP3    H133506   1.547   1.604   1.626
 3957TIP3    H233507   1.610   1.718   1.697
 3958TIP3   OH233508   3.066   1.007   0.680
 3958TIP3    H133509   3.065   1.105   0.676
 3958TIP3    H233510   2.993   0.983   0.620
 3959TIP3   OH233511   2.951   0.931   1.030
 3959TIP3    H133512   2.951   0.867   1.103
 3959TIP3    H233513   2.917   0.881   0.954
 3960TIP3   OH233514   2.186   0.900   1.187
 3960TIP3    H133515   2.195   0.831   1.256
 3960TIP3    H233516   2.262   0.957   1.208
 3961TIP3   OH233517   3.320   1.227   0.858
 3961TIP3    H133518   3.279   1.156   0.908
 3961TIP3    H233519   3.323   1.298   0.925
 3962TIP3   OH233520   2.279   1.345   1.034
 3962TIP3    H133521   2.248   1.257   1.003
 3962TIP3    H233522   2.375   1.326   1.039
 3963TIP3   OH233523   1.947   0.697   0.585
 3963TIP3    H133524   1.903   0.785   0.580
 3963TIP3    H233525   1.887   0.646   0.528
 3964TIP3   OH233526   2.015   0.924   0.799
 3964TIP3    H133527   2.042   0.841   0.843
 3964TIP3    H233528   2.084   0.934   0.732
 3965TIP3   OH233529   3.031   1.743   0.882
 3965TIP3    H133530   3.097   1.674   0.853
 3965TIP3    H233531   3.010   1.709   0.969
 3966TIP3   OH233532   2.789   1.172   1.078
 3966TIP3    H133533   2.822   1.110   1.012
 3966TIP3    H233534   2.871   1.187   1.129
 3967TIP3   OH233535   3.649   0.336   1.149
 3967TIP3    H133536   3.666   0.396   1.226
 3967TIP3    H233537   3.705   0.379   1.083
 3968TIP3   OH233538   3.102   0.615   1.111
 3968TIP3    H133539   3.124   0.520   1.107
 3968TIP3    H233540   3.095   0.634   1.016
 3969TIP3   OH233541   2.425   0.433   0.847
 3969TIP3    H133542   2.423   0.522   0.806
 3969TIP3    H233543   2.368   0.369   0.800
 3970TIP3   OH233544   3.191   0.435   0.666
 3970TIP3    H133545   3.255   0.405   0.735
 3970TIP3    H233546   3.247   0.493   0.613
 3971TIP3   OH233547   2.081   0.671   0.904
 3971TIP3    H133548   2.145   0.614   0.951
 3971TIP3    H233549   2.088   0.638   0.813
 3972TIP3   OH233550   2.594   0.824   0.835
 3972TIP3    H133551   2.663   0.767   0.875
 3972TIP3    H233552   2.544   0.758   0.784
 3973TIP3   OH233553   3.689   0.475   1.377
 3973TIP3    H133554   3.631   0.554   1.366
 3973TIP3    H233555   3.697   0.470   1.474
 3974TIP3   OH233556   2.309   0.321   1.235
 3974TIP3    H133557   2.277   0.375   1.160
 3974TIP3    H233558   2.239   0.341   1.302
 3975TIP3   OH233559   3.036   1.265   0.588
 3975TIP3    H133560   3.009   1.238   0.499
 3975TIP3    H233561   3.006   1.359   0.593
 3976TIP3   OH233562   2.559   1.081   1.259
 3976TIP3    H133563   2.489   1.146   1.280
 3976TIP3    H233564   2.630   1.140   1.229
 3977TIP3   OH233565   3.370   0.372   0.868
 3977TIP3    H133566   3.350   0.294   0.920
 3977TIP3    H233567   3.441   0.413   0.920
 3978TIP3   OH233568   2.262   0.507   1.036
 3978TIP3    H133569   2.327   0.572   1.072
 3978TIP3    H233570   2.318   0.461   0.971
 3979TIP3   OH233571   2.404   1.283   1.339
 3979TIP3    H133572   2.400   1.374   1.304
 3979TIP3    H233573   2.315   1.274   1.381
 3980TIP3   OH233574   2.010   1.243   0.417
 3980TIP3    H133575   1.989   1.277   0.328
 3980TIP3    H233576   2.017   1.325   0.469
 3981TIP3   OH233577   3.373   1.411   1.095
 3981TIP3    H133578   3.276   1.422   1.107
 3981TIP3    H233579   3.400   1.502   1.075
 3982TIP3   OH233580   3.407   0.245   1.246
 3982TIP3    H133581   3.332   0.300   1.221
 3982TIP3    H233582   3.476   0.276   1.183
 3983TIP3   OH233583   2.727   0.073   0.974
 3983TIP3    H133584   2.719  -0.023   0.976
 3983TIP3    H233585   2.637   0.095   1.002
 3984TIP3   OH233586   3.199   1.589   0.754
 3984TIP3    H133587   3.241   1.517   0.703
 3984TIP3    H233588   3.244   1.668   0.716
 3985TIP3   OH233589   3.320   1.382   0.605
 3985TIP3    H133590   3.291   1.313   0.543
 3985TIP3    H233591   3.323   1.332   0.689
 3986TIP3   OH233592   3.482   1.241   1.455
 3986TIP3    H133593   3.496   1.176   1.384
 3986TIP3    H233594   3.503   1.325   1.410
 3987TIP3   OH233595   2.930   0.930   0.429
 3987TIP3    H133596   2.863   0.990   0.390
 3987TIP3    H233597   3.002   0.940   0.364
 3988TIP3   OH233598   2.935   0.784   0.140
 3988TIP3    H133599   3.010   0.785   0.203
 3988TIP3    H233600   2.968   0.721   0.076
 3989TIP3   OH233601   3.671   0.872   1.257
 3989TIP3    H133602   3.606   0.945   1.263
 3989TIP3    H233603   3.721   0.897   1.177
 3990TIP3   OH233604   3.275   0.950   0.525
 3990TIP3    H133605   3.201   0.975   0.586
 3990TIP3    H233606   3.324   0.884   0.577
 3991TIP3   OH233607   2.437   1.018   0.715
 3991TIP3    H133608   2.406   0.980   0.630
 3991TIP3    H233609   2.500   0.950   0.749
 3992TIP3   OH233610   2.568   1.355   0.983
 3992TIP3    H133611   2.569   1.304   0.902
 3992TIP3    H233612   2.647   1.320   1.029
 3993TIP3   OH233613   2.473   0.889   1.084
 3993TIP3    H133614   2.525   0.902   1.002
 3993TIP3    H233615   2.510   0.959   1.143
 3994TIP3   OH233616   3.112   1.449   1.152
 3994TIP3    H133617   3.083   1.513   1.218
 3994TIP3    H233618   3.087   1.364   1.194
 3995TIP3   OH233619   2.567   1.336   1.550
 3995TIP3    H133620   2.525   1.408   1.602
 3995TIP3    H233621   2.498   1.315   1.483
 3996TIP3   OH233622   3.165   0.869   0.291
 3996TIP3    H133623   3.218   0.890   0.371
 3996TIP3    H233624   3.205   0.924   0.221
 3997TIP3   OH233625   2.260   0.956   1.467
 3997TIP3    H133626   2.263   1.016   1.541
 3997TIP3    H233627   2.166   0.957   1.443
 3998TIP3   OH233628   2.934   1.543   0.639
 3998TIP3    H133629   2.978   1.575   0.718
 3998TIP3    H233630   2.880   1.618   0.612
 3999TIP3   OH233631   2.386   1.530   1.626
 3999TIP3    H133632   2.385   1.529   1.529
 3999TIP3    H233633   2.292   1.532   1.648
 4000TIP3   OH233634   3.537   0.054   0.275
 4000TIP3    H133635   3.444   0.056   0.303
 4000TIP3    H233636   3.554   0.139   0.234
 4001TIP3   OH233637   2.334   0.917   0.479
 4001TIP3    H133638   2.308   0.995   0.426
 4001TIP3    H233639   2.267   0.853   0.452
 4002TIP3   OH233640   3.646   1.477   0.117
 4002TIP3    H133641   3.659   1.573   0.130
 4002TIP3    H233642   3.739   1.449   0.111
 4003TIP3   OH233643   1.947   1.162   1.363
 4003TIP3    H133644   1.898   1.153   1.279
 4003TIP3    H233645   1.950   1.068   1.388
 4004TIP3   OH233646   1.919   1.445   1.037
 4004TIP3    H133647   2.013   1.421   1.043
 4004TIP3    H233648   1.914   1.515   1.103
 4005TIP3   OH233649   3.741   1.506   1.609
 4005TIP3    H133650   3.732   1.410   1.611
 4005TIP3    H233651   3.657   1.532   1.654
 4006TIP3   OH233652   2.838   1.461   1.496
 4006TIP3    H133653   2.845   1.543   1.551
 4006TIP3    H233654   2.753   1.423   1.526
 4007TIP3   OH233655   2.882   1.834   0.478
 4007TIP3    H133656   2.875   1.829   0.381
 4007TIP3    H233657   2.886   1.930   0.495
 4008TIP3   OH233658   2.245   1.724   0.662
 4008TIP3    H133659   2.264   1.681   0.748
 4008TIP3    H233660   2.163   1.679   0.636
 4009TIP3   OH233661   3.185   1.755   0.175
 4009TIP3    H133662   3.234   1.679   0.135
 4009TIP3    H233663   3.193   1.732   0.269
 4010TIP3   OH233664   3.157   1.750   0.455
 4010TIP3    H133665   3.061   1.756   0.474
 4010TIP3    H233666   3.182   1.675   0.512
 4011TIP3   OH233667   3.468   0.654   1.654
 4011TIP3    H133668   3.409   0.703   1.597
 4011TIP3    H233669   3.456   0.562   1.629
 4012TIP3   OH233670   2.172   1.292   1.463
 4012TIP3    H133671   2.192   1.256   1.550
 4012TIP3    H233672   2.085   1.254   1.438
 4013TIP3   OH233673   2.437   0.163   1.054
 4013TIP3    H133674   2.348   0.137   1.023
 4013TIP3    H233675   2.417   0.236   1.114
 4014TIP3   OH233676   2.902   0.111   1.397
 4014TIP3    H133677   2.943   0.070   1.473
 4014TIP3    H233678   2.806   0.098   1.413
 4015TIP3   OH233679   3.315   0.980   0.074
 4015TIP3    H133680   3.317   0.962  -0.021
 4015TIP3    H233681   3.402   1.022   0.085
 4016TIP3   OH233682   2.870   0.364   0.126
 4016TIP3    H133683   2.841   0.362   0.218
 4016TIP3    H233684   2.843   0.275   0.097
 4017TIP3   OH233685   2.450   0.637   1.179
 4017TIP3    H133686   2.379   0.637   1.245
 4017TIP3    H233687   2.446   0.730   1.145
 4018TIP3   OH233688   2.445   0.643   0.670
 4018TIP3    H133689   2.349   0.640   0.651
 4018TIP3    H233690   2.485   0.639   0.579
 4019TIP3   OH233691   3.000   0.700   0.540
 4019TIP3    H133692   2.959   0.784   0.509
 4019TIP3    H233693   3.068   0.685   0.473
 4020TIP3   OH233694   3.101   0.648   0.830
 4020TIP3    H133695   3.073   0.706   0.757
 4020TIP3    H233696   3.112   0.565   0.780
 4021TIP3   OH233697   2.211   0.668   1.352
 4021TIP3    H133698   2.221   0.704   1.442
 4021TIP3    H233699   2.171   0.581   1.369
 4022TIP3   OH233700   2.567   0.431   0.071
 4022TIP3    H133701   2.512   0.362   0.113
 4022TIP3    H233702   2.508   0.463   0.002
 4023TIP3   OH233703   1.882   0.380   0.745
 4023TIP3    H133704   1.947   0.371   0.817
 4023TIP3    H233705   1.922   0.336   0.668
 4024TIP3   OH233706   2.012   0.451   0.292
 4024TIP3    H133707   2.056   0.504   0.221
 4024TIP3    H233708   1.938   0.511   0.314
 4025TIP3   OH233709   3.012   0.808   1.279
 4025TIP3    H133710   3.063   0.743   1.227
 4025TIP3    H233711   2.982   0.757   1.355
 4026TIP3   OH233712   2.696   0.408   0.766
 4026TIP3    H133713   2.610   0.401   0.810
 4026TIP3    H233714   2.753   0.391   0.843
 4027TIP3   OH233715   2.189   0.554   0.651
 4027TIP3    H133716   2.099   0.581   0.620
 4027TIP3    H233717   2.197   0.467   0.610
 4028TIP3   OH233718   2.545   0.568   0.424
 4028TIP3    H133719   2.643   0.579   0.432
 4028TIP3    H233720   2.522   0.629   0.350
 4029TIP3   OH233721   3.141   0.334   1.097
 4029TIP3    H133722   3.070   0.330   1.162
 4029TIP3    H233723   3.097   0.304   1.015
 4030TIP3   OH233724   2.419   0.680   0.181
 4030TIP3    H133725   2.361   0.649   0.108
 4030TIP3    H233726   2.500   0.703   0.131
 4031TIP3   OH233727   3.461   1.897   1.726
 4031TIP3    H133728   3.492   1.933   1.641
 4031TIP3    H233729   3.535   1.919   1.786
 4032TIP3   OH233730   2.825   0.676   0.954
 4032TIP3    H133731   2.891   0.625   0.904
 4032TIP3    H233732   2.820   0.628   1.037
 4033TIP3   OH233733   2.314   0.277   0.576
 4033TIP3    H133734   2.287   0.186   0.600
 4033TIP3    H233735   2.397   0.261   0.530
 4034TIP3   OH233736   2.694   0.512   1.201
 4034TIP3    H133737   2.610   0.564   1.205
 4034TIP3    H233738   2.747   0.550   1.270
 4035TIP3   OH233739   2.753   1.134   0.371
 4035TIP3    H133740   2.673   1.090   0.336
 4035TIP3    H233741   2.730   1.148   0.465
 4036TIP3   OH233742   3.473   1.057   1.247
 4036TIP3    H133743   3.528   1.107   1.184
 4036TIP3    H233744   3.386   1.061   1.203
 4037TIP3   OH233745   3.139   0.418   0.186
 4037TIP3    H133746   3.045   0.433   0.169
 4037TIP3    H233747   3.170   0.504   0.219
 4038TIP3   OH233748   2.901   1.160   1.495
 4038TIP3    H133749   2.866   1.122   1.576
 4038TIP3    H233750   2.877   1.253   1.503
 4039TIP3   OH233751   3.209   0.610   0.353
 4039TIP3    H133752   3.298   0.597   0.390
 4039TIP3    H233753   3.219   0.691   0.301
 4040TIP3   OH233754   2.264   1.073   0.948
 4040TIP3    H133755   2.332   1.067   0.878
 4040TIP3    H233756   2.270   0.988   0.993
 4041TIP3   OH233757   2.962   1.283   0.276
 4041TIP3    H133758   2.925   1.368   0.308
 4041TIP3    H233759   2.889   1.220   0.293
 4042TIP3   OH233760   1.963   0.916   1.472
 4042TIP3    H133761   1.979   0.874   1.559
 4042TIP3    H233762   1.899   0.855   1.432
 4043TIP3   OH233763   2.666   0.872   1.689
 4043TIP3    H133764   2.632   0.840   1.604
 4043TIP3    H233765   2.757   0.842   1.690
 4044TIP3   OH233766   3.132   1.408   1.488
 4044TIP3    H133767   3.040   1.424   1.462
 4044TIP3    H233768   3.128   1.437   1.581
 4045TIP3   OH233769   3.698   0.626   0.329
 4045TIP3    H133770   3.643   0.593   0.256
 4045TIP3    H233771   3.706   0.719   0.300
 4046TIP3   OH233772   3.701   1.209   1.608
 4046TIP3    H133773   3.611   1.231   1.573
 4046TIP3    H233774   3.753   1.203   1.525
 4047TIP3   OH233775   3.529   1.506   0.365
 4047TIP3    H133776   3.491   1.423   0.398
 4047TIP3    H233777   3.559   1.486   0.274
 4048TIP3   OH233778   3.250   0.989   1.075
 4048TIP3    H133779   3.156   0.968   1.066
 4048TIP3    H233780   3.292   0.912   1.034
 4049TIP3   OH233781   2.501   1.421   0.687
 4049TIP3    H133782   2.551   1.502   0.666
 4049TIP3    H233783   2.413   1.444   0.654
 4050TIP3   OH233784   2.078   0.905   0.150
 4050TIP3    H133785   2.137   0.974   0.183
 4050TIP3    H233786   1.988   0.934   0.172
 4051TIP3   OH233787   2.643   1.188   0.639
 4051TIP3    H133788   2.611   1.280   0.646
 4051TIP3    H233789   2.571   1.139   0.683
 4052TIP3   OH233790   2.687   1.607   1.280
 4052TIP3    H133791   2.734   1.687   1.251
 4052TIP3    H233792   2.749   1.572   1.346
 4053TIP3   OH233793   2.509   1.687   0.592
 4053TIP3    H133794   2.413   1.702   0.606
 4053TIP3    H233795   2.546   1.770   0.626
 4054TIP3   OH233796   3.039   1.206   1.240
 4054TIP3    H133797   3.007   1.187   1.330
 4054TIP3    H233798   3.104   1.135   1.225
 4055TIP3   OH233799   3.268   1.310   0.155
 4055TIP3    H133800   3.299   1.265   0.236
 4055TIP3    H233801   3.173   1.293   0.162
 4056TIP3   OH233802   3.321   1.665   1.491
 4056TIP3    H133803   3.253   1.615   1.442
 4056TIP3    H233804   3.340   1.734   1.424
 4057TIP3   OH233805   3.722   1.751   0.176
 4057TIP3    H133806   3.790   1.816   0.150
 4057TIP3    H233807   3.650   1.811   0.205
 4058TIP3   OH233808   2.128   0.389   1.432
 4058TIP3    H133809   2.037   0.423   1.427
 4058TIP3    H233810   2.114   0.301   1.473
 4059TIP3   OH233811   3.352   1.176   0.376
 4059TIP3    H133812   3.327   1.095   0.426
 4059TIP3    H233813   3.447   1.182   0.396
 4060TIP3   OH233814   2.088   1.568   1.271
 4060TIP3    H133815   2.121   1.477   1.272
 4060TIP3    H233816   2.114   1.599   1.359
 4061TIP3   OH233817   2.563   1.378   0.244
 4061TIP3    H133818   2.590   1.320   0.317
 4061TIP3    H233819   2.573   1.468   0.279
 4062TIP3   OH233820   2.216   1.100   0.292
 4062TIP3    H133821   2.148   1.141   0.350
 4062TIP3    H233822   2.271   1.176   0.267
 4063TIP3   OH233823   3.080   0.323   0.437
 4063TIP3    H133824   3.098   0.371   0.354
 4063TIP3    H233825   3.131   0.375   0.501
 4064TIP3   OH233826   2.844   1.542   0.318
 4064TIP3    H133827   2.761   1.593   0.322
 4064TIP3    H233828   2.898   1.590   0.254
 4065TIP3   OH233829   2.796   0.497   0.516
 4065TIP3    H133830   2.875   0.554   0.516
 4065TIP3    H233831   2.777   0.487   0.612
 4066TIP3   OH233832   2.881   0.205   0.608
 4066TIP3    H133833   2.854   0.272   0.672
 4066TIP3    H233834   2.950   0.255   0.558
 4067TIP3   OH233835   2.582   1.645   0.320
 4067TIP3    H133836   2.599   1.727   0.269
 4067TIP3    H233837   2.556   1.680   0.408
 4068TIP3   OH233838   2.450   0.311   0.287
 4068TIP3    H133839   2.444   0.406   0.307
 4068TIP3    H233840   2.544   0.296   0.304
 4069TIP3   OH233841   3.467   0.390   1.523
 4069TIP3    H133842   3.377   0.418   1.506
 4069TIP3    H233843   3.503   0.385   1.431
 4070TIP3   OH233844   3.334   0.767   0.918
 4070TIP3    H133845   3.251   0.723   0.893
 4070TIP3    H233846   3.382   0.700   0.971
 4071TIP3   OH233847   2.273   1.360   0.180
 4071TIP3    H133848   2.340   1.422   0.212
 4071TIP3    H233849   2.325   1.312   0.112
 4072TIP3   OH233850   2.110   0.629   0.111
 4072TIP3    H133851   2.109   0.726   0.107
 4072TIP3    H233852   2.031   0.610   0.059
 4073TIP3   OH233853   3.439   1.694   1.088
 4073TIP3    H133854   3.431   1.762   1.018
 4073TIP3    H233855   3.536   1.699   1.106
 4074TIP3   OH233856   2.169   0.121   0.969
 4074TIP3    H133857   2.168   0.108   0.872
 4074TIP3    H233858   2.158   0.028   0.995
 4075TIP3   OH233859   2.084   1.502   0.586
 4075TIP3    H133860   1.997   1.541   0.572
 4075TIP3    H233861   2.132   1.541   0.511
 4076TIP3   OH233862   2.007   1.762   1.713
 4076TIP3    H133863   2.065   1.739   1.788
 4076TIP3    H233864   1.963   1.678   1.691
 4077TIP3   OH233865   2.470   1.654   1.869
 4077TIP3    H133866   2.543   1.603   1.909
 4077TIP3    H233867   2.471   1.628   1.775
 4078TIP3   OH233868   2.923   1.610   0.072
 4078TIP3    H133869   2.839   1.563   0.061
 4078TIP3    H233870   2.974   1.567   0.003
 4079TIP3   OH233871   3.122   1.493   1.750
 4079TIP3    H133872   3.093   1.403   1.770
 4079TIP3    H233873   3.204   1.501   1.800
 4080TIP3   OH233874   3.344   1.583   0.031
 4080TIP3    H133875   3.368   1.502   0.080
 4080TIP3    H233876   3.423   1.602  -0.022
 4081TIP3   OH233877   2.444   1.184   0.029
 4081TIP3    H133878   2.445   1.099   0.074
 4081TIP3    H233879   2.494   1.159  -0.051
 4082TIP3   OH233880   2.670   1.137   1.746
 4082TIP3    H133881   2.634   1.170   1.662
 4082TIP3    H233882   2.670   1.040   1.738
 4083TIP3   OH233883   3.235   1.127   1.489
 4083TIP3    H133884   3.316   1.182   1.482
 4083TIP3    H233885   3.167   1.195   1.493
 4084TIP3   OH233886   2.085   0.862   1.746
 4084TIP3    H133887   2.129   0.777   1.738
 4084TIP3    H233888   2.062   0.864   1.840
 4085TIP3   OH233889   2.553   0.979   0.255
 4085TIP3    H133890   2.501   0.926   0.317
 4085TIP3    H233891   2.583   0.910   0.192
 4086TIP3   OH233892   2.478   0.758   1.482
 4086TIP3    H133893   2.417   0.829   1.510
 4086TIP3    H233894   2.516   0.796   1.401
 4087TIP3   OH233895   2.658   0.801   0.074
 4087TIP3    H133896   2.647   0.778  -0.019
 4087TIP3    H233897   2.756   0.808   0.086
 4088TIP3   OH233898   2.989   1.006   1.811
 4088TIP3    H133899   3.086   1.012   1.806
 4088TIP3    H233900   2.966   0.938   1.874
 4089TIP3   OH233901   3.576   1.044   8.526
 4089TIP3    H133902   3.567   0.995   8.443
 4089TIP3    H233903   3.599   1.134   8.499
 4090TIP3   OH233904   2.509   0.497   1.588
 4090TIP3    H133905   2.532   0.423   1.529
 4090TIP3    H233906   2.512   0.577   1.534
 4091TIP3   OH233907   2.559   0.333   1.342
 4091TIP3    H133908   2.609   0.382   1.272
 4091TIP3    H233909   2.468   0.322   1.305
 4092TIP3   OH233910   2.714   0.879   1.369
 4092TIP3    H133911   2.791   0.867   1.312
 4092TIP3    H233912   2.677   0.963   1.337
 4093TIP3   OH233913   3.284   0.938   1.682
 4093TIP3    H133914   3.261   1.007   1.616
 4093TIP3    H233915   3.380   0.934   1.661
 4094TIP3   OH233916   2.360   0.622   1.779
 4094TIP3    H133917   2.288   0.559   1.765
 4094TIP3    H233918   2.431   0.582   1.724
 4095TIP3   OH233919   2.631   0.092   1.402
 4095TIP3    H133920   2.619   0.188   1.382
 4095TIP3    H233921   2.563   0.054   1.344
 4096TIP3   OH233922   2.174   0.412   1.761
 4096TIP3    H133923   2.201   0.342   1.699
 4096TIP3    H233924   2.172   0.362   1.844
 4097TIP3   OH233925   2.653   7.348   1.654
 4097TIP3    H133926   2.729   7.291   1.658
 4097TIP3    H233927   2.649   7.383   1.562
 4098TIP3   OH233928   2.641   1.868   0.177
 4098TIP3    H133929   2.738   1.878   0.190
 4098TIP3    H233930   2.625   1.935   0.111
 4099TIP3   OH233931   1.999   1.329   0.130
 4099TIP3    H133932   2.095   1.337   0.151
 4099TIP3    H233933   2.000   1.268   0.055
 4100TIP3   OH233934   1.871   1.864   0.631
 4100TIP3    H133935   1.805   1.816   0.577
 4100TIP3    H233936   1.910   1.795   0.687
 4101TIP3   OH233937   1.949   1.679   0.819
 4101TIP3    H133938   1.935   1.583   0.831
 4101TIP3    H233939   2.000   1.704   0.899
 4102TIP3   OH233940   3.711   1.758   1.107
 4102TIP3    H133941   3.715   1.773   1.203
 4102TIP3    H233942   3.782   1.816   1.077
 4103TIP3   OH233943   3.670   1.718   1.400
 4103TIP3    H133944   3.621   1.640   1.364
 4103TIP3    H233945   3.718   1.673   1.471
 4104TIP3   OH233946   3.515   1.289   1.874
 4104TIP3    H133947   3.424   1.287   1.908
 4104TIP3    H233948   3.550   1.370   1.912
 4105TIP3   OH233949   3.646   1.122   0.411
 4105TIP3    H133950   3.731   1.163   0.434
 4105TIP3    H233951   3.643   1.051   0.480
 4106TIP3   OH233952   3.680   0.931   0.601
 4106TIP3    H133953   3.605   0.880   0.638
 4106TIP3    H233954   3.740   0.943   0.677
 4107TIP3   OH233955   3.656   1.199   1.099
 4107TIP3    H133956   3.737   1.161   1.061
 4107TIP3    H233957   3.671   1.294   1.083
 4108TIP3   OH233958   3.512   1.490   1.326
 4108TIP3    H133959   3.444   1.524   1.385
 4108TIP3    H233960   3.457   1.450   1.255
 4109TIP3   OH233961   3.710   0.912   0.238
 4109TIP3    H133962   3.651   0.948   0.169
 4109TIP3    H233963   3.702   0.982   0.306
 4110TIP3   OH233964   3.508   0.637   0.102
 4110TIP3    H133965   3.554   0.697   0.039
 4110TIP3    H233966   3.527   0.553   0.056
 4111TIP3   OH233967   3.462   0.777   0.659
 4111TIP3    H133968   3.447   0.682   0.653
 4111TIP3    H233969   3.430   0.798   0.748
 4112TIP3   OH233970   1.963   0.986   1.064
 4112TIP3    H133971   1.981   0.978   0.968
 4112TIP3    H233972   2.053   0.968   1.099
 4113TIP3   OH233973   3.547   0.973   1.621
 4113TIP3    H133974   3.608   0.899   1.641
 4113TIP3    H233975   3.605   1.050   1.630
 4114TIP3   OH233976   3.701   0.762   1.687
 4114TIP3    H133977   3.611   0.724   1.675
 4114TIP3    H233978   3.757   0.683   1.684
 4115TIP3   OH233979   3.470   0.378   0.002
 4115TIP3    H133980   3.531   0.338   0.068
 4115TIP3    H233981   3.383   0.340   0.023
 4116TIP3   OH233982   3.429   0.537   0.505
 4116TIP3    H133983   3.459   0.444   0.516
 4116TIP3    H233984   3.507   0.576   0.465
 4117TIP3   OH233985   3.493   0.592   1.049
 4117TIP3    H133986   3.589   0.614   1.046
 4117TIP3    H233987   3.474   0.604   1.143
 4118TIP3   OH233988   3.499   0.664   1.325
 4118TIP3    H133989   3.413   0.694   1.358
 4118TIP3    H233990   3.545   0.749   1.305
 4119TIP3   OH233991   1.926   0.514   1.679
 4119TIP3    H133992   2.019   0.491   1.695
 4119TIP3    H233993   1.878   0.433   1.707
 4120TIP3   OH233994   3.497   0.262   0.508
 4120TIP3    H133995   3.516   0.218   0.593
 4120TIP3    H233996   3.437   0.197   0.463
 4121TIP3   OH233997   2.043   0.348   0.960
 4121TIP3    H133998   2.086   0.265   0.991
 4121TIP3    H233999   2.097   0.413   1.006
 4122TIP3   OH234000   1.874   0.645   1.068
 4122TIP3    H134001   1.930   0.620   0.992
 4122TIP3    H234002   1.920   0.725   1.095
 4123TIP3   OH234003   3.677   0.274   0.159
 4123TIP3    H134004   3.722   0.197   0.119
 4123TIP3    H234005   3.753   0.335   0.165
 4124TIP3   OH234006   1.914   0.269   0.475
 4124TIP3    H134007   1.819   0.288   0.463
 4124TIP3    H234008   1.951   0.320   0.400
 4125TIP3   OH234009   3.383   1.766   0.671
 4125TIP3    H134010   3.451   1.736   0.608
 4125TIP3    H234011   3.435   1.816   0.736
 4126TIP3   OH234012   1.904   0.140   1.304
 4126TIP3    H134013   1.839   0.120   1.373
 4126TIP3    H234014   1.857   0.204   1.248
 4127TIP3   OH234015   2.417   1.556   1.349
 4127TIP3    H134016   2.385   1.643   1.320
 4127TIP3    H234017   2.510   1.564   1.319
 4128TIP3   OH234018   2.853   1.699   1.639
 4128TIP3    H134019   2.866   1.667   1.731
 4128TIP3    H234020   2.942   1.731   1.614
 4129TIP3   OH234021   3.079   1.827   1.572
 4129TIP3    H134022   3.152   1.768   1.546
 4129TIP3    H234023   3.118   1.869   1.651
 4130TIP3   OH234024   3.580   0.090   1.481
 4130TIP3    H134025   3.499   0.122   1.439
 4130TIP3    H234026   3.600   0.009   1.429
 4131TIP3   OH234027   2.161   1.880   1.348
 4131TIP3    H134028   2.087   1.931   1.311
 4131TIP3    H234029   2.131   1.862   1.438
 4132TIP3   OH234030   2.408   1.838   1.256
 4132TIP3    H134031   2.319   1.855   1.294
 4132TIP3    H234032   2.403   1.897   1.178
 4133TIP3   OH234033   2.878   1.829   1.173
 4133TIP3    H134034   2.832   1.885   1.108
 4133TIP3    H234035   2.891   1.892   1.247
 4134TIP3   OH234036   3.107   1.710   1.276
 4134TIP3    H134037   3.022   1.738   1.238
 4134TIP3    H234038   3.156   1.793   1.267
 4135TIP3   OH234039   3.365   1.867   1.297
 4135TIP3    H134040   3.361   1.963   1.274
 4135TIP3    H234041   3.388   1.829   1.210
 4136TIP3   OH234042   2.102   1.740   1.040
 4136TIP3    H134043   2.101   1.698   1.129
 4136TIP3    H234044   2.189   1.709   1.004
 4137TIP3   OH234045   2.312   1.617   0.909
 4137TIP3    H134046   2.299   1.523   0.931
 4137TIP3    H234047   2.399   1.633   0.952
 4138TIP3   OH234048   2.574   1.665   0.996
 4138TIP3    H134049   2.590   1.572   0.970
 4138TIP3    H234050   2.579   1.659   1.092
 4139TIP3   OH234051   2.915   0.241   0.903
 4139TIP3    H134052   2.856   0.170   0.938
 4139TIP3    H234053   2.980   0.185   0.857
 4140TIP3   OH234054   3.432   0.038   0.918
 4140TIP3    H134055   3.494   0.091   0.863
 4140TIP3    H234056   3.345   0.071   0.893
 4141TIP3   OH234057   3.603   0.163   0.740
 4141TIP3    H134058   3.671   0.102   0.705
 4141TIP3    H234059   3.653   0.245   0.753
 4142TIP3   OH234060   2.162   0.095   0.683
 4142TIP3    H134061   2.074   0.072   0.647
 4142TIP3    H234062   2.195   0.005   0.700
 4143TIP3   OH234063   2.008   0.113   0.210
 4143TIP3    H134064   2.093   0.160   0.197
 4143TIP3    H234065   1.980   0.140   0.298
 4144TIP3   OH234066   2.630   0.133   0.709
 4144TIP3    H134067   2.723   0.125   0.680
 4144TIP3    H234068   2.620   0.061   0.772
 4145TIP3   OH234069   3.156   0.112   0.840
 4145TIP3    H134070   3.170   0.112   0.745
 4145TIP3    H234071   3.147   0.015   0.854
 4146TIP3   OH234072   3.301   0.091   0.411
 4146TIP3    H134073   3.229   0.150   0.384
 4146TIP3    H234074   3.260   0.003   0.415
 4147TIP3   OH234075   2.026   1.664   0.368
 4147TIP3    H134076   1.958   1.663   0.298
 4147TIP3    H234077   2.031   1.760   0.381
 4148TIP3   OH234078   2.217   0.253   0.124
 4148TIP3    H134079   2.269   0.207   0.057
 4148TIP3    H234080   2.286   0.296   0.176
 4149TIP3   OH234081   2.706   0.284   0.365
 4149TIP3    H134082   2.754   0.230   0.431
 4149TIP3    H234083   2.730   0.372   0.402
 4150TIP3   OH234084   2.909   1.824   0.203
 4150TIP3    H134085   3.006   1.821   0.190
 4150TIP3    H234086   2.892   1.749   0.141
 4151TIP3   OH234087   3.582   1.744   0.474
 4151TIP3    H134088   3.563   1.666   0.417
 4151TIP3    H234089   3.574   1.817   0.410
 4152TIP3   OH234090   2.137   0.149   1.633
 4152TIP3    H134091   2.106   0.070   1.680
 4152TIP3    H234092   2.229   0.145   1.669
 4153TIP3   OH234093   2.326   0.094   1.790
 4153TIP3    H134094   2.422   0.079   1.782
 4153TIP3    H234095   2.308   0.014   1.842
 4154TIP3   OH234096   2.209   1.762   0.064
 4154TIP3    H134097   2.178   1.788   0.152
 4154TIP3    H234098   2.284   1.706   0.081
 4155TIP3   OH234099   3.199   7.378   1.826
 4155TIP3    H134100   3.192   7.315   1.899
 4155TIP3    H234101   3.278   7.355   1.776
 4156TIP3   OH234102   3.508   1.619   1.682
 4156TIP3    H134103   3.427   1.606   1.629
 4156TIP3    H234104   3.497   1.713   1.707
 4157TIP3   OH234105   4.949   1.005   0.682
 4157TIP3    H134106   4.952   1.103   0.673
 4157TIP3    H234107   4.880   0.984   0.618
 4158TIP3   OH234108   4.836   0.932   1.030
 4158TIP3    H134109   4.836   0.867   1.102
 4158TIP3    H234110   4.802   0.881   0.955
 4159TIP3   OH234111   4.071   0.899   1.185
 4159TIP3    H134112   4.081   0.831   1.255
 4159TIP3    H234113   4.147   0.956   1.207
 4160TIP3   OH234114   5.206   1.227   0.859
 4160TIP3    H134115   5.164   1.155   0.908
 4160TIP3    H234116   5.208   1.298   0.926
 4161TIP3   OH234117   4.165   1.345   1.033
 4161TIP3    H134118   4.134   1.258   1.003
 4161TIP3    H234119   4.260   1.326   1.040
 4162TIP3   OH234120   3.828   0.700   0.584
 4162TIP3    H134121   3.785   0.787   0.578
 4162TIP3    H234122   3.772   0.646   0.526
 4163TIP3   OH234123   3.900   0.924   0.799
 4163TIP3    H134124   3.928   0.841   0.844
 4163TIP3    H234125   3.969   0.934   0.732
 4164TIP3   OH234126   4.917   1.743   0.882
 4164TIP3    H134127   4.982   1.674   0.853
 4164TIP3    H234128   4.896   1.709   0.969
 4165TIP3   OH234129   4.675   1.171   1.078
 4165TIP3    H134130   4.708   1.109   1.011
 4165TIP3    H234131   4.756   1.188   1.129
 4166TIP3   OH234132   5.536   0.337   1.149
 4166TIP3    H134133   5.551   0.398   1.225
 4166TIP3    H234134   5.591   0.379   1.082
 4167TIP3   OH234135   4.991   0.619   1.110
 4167TIP3    H134136   5.007   0.522   1.110
 4167TIP3    H234137   4.981   0.633   1.014
 4168TIP3   OH234138   4.303   0.431   0.830
 4168TIP3    H134139   4.314   0.514   0.779
 4168TIP3    H234140   4.263   0.372   0.763
 4169TIP3   OH234141   5.077   0.433   0.665
 4169TIP3    H134142   5.140   0.405   0.736
 4169TIP3    H234143   5.132   0.494   0.615
 4170TIP3   OH234144   3.965   0.669   0.904
 4170TIP3    H134145   4.032   0.614   0.949
 4170TIP3    H234146   3.975   0.638   0.812
 4171TIP3   OH234147   4.482   0.825   0.835
 4171TIP3    H134148   4.548   0.766   0.875
 4171TIP3    H234149   4.430   0.759   0.784
 4172TIP3   OH234150   5.577   0.476   1.379
 4172TIP3    H134151   5.518   0.554   1.367
 4172TIP3    H234152   5.583   0.470   1.475
 4173TIP3   OH234153   4.195   0.322   1.234
 4173TIP3    H134154   4.163   0.375   1.158
 4173TIP3    H234155   4.125   0.340   1.301
 4174TIP3   OH234156   4.918   1.266   0.592
 4174TIP3    H134157   4.903   1.235   0.500
 4174TIP3    H234158   4.890   1.360   0.591
 4175TIP3   OH234159   4.445   1.082   1.257
 4175TIP3    H134160   4.374   1.146   1.280
 4175TIP3    H234161   4.516   1.142   1.229
 4176TIP3   OH234162   5.257   0.371   0.865
 4176TIP3    H134163   5.235   0.295   0.919
 4176TIP3    H234164   5.327   0.413   0.919
 4177TIP3   OH234165   4.150   0.504   1.036
 4177TIP3    H134166   4.213   0.571   1.069
 4177TIP3    H234167   4.203   0.461   0.964
 4178TIP3   OH234168   4.289   1.283   1.339
 4178TIP3    H134169   4.285   1.374   1.307
 4178TIP3    H234170   4.202   1.275   1.385
 4179TIP3   OH234171   3.896   1.243   0.418
 4179TIP3    H134172   3.876   1.278   0.329
 4179TIP3    H234173   3.904   1.326   0.471
 4180TIP3   OH234174   5.258   1.411   1.095
 4180TIP3    H134175   5.162   1.422   1.107
 4180TIP3    H234176   5.285   1.502   1.075
 4181TIP3   OH234177   5.293   0.240   1.241
 4181TIP3    H134178   5.219   0.300   1.222
 4181TIP3    H234179   5.362   0.277   1.182
 4182TIP3   OH234180   4.616   0.070   0.978
 4182TIP3    H134181   4.604  -0.025   0.976
 4182TIP3    H234182   4.525   0.095   1.001
 4183TIP3   OH234183   5.084   1.589   0.754
 4183TIP3    H134184   5.127   1.517   0.703
 4183TIP3    H234185   5.129   1.668   0.716
 4184TIP3   OH234186   5.207   1.383   0.606
 4184TIP3    H134187   5.177   1.315   0.542
 4184TIP3    H234188   5.208   1.331   0.688
 4185TIP3   OH234189   5.367   1.242   1.455
 4185TIP3    H134190   5.382   1.175   1.384
 4185TIP3    H234191   5.388   1.325   1.410
 4186TIP3   OH234192   4.776   0.905   0.432
 4186TIP3    H134193   4.736   0.989   0.402
 4186TIP3    H234194   4.862   0.927   0.388
 4187TIP3   OH234195   4.816   0.780   0.127
 4187TIP3    H134196   4.882   0.792   0.199
 4187TIP3    H234197   4.864   0.712   0.080
 4188TIP3   OH234198   5.556   0.872   1.258
 4188TIP3    H134199   5.490   0.945   1.263
 4188TIP3    H234200   5.606   0.896   1.178
 4189TIP3   OH234201   5.174   0.951   0.535
 4189TIP3    H134202   5.091   0.976   0.581
 4189TIP3    H234203   5.211   0.879   0.586
 4190TIP3   OH234204   5.153   0.766   1.436
 4190TIP3    H134205   5.157   0.848   1.489
 4190TIP3    H234206   5.092   0.798   1.367
 4191TIP3   OH234207   4.323   1.018   0.715
 4191TIP3    H134208   4.291   0.978   0.630
 4191TIP3    H234209   4.384   0.949   0.749
 4192TIP3   OH234210   4.455   1.355   0.983
 4192TIP3    H134211   4.455   1.303   0.902
 4192TIP3    H234212   4.533   1.320   1.029
 4193TIP3   OH234213   4.356   0.892   1.082
 4193TIP3    H134214   4.411   0.902   1.001
 4193TIP3    H234215   4.395   0.958   1.142
 4194TIP3   OH234216   4.999   1.449   1.152
 4194TIP3    H134217   4.969   1.513   1.218
 4194TIP3    H234218   4.972   1.364   1.194
 4195TIP3   OH234219   4.450   1.334   1.554
 4195TIP3    H134220   4.409   1.410   1.600
 4195TIP3    H234221   4.385   1.314   1.483
 4196TIP3   OH234222   5.113   0.824   0.267
 4196TIP3    H134223   5.106   0.871   0.354
 4196TIP3    H234224   5.091   0.909   0.219
 4197TIP3   OH234225   4.145   0.952   1.465
 4197TIP3    H134226   4.150   1.014   1.541
 4197TIP3    H234227   4.051   0.961   1.442
 4198TIP3   OH234228   4.820   1.543   0.639
 4198TIP3    H134229   4.864   1.575   0.719
 4198TIP3    H234230   4.765   1.618   0.612
 4199TIP3   OH234231   4.275   1.536   1.626
 4199TIP3    H134232   4.271   1.527   1.529
 4199TIP3    H234233   4.182   1.524   1.651
 4200TIP3   OH234234   5.424   0.056   0.278
 4200TIP3    H134235   5.329   0.055   0.302
 4200TIP3    H234236   5.439   0.138   0.232
 4201TIP3   OH234237   4.219   0.919   0.476
 4201TIP3    H134238   4.193   0.997   0.423
 4201TIP3    H234239   4.154   0.853   0.453
 4202TIP3   OH234240   5.532   1.477   0.117
 4202TIP3    H134241   5.545   1.573   0.129
 4202TIP3    H234242   5.625   1.449   0.110
 4203TIP3   OH234243   3.830   1.162   1.365
 4203TIP3    H134244   3.784   1.154   1.279
 4203TIP3    H234245   3.837   1.068   1.388
 4204TIP3   OH234246   3.805   1.436   1.044
 4204TIP3    H134247   3.901   1.424   1.042
 4204TIP3    H234248   3.797   1.518   1.095
 4205TIP3   OH234249   5.627   1.505   1.610
 4205TIP3    H134250   5.616   1.408   1.609
 4205TIP3    H234251   5.543   1.531   1.653
 4206TIP3   OH234252   4.725   1.461   1.498
 4206TIP3    H134253   4.731   1.544   1.551
 4206TIP3    H234254   4.639   1.424   1.526
 4207TIP3   OH234255   4.768   1.834   0.478
 4207TIP3    H134256   4.760   1.829   0.381
 4207TIP3    H234257   4.772   1.931   0.495
 4208TIP3   OH234258   4.133   1.723   0.661
 4208TIP3    H134259   4.147   1.681   0.750
 4208TIP3    H234260   4.048   1.682   0.638
 4209TIP3   OH234261   5.071   1.755   0.175
 4209TIP3    H134262   5.119   1.680   0.134
 4209TIP3    H234263   5.079   1.732   0.269
 4210TIP3   OH234264   5.043   1.750   0.455
 4210TIP3    H134265   4.947   1.756   0.473
 4210TIP3    H234266   5.068   1.676   0.512
 4211TIP3   OH234267   5.347   0.651   1.656
 4211TIP3    H134268   5.295   0.700   1.590
 4211TIP3    H234269   5.344   0.560   1.625
 4212TIP3   OH234270   4.056   1.291   1.461
 4212TIP3    H134271   4.078   1.256   1.550
 4212TIP3    H234272   3.969   1.253   1.440
 4213TIP3   OH234273   4.322   0.158   1.061
 4213TIP3    H134274   4.235   0.138   1.020
 4213TIP3    H234275   4.303   0.239   1.110
 4214TIP3   OH234276   4.788   0.108   1.395
 4214TIP3    H134277   4.828   0.068   1.472
 4214TIP3    H234278   4.692   0.100   1.410
 4215TIP3   OH234279   5.117   0.489   1.479
 4215TIP3    H134280   5.060   0.474   1.559
 4215TIP3    H234281   5.103   0.584   1.457
 4216TIP3   OH234282   5.205   0.978   0.067
 4216TIP3    H134283   5.207   0.964  -0.028
 4216TIP3    H234284   5.289   1.025   0.085
 4217TIP3   OH234285   4.751   0.367   0.126
 4217TIP3    H134286   4.726   0.362   0.220
 4217TIP3    H234287   4.731   0.276   0.097
 4218TIP3   OH234288   4.336   0.639   1.182
 4218TIP3    H134289   4.262   0.638   1.245
 4218TIP3    H234290   4.331   0.730   1.144
 4219TIP3   OH234291   4.330   0.647   0.668
 4219TIP3    H134292   4.236   0.625   0.654
 4219TIP3    H234293   4.369   0.621   0.583
 4220TIP3   OH234294   4.887   0.698   0.541
 4220TIP3    H134295   4.841   0.780   0.511
 4220TIP3    H234296   4.953   0.686   0.472
 4221TIP3   OH234297   4.792   0.719   1.687
 4221TIP3    H134298   4.736   0.645   1.720
 4221TIP3    H234299   4.874   0.710   1.736
 4222TIP3   OH234300   4.988   0.652   0.828
 4222TIP3    H134301   4.959   0.707   0.754
 4222TIP3    H234302   4.997   0.566   0.782
 4223TIP3   OH234303   4.098   0.664   1.349
 4223TIP3    H134304   4.108   0.703   1.438
 4223TIP3    H234305   4.056   0.579   1.368
 4224TIP3   OH234306   4.453   0.428   0.066
 4224TIP3    H134307   4.400   0.363   0.118
 4224TIP3    H234308   4.389   0.462   0.003
 4225TIP3   OH234309   3.766   0.377   0.745
 4225TIP3    H134310   3.833   0.372   0.816
 4225TIP3    H234311   3.809   0.337   0.669
 4226TIP3   OH234312   3.896   0.450   0.289
 4226TIP3    H134313   3.942   0.506   0.224
 4226TIP3    H234314   3.824   0.511   0.317
 4227TIP3   OH234315   4.907   0.808   1.283
 4227TIP3    H134316   4.945   0.740   1.225
 4227TIP3    H234317   4.860   0.755   1.350
 4228TIP3   OH234318   4.587   0.406   0.768
 4228TIP3    H134319   4.494   0.401   0.798
 4228TIP3    H234320   4.636   0.390   0.850
 4229TIP3   OH234321   4.069   0.558   0.655
 4229TIP3    H134322   3.981   0.576   0.615
 4229TIP3    H234323   4.097   0.474   0.614
 4230TIP3   OH234324   4.432   0.564   0.416
 4230TIP3    H134325   4.526   0.579   0.437
 4230TIP3    H234326   4.408   0.633   0.351
 4231TIP3   OH234327   5.028   0.328   1.090
 4231TIP3    H134328   4.959   0.334   1.160
 4231TIP3    H234329   4.978   0.304   1.011
 4232TIP3   OH234330   4.301   0.683   0.177
 4232TIP3    H134331   4.244   0.647   0.106
 4232TIP3    H234332   4.384   0.703   0.131
 4233TIP3   OH234333   5.349   1.897   1.730
 4233TIP3    H134334   5.378   1.929   1.641
 4233TIP3    H234335   5.429   1.926   1.778
 4234TIP3   OH234336   4.117   1.140   1.683
 4234TIP3    H134337   4.186   1.167   1.746
 4234TIP3    H234338   4.039   1.151   1.742
 4235TIP3   OH234339   4.717   0.680   0.957
 4235TIP3    H134340   4.774   0.623   0.904
 4235TIP3    H234341   4.700   0.627   1.036
 4236TIP3   OH234342   4.215   0.300   0.600
 4236TIP3    H134343   4.182   0.209   0.603
 4236TIP3    H234344   4.294   0.290   0.545
 4237TIP3   OH234345   4.579   0.513   1.198
 4237TIP3    H134346   4.497   0.566   1.207
 4237TIP3    H234347   4.635   0.549   1.270
 4238TIP3   OH234348   4.636   1.136   0.370
 4238TIP3    H134349   4.556   1.090   0.338
 4238TIP3    H234350   4.616   1.148   0.465
 4239TIP3   OH234351   5.357   1.057   1.248
 4239TIP3    H134352   5.413   1.106   1.184
 4239TIP3    H234353   5.271   1.061   1.202
 4240TIP3   OH234354   5.025   0.419   0.184
 4240TIP3    H134355   4.930   0.429   0.167
 4240TIP3    H234356   5.051   0.505   0.221
 4241TIP3   OH234357   4.785   1.164   1.489
 4241TIP3    H134358   4.753   1.121   1.569
 4241TIP3    H234359   4.762   1.256   1.503
 4242TIP3   OH234360   5.099   0.592   0.357
 4242TIP3    H134361   5.181   0.599   0.406
 4242TIP3    H234362   5.100   0.678   0.308
 4243TIP3   OH234363   4.149   1.076   0.948
 4243TIP3    H134364   4.218   1.068   0.879
 4243TIP3    H234365   4.155   0.990   0.994
 4244TIP3   OH234366   4.831   1.303   0.258
 4244TIP3    H134367   4.803   1.376   0.315
 4244TIP3    H234368   4.783   1.224   0.293
 4245TIP3   OH234369   3.847   0.917   1.474
 4245TIP3    H134370   3.868   0.873   1.559
 4245TIP3    H234371   3.785   0.856   1.432
 4246TIP3   OH234372   4.554   0.874   1.689
 4246TIP3    H134373   4.518   0.840   1.606
 4246TIP3    H234374   4.644   0.838   1.691
 4247TIP3   OH234375   5.019   1.409   1.490
 4247TIP3    H134376   4.926   1.424   1.465
 4247TIP3    H234377   5.014   1.435   1.584
 4248TIP3   OH234378   5.582   0.630   0.330
 4248TIP3    H134379   5.557   0.595   0.244
 4248TIP3    H234380   5.602   0.723   0.304
 4249TIP3   OH234381   5.584   1.211   1.609
 4249TIP3    H134382   5.494   1.230   1.572
 4249TIP3    H234383   5.638   1.205   1.528
 4250TIP3   OH234384   5.413   1.505   0.366
 4250TIP3    H134385   5.374   1.421   0.397
 4250TIP3    H234386   5.444   1.486   0.275
 4251TIP3   OH234387   5.135   0.988   1.078
 4251TIP3    H134388   5.041   0.967   1.065
 4251TIP3    H234389   5.178   0.912   1.033
 4252TIP3   OH234390   4.386   1.422   0.687
 4252TIP3    H134391   4.436   1.502   0.666
 4252TIP3    H234392   4.299   1.445   0.654
 4253TIP3   OH234393   3.960   0.907   0.139
 4253TIP3    H134394   4.022   0.969   0.182
 4253TIP3    H234395   3.873   0.934   0.173
 4254TIP3   OH234396   4.526   1.189   0.641
 4254TIP3    H134397   4.494   1.281   0.648
 4254TIP3    H234398   4.454   1.139   0.684
 4255TIP3   OH234399   4.573   1.606   1.279
 4255TIP3    H134400   4.619   1.687   1.252
 4255TIP3    H234401   4.634   1.572   1.347
 4256TIP3   OH234402   4.396   1.687   0.590
 4256TIP3    H134403   4.300   1.701   0.606
 4256TIP3    H234404   4.432   1.771   0.626
 4257TIP3   OH234405   4.925   1.206   1.241
 4257TIP3    H134406   4.893   1.187   1.332
 4257TIP3    H234407   4.989   1.135   1.225
 4258TIP3   OH234408   5.152   1.312   0.157
 4258TIP3    H134409   5.181   1.261   0.236
 4258TIP3    H234410   5.058   1.288   0.163
 4259TIP3   OH234411   5.206   1.666   1.494
 4259TIP3    H134412   5.139   1.615   1.444
 4259TIP3    H234413   5.227   1.735   1.426
 4260TIP3   OH234414   5.607   1.752   0.176
 4260TIP3    H134415   5.676   1.816   0.150
 4260TIP3    H234416   5.535   1.812   0.206
 4261TIP3   OH234417   4.014   0.389   1.433
 4261TIP3    H134418   3.923   0.423   1.425
 4261TIP3    H234419   4.000   0.301   1.472
 4262TIP3   OH234420   5.248   1.186   0.381
 4262TIP3    H134421   5.209   1.102   0.417
 4262TIP3    H234422   5.342   1.177   0.399
 4263TIP3   OH234423   3.975   1.568   1.273
 4263TIP3    H134424   4.005   1.476   1.273
 4263TIP3    H234425   4.002   1.597   1.361
 4264TIP3   OH234426   4.449   1.377   0.244
 4264TIP3    H134427   4.480   1.320   0.316
 4264TIP3    H234428   4.458   1.468   0.279
 4265TIP3   OH234429   4.098   1.100   0.287
 4265TIP3    H134430   4.033   1.140   0.348
 4265TIP3    H234431   4.156   1.175   0.267
 4266TIP3   OH234432   4.886   0.364   1.328
 4266TIP3    H134433   4.960   0.371   1.389
 4266TIP3    H234434   4.851   0.274   1.343
 4267TIP3   OH234435   4.967   0.322   0.436
 4267TIP3    H134436   4.983   0.372   0.353
 4267TIP3    H234437   5.015   0.374   0.502
 4268TIP3   OH234438   4.728   1.547   0.322
 4268TIP3    H134439   4.645   1.597   0.322
 4268TIP3    H234440   4.784   1.589   0.253
 4269TIP3   OH234441   4.684   0.496   0.515
 4269TIP3    H134442   4.761   0.556   0.517
 4269TIP3    H234443   4.658   0.487   0.609
 4270TIP3   OH234444   4.741   0.603   1.431
 4270TIP3    H134445   4.745   0.657   1.512
 4270TIP3    H234446   4.804   0.531   1.444
 4271TIP3   OH234447   4.771   0.203   0.611
 4271TIP3    H134448   4.737   0.272   0.670
 4271TIP3    H234449   4.835   0.256   0.558
 4272TIP3   OH234450   4.467   1.645   0.320
 4272TIP3    H134451   4.485   1.727   0.269
 4272TIP3    H234452   4.442   1.680   0.408
 4273TIP3   OH234453   4.337   0.312   0.278
 4273TIP3    H134454   4.328   0.403   0.312
 4273TIP3    H234455   4.429   0.296   0.306
 4274TIP3   OH234456   5.355   0.385   1.525
 4274TIP3    H134457   5.264   0.420   1.507
 4274TIP3    H234458   5.388   0.385   1.433
 4275TIP3   OH234459   5.219   0.767   0.921
 4275TIP3    H134460   5.136   0.722   0.894
 4275TIP3    H234461   5.267   0.699   0.973
 4276TIP3   OH234462   4.159   1.361   0.180
 4276TIP3    H134463   4.223   1.424   0.213
 4276TIP3    H234464   4.212   1.313   0.113
 4277TIP3   OH234465   3.999   0.629   0.100
 4277TIP3    H134466   3.995   0.725   0.111
 4277TIP3    H234467   3.912   0.609   0.063
 4278TIP3   OH234468   5.325   1.694   1.087
 4278TIP3    H134469   5.316   1.762   1.018
 4278TIP3    H234470   5.421   1.699   1.105
 4279TIP3   OH234471   4.052   0.120   0.970
 4279TIP3    H134472   4.055   0.110   0.873
 4279TIP3    H234473   4.043   0.026   0.994
 4280TIP3   OH234474   3.969   1.498   0.583
 4280TIP3    H134475   3.884   1.542   0.579
 4280TIP3    H234476   4.016   1.544   0.512
 4281TIP3   OH234477   3.897   1.759   1.706
 4281TIP3    H134478   3.945   1.740   1.788
 4281TIP3    H234479   3.845   1.678   1.694
 4282TIP3   OH234480   4.809   1.610   0.072
 4282TIP3    H134481   4.725   1.563   0.061
 4282TIP3    H234482   4.860   1.566   0.003
 4283TIP3   OH234483   5.010   1.493   1.743
 4283TIP3    H134484   4.974   1.408   1.775
 4283TIP3    H234485   5.083   1.506   1.805
 4284TIP3   OH234486   5.230   1.583   0.032
 4284TIP3    H134487   5.252   1.501   0.081
 4284TIP3    H234488   5.308   1.602  -0.021
 4285TIP3   OH234489   3.878   1.137   1.810
 4285TIP3    H134490   3.897   1.047   1.777
 4285TIP3    H234491   3.805   1.165   1.752
 4286TIP3   OH234492   4.326   1.181   0.027
 4286TIP3    H134493   4.329   1.099   0.075
 4286TIP3    H234494   4.380   1.160  -0.051
 4287TIP3   OH234495   4.560   1.141   1.747
 4287TIP3    H134496   4.519   1.169   1.664
 4287TIP3    H234497   4.558   1.042   1.740
 4288TIP3   OH234498   5.122   1.126   1.486
 4288TIP3    H134499   5.202   1.183   1.483
 4288TIP3    H234500   5.053   1.193   1.494
 4289TIP3   OH234501   3.963   0.861   1.746
 4289TIP3    H134502   4.016   0.781   1.736
 4289TIP3    H234503   3.953   0.862   1.842
 4290TIP3   OH234504   4.436   0.977   0.256
 4290TIP3    H134505   4.385   0.925   0.319
 4290TIP3    H234506   4.466   0.908   0.194
 4291TIP3   OH234507   4.363   0.755   1.485
 4291TIP3    H134508   4.305   0.827   1.514
 4291TIP3    H234509   4.402   0.793   1.404
 4292TIP3   OH234510   4.542   0.797   0.080
 4292TIP3    H134511   4.520   0.779  -0.013
 4292TIP3    H234512   4.638   0.809   0.100
 4293TIP3   OH234513   4.870   1.016   1.826
 4293TIP3    H134514   4.965   1.011   1.802
 4293TIP3    H234515   4.851   0.934   1.872
 4294TIP3   OH234516   5.468   1.043   8.526
 4294TIP3    H134517   5.453   0.996   8.442
 4294TIP3    H234518   5.484   1.134   8.500
 4295TIP3   OH234519   4.405   0.494   1.590
 4295TIP3    H134520   4.415   0.424   1.524
 4295TIP3    H234521   4.397   0.576   1.537
 4296TIP3   OH234522   4.445   0.334   1.346
 4296TIP3    H134523   4.496   0.382   1.276
 4296TIP3    H234524   4.355   0.323   1.307
 4297TIP3   OH234525   4.598   0.882   1.369
 4297TIP3    H134526   4.674   0.866   1.313
 4297TIP3    H234527   4.561   0.966   1.336
 4298TIP3   OH234528   5.168   0.936   1.676
 4298TIP3    H134529   5.148   1.012   1.619
 4298TIP3    H234530   5.266   0.936   1.668
 4299TIP3   OH234531   4.245   0.627   1.775
 4299TIP3    H134532   4.175   0.560   1.771
 4299TIP3    H234533   4.315   0.582   1.725
 4300TIP3   OH234534   4.515   0.091   1.404
 4300TIP3    H134535   4.506   0.187   1.379
 4300TIP3    H234536   4.450   0.053   1.343
 4301TIP3   OH234537   4.648   0.506   1.745
 4301TIP3    H134538   4.617   0.488   1.836
 4301TIP3    H234539   4.566   0.490   1.693
 4302TIP3   OH234540   4.920   0.427   1.657
 4302TIP3    H134541   4.823   0.428   1.666
 4302TIP3    H234542   4.943   0.356   1.718
 4303TIP3   OH234543   4.054   0.410   1.751
 4303TIP3    H134544   4.091   0.339   1.695
 4303TIP3    H234545   4.065   0.372   1.840
 4304TIP3   OH234546   4.543   7.352   1.657
 4304TIP3    H134547   4.615   7.289   1.655
 4304TIP3    H234548   4.533   7.381   1.563
 4305TIP3   OH234549   4.527   1.868   0.177
 4305TIP3    H134550   4.624   1.878   0.190
 4305TIP3    H234551   4.511   1.935   0.111
 4306TIP3   OH234552   3.884   1.327   0.132
 4306TIP3    H134553   3.981   1.336   0.152
 4306TIP3    H234554   3.887   1.270   0.055
 4307TIP3   OH234555   3.760   1.864   0.627
 4307TIP3    H134556   3.689   1.816   0.581
 4307TIP3    H234557   3.789   1.799   0.693
 4308TIP3   OH234558   3.843   1.678   0.815
 4308TIP3    H134559   3.807   1.590   0.835
 4308TIP3    H234560   3.866   1.711   0.903
 4309TIP3   OH234561   5.598   1.756   1.106
 4309TIP3    H134562   5.599   1.774   1.202
 4309TIP3    H234563   5.667   1.817   1.079
 4310TIP3   OH234564   5.553   1.716   1.400
 4310TIP3    H134565   5.508   1.638   1.364
 4310TIP3    H234566   5.603   1.676   1.474
 4311TIP3   OH234567   5.403   1.291   1.871
 4311TIP3    H134568   5.312   1.282   1.904
 4311TIP3    H234569   5.432   1.375   1.911
 4312TIP3   OH234570   5.535   1.119   0.409
 4312TIP3    H134571   5.618   1.162   0.435
 4312TIP3    H234572   5.527   1.052   0.480
 4313TIP3   OH234573   5.568   0.927   0.600
 4313TIP3    H134574   5.491   0.882   0.642
 4313TIP3    H234575   5.626   0.944   0.677
 4314TIP3   OH234576   5.542   1.198   1.099
 4314TIP3    H134577   5.623   1.161   1.061
 4314TIP3    H234578   5.556   1.294   1.083
 4315TIP3   OH234579   5.397   1.489   1.326
 4315TIP3    H134580   5.328   1.525   1.385
 4315TIP3    H234581   5.342   1.450   1.255
 4316TIP3   OH234582   5.589   0.909   0.240
 4316TIP3    H134583   5.536   0.950   0.169
 4316TIP3    H234584   5.590   0.983   0.305
 4317TIP3   OH234585   5.395   0.639   0.091
 4317TIP3    H134586   5.441   0.701   0.031
 4317TIP3    H234587   5.414   0.556   0.042
 4318TIP3   OH234588   5.349   0.773   0.658
 4318TIP3    H134589   5.332   0.679   0.659
 4318TIP3    H234590   5.317   0.800   0.746
 4319TIP3   OH234591   3.849   0.986   1.064
 4319TIP3    H134592   3.866   0.978   0.968
 4319TIP3    H234593   3.938   0.968   1.099
 4320TIP3   OH234594   5.433   0.972   1.622
 4320TIP3    H134595   5.494   0.900   1.644
 4320TIP3    H234596   5.490   1.051   1.628
 4321TIP3   OH234597   5.586   0.762   1.689
 4321TIP3    H134598   5.496   0.725   1.677
 4321TIP3    H234599   5.640   0.683   1.680
 4322TIP3   OH234600   5.355   0.384   0.011
 4322TIP3    H134601   5.418   0.331   0.064
 4322TIP3    H234602   5.269   0.339   0.021
 4323TIP3   OH234603   5.317   0.535   0.498
 4323TIP3    H134604   5.343   0.443   0.524
 4323TIP3    H234605   5.402   0.578   0.489
 4324TIP3   OH234606   5.379   0.592   1.047
 4324TIP3    H134607   5.475   0.613   1.047
 4324TIP3    H234608   5.360   0.603   1.142
 4325TIP3   OH234609   5.385   0.664   1.323
 4325TIP3    H134610   5.299   0.692   1.361
 4325TIP3    H234611   5.429   0.750   1.305
 4326TIP3   OH234612   3.810   0.512   1.675
 4326TIP3    H134613   3.905   0.494   1.692
 4326TIP3    H234614   3.770   0.434   1.709
 4327TIP3   OH234615   5.616   0.064   1.859
 4327TIP3    H134616   5.644  -0.000   1.794
 4327TIP3    H234617   5.620   0.149   1.812
 4328TIP3   OH234618   5.381   0.265   0.507
 4328TIP3    H134619   5.403   0.219   0.592
 4328TIP3    H234620   5.323   0.196   0.464
 4329TIP3   OH234621   3.926   0.348   0.964
 4329TIP3    H134622   3.973   0.265   0.989
 4329TIP3    H234623   3.985   0.413   1.003
 4330TIP3   OH234624   3.759   0.645   1.068
 4330TIP3    H134625   3.815   0.620   0.992
 4330TIP3    H234626   3.806   0.725   1.095
 4331TIP3   OH234627   5.565   0.276   1.693
 4331TIP3    H134628   5.472   0.302   1.685
 4331TIP3    H234629   5.571   0.218   1.615
 4332TIP3   OH234630   5.563   0.277   0.158
 4332TIP3    H134631   5.606   0.196   0.119
 4332TIP3    H234632   5.642   0.332   0.164
 4333TIP3   OH234633   3.799   0.266   0.474
 4333TIP3    H134634   3.704   0.286   0.465
 4333TIP3    H234635   3.836   0.320   0.402
 4334TIP3   OH234636   5.269   1.766   0.671
 4334TIP3    H134637   5.337   1.736   0.608
 4334TIP3    H234638   5.320   1.816   0.736
 4335TIP3   OH234639   3.790   0.139   1.305
 4335TIP3    H134640   3.724   0.120   1.373
 4335TIP3    H234641   3.743   0.203   1.249
 4336TIP3   OH234642   4.013   1.458   1.724
 4336TIP3    H134643   3.929   1.477   1.679
 4336TIP3    H234644   3.985   1.451   1.816
 4337TIP3   OH234645   4.303   1.556   1.348
 4337TIP3    H134646   4.271   1.644   1.321
 4337TIP3    H234647   4.396   1.565   1.319
 4338TIP3   OH234648   4.737   1.700   1.641
 4338TIP3    H134649   4.757   1.665   1.730
 4338TIP3    H234650   4.827   1.730   1.614
 4339TIP3   OH234651   4.966   1.828   1.572
 4339TIP3    H134652   5.036   1.767   1.547
 4339TIP3    H234653   5.002   1.868   1.654
 4340TIP3   OH234654   5.468   0.090   1.478
 4340TIP3    H134655   5.384   0.121   1.440
 4340TIP3    H234656   5.484   0.008   1.429
 4341TIP3   OH234657   4.046   1.880   1.346
 4341TIP3    H134658   3.973   1.931   1.308
 4341TIP3    H234659   4.015   1.862   1.436
 4342TIP3   OH234660   4.293   1.838   1.254
 4342TIP3    H134661   4.205   1.854   1.295
 4342TIP3    H234662   4.288   1.897   1.177
 4343TIP3   OH234663   4.764   1.829   1.173
 4343TIP3    H134664   4.718   1.885   1.108
 4343TIP3    H234665   4.777   1.892   1.247
 4344TIP3   OH234666   4.992   1.710   1.276
 4344TIP3    H134667   4.907   1.738   1.238
 4344TIP3    H234668   5.041   1.793   1.267
 4345TIP3   OH234669   5.245   1.866   1.294
 4345TIP3    H134670   5.248   1.963   1.275
 4345TIP3    H234671   5.273   1.829   1.208
 4346TIP3   OH234672   3.993   1.745   1.043
 4346TIP3    H134673   3.984   1.700   1.129
 4346TIP3    H234674   4.074   1.707   1.004
 4347TIP3   OH234675   4.200   1.616   0.908
 4347TIP3    H134676   4.184   1.523   0.931
 4347TIP3    H234677   4.286   1.632   0.953
 4348TIP3   OH234678   4.461   1.665   0.996
 4348TIP3    H134679   4.476   1.573   0.969
 4348TIP3    H234680   4.465   1.659   1.092
 4349TIP3   OH234681   4.803   0.239   0.906
 4349TIP3    H134682   4.741   0.170   0.937
 4349TIP3    H234683   4.866   0.184   0.857
 4350TIP3   OH234684   5.318   0.038   0.918
 4350TIP3    H134685   5.379   0.091   0.863
 4350TIP3    H234686   5.231   0.071   0.893
 4351TIP3   OH234687   5.488   0.163   0.740
 4351TIP3    H134688   5.556   0.102   0.705
 4351TIP3    H234689   5.540   0.244   0.755
 4352TIP3   OH234690   4.048   0.097   0.680
 4352TIP3    H134691   3.960   0.072   0.646
 4352TIP3    H234692   4.083   0.008   0.700
 4353TIP3   OH234693   3.892   0.116   0.210
 4353TIP3    H134694   3.979   0.158   0.199
 4353TIP3    H234695   3.865   0.138   0.300
 4354TIP3   OH234696   4.517   0.128   0.707
 4354TIP3    H134697   4.611   0.126   0.682
 4354TIP3    H234698   4.507   0.061   0.774
 4355TIP3   OH234699   5.042   0.112   0.839
 4355TIP3    H134700   5.055   0.112   0.744
 4355TIP3    H234701   5.032   0.015   0.853
 4356TIP3   OH234702   5.187   0.095   0.410
 4356TIP3    H134703   5.113   0.150   0.384
 4356TIP3    H234704   5.149   0.006   0.416
 4357TIP3   OH234705   3.912   1.664   0.368
 4357TIP3    H134706   3.844   1.663   0.298
 4357TIP3    H234707   3.915   1.759   0.383
 4358TIP3   OH234708   4.103   0.258   0.116
 4358TIP3    H134709   4.156   0.202   0.059
 4358TIP3    H234710   4.168   0.296   0.177
 4359TIP3   OH234711   4.596   0.283   0.362
 4359TIP3    H134712   4.638   0.232   0.433
 4359TIP3    H234713   4.611   0.372   0.402
 4360TIP3   OH234714   4.795   1.824   0.203
 4360TIP3    H134715   4.891   1.821   0.189
 4360TIP3    H234716   4.778   1.749   0.141
 4361TIP3   OH234717   5.468   1.744   0.474
 4361TIP3    H134718   5.448   1.666   0.417
 4361TIP3    H234719   5.459   1.817   0.410
 4362TIP3   OH234720   4.017   0.148   1.636
 4362TIP3    H134721   3.994   0.067   1.682
 4362TIP3    H234722   4.111   0.147   1.668
 4363TIP3   OH234723   4.214   0.101   1.783
 4363TIP3    H134724   4.308   0.082   1.780
 4363TIP3    H234725   4.194   0.025   1.841
 4364TIP3   OH234726   4.094   1.762   0.064
 4364TIP3    H134727   4.064   1.788   0.151
 4364TIP3    H234728   4.170   1.706   0.081
 4365TIP3   OH234729   5.066   7.390   1.816
 4365TIP3    H134730   5.071   7.324   1.888
 4365TIP3    H234731   5.151   7.364   1.777
 4366TIP3   OH234732   5.391   1.618   1.688
 4366TIP3    H134733   5.313   1.604   1.630
 4366TIP3    H234734   5.384   1.714   1.702
 4367TIP3   OH234735   6.837   1.005   0.679
 4367TIP3    H134736   6.836   1.103   0.676
 4367TIP3    H234737   6.764   0.983   0.619
 4368TIP3   OH234738   6.723   0.932   1.029
 4368TIP3    H134739   6.721   0.867   1.102
 4368TIP3    H234740   6.688   0.880   0.954
 4369TIP3   OH234741   5.957   0.900   1.185
 4369TIP3    H134742   5.966   0.831   1.254
 4369TIP3    H234743   6.033   0.957   1.207
 4370TIP3   OH234744   7.093   1.224   0.860
 4370TIP3    H134745   7.050   1.154   0.910
 4370TIP3    H234746   7.099   1.294   0.928
 4371TIP3   OH234747   6.050   1.345   1.034
 4371TIP3    H134748   6.020   1.258   1.004
 4371TIP3    H234749   6.146   1.327   1.039
 4372TIP3   OH234750   5.715   0.699   0.584
 4372TIP3    H134751   5.674   0.788   0.580
 4372TIP3    H234752   5.658   0.647   0.527
 4373TIP3   OH234753   5.786   0.924   0.799
 4373TIP3    H134754   5.813   0.841   0.844
 4373TIP3    H234755   5.855   0.934   0.732
 4374TIP3   OH234756   6.806   1.744   0.882
 4374TIP3    H134757   6.869   1.673   0.853
 4374TIP3    H234758   6.782   1.708   0.968
 4375TIP3   OH234759   6.560   1.171   1.078
 4375TIP3    H134760   6.594   1.109   1.011
 4375TIP3    H234761   6.642   1.188   1.129
 4376TIP3   OH234762   6.875   0.618   1.109
 4376TIP3    H134763   6.894   0.522   1.109
 4376TIP3    H234764   6.866   0.633   1.013
 4377TIP3   OH234765   6.188   0.431   0.830
 4377TIP3    H134766   6.200   0.513   0.779
 4377TIP3    H234767   6.149   0.372   0.763
 4378TIP3   OH234768   6.963   0.436   0.667
 4378TIP3    H134769   7.028   0.404   0.734
 4378TIP3    H234770   7.018   0.492   0.612
 4379TIP3   OH234771   5.850   0.668   0.904
 4379TIP3    H134772   5.918   0.614   0.949
 4379TIP3    H234773   5.861   0.638   0.813
 4380TIP3   OH234774   6.366   0.824   0.836
 4380TIP3    H134775   6.434   0.766   0.874
 4380TIP3    H234776   6.315   0.759   0.784
 4381TIP3   OH234777   6.080   0.321   1.236
 4381TIP3    H134778   6.050   0.374   1.159
 4381TIP3    H234779   6.010   0.341   1.302
 4382TIP3   OH234780   6.805   1.264   0.589
 4382TIP3    H134781   6.782   1.239   0.498
 4382TIP3    H234782   6.777   1.358   0.593
 4383TIP3   OH234783   6.330   1.082   1.258
 4383TIP3    H134784   6.260   1.146   1.280
 4383TIP3    H234785   6.401   1.142   1.228
 4384TIP3   OH234786   7.124   0.367   0.872
 4384TIP3    H134787   7.116   0.289   0.925
 4384TIP3    H234788   7.197   0.415   0.917
 4385TIP3   OH234789   6.035   0.504   1.036
 4385TIP3    H134790   6.099   0.571   1.069
 4385TIP3    H234791   6.089   0.461   0.964
 4386TIP3   OH234792   6.175   1.282   1.339
 4386TIP3    H134793   6.170   1.374   1.306
 4386TIP3    H234794   6.088   1.274   1.385
 4387TIP3   OH234795   5.781   1.243   0.418
 4387TIP3    H134796   5.761   1.278   0.329
 4387TIP3    H234797   5.790   1.326   0.471
 4388TIP3   OH234798   7.136   1.406   1.102
 4388TIP3    H134799   7.039   1.420   1.108
 4388TIP3    H234800   7.168   1.494   1.076
 4389TIP3   OH234801   7.168   0.257   1.231
 4389TIP3    H134802   7.091   0.316   1.220
 4389TIP3    H234803   7.236   0.294   1.174
 4390TIP3   OH234804   6.501   0.071   0.976
 4390TIP3    H134805   6.490  -0.025   0.977
 4390TIP3    H234806   6.410   0.096   1.000
 4391TIP3   OH234807   6.966   1.585   0.754
 4391TIP3    H134808   7.012   1.515   0.704
 4391TIP3    H234809   7.013   1.664   0.719
 4392TIP3   OH234810   7.089   1.379   0.603
 4392TIP3    H134811   7.062   1.309   0.542
 4392TIP3    H234812   7.095   1.330   0.687
 4393TIP3   OH234813   7.230   1.251   1.463
 4393TIP3    H134814   7.261   1.182   1.401
 4393TIP3    H234815   7.271   1.329   1.420
 4394TIP3   OH234816   6.701   0.930   0.429
 4394TIP3    H134817   6.633   0.989   0.391
 4394TIP3    H234818   6.773   0.940   0.364
 4395TIP3   OH234819   6.708   0.784   0.139
 4395TIP3    H134820   6.781   0.785   0.202
 4395TIP3    H234821   6.740   0.720   0.076
 4396TIP3   OH234822   7.047   0.953   0.522
 4396TIP3    H134823   6.974   0.978   0.584
 4396TIP3    H234824   7.094   0.886   0.578
 4397TIP3   OH234825   7.035   0.764   1.435
 4397TIP3    H134826   7.039   0.846   1.487
 4397TIP3    H234827   6.977   0.797   1.364
 4398TIP3   OH234828   6.207   1.017   0.715
 4398TIP3    H134829   6.176   0.978   0.630
 4398TIP3    H234830   6.270   0.949   0.748
 4399TIP3   OH234831   6.340   1.355   0.983
 4399TIP3    H134832   6.340   1.303   0.902
 4399TIP3    H234833   6.419   1.320   1.029
 4400TIP3   OH234834   6.241   0.892   1.082
 4400TIP3    H134835   6.296   0.901   1.001
 4400TIP3    H234836   6.281   0.958   1.142
 4401TIP3   OH234837   6.879   1.449   1.151
 4401TIP3    H134838   6.857   1.513   1.219
 4401TIP3    H234839   6.858   1.363   1.194
 4402TIP3   OH234840   6.337   1.336   1.552
 4402TIP3    H134841   6.293   1.409   1.599
 4402TIP3    H234842   6.270   1.314   1.483
 4403TIP3   OH234843   6.938   0.868   0.288
 4403TIP3    H134844   6.988   0.891   0.370
 4403TIP3    H234845   6.976   0.925   0.219
 4404TIP3   OH234846   6.031   0.951   1.469
 4404TIP3    H134847   6.035   1.017   1.541
 4404TIP3    H234848   5.938   0.960   1.444
 4405TIP3   OH234849   6.705   1.543   0.638
 4405TIP3    H134850   6.749   1.575   0.718
 4405TIP3    H234851   6.650   1.618   0.612
 4406TIP3   OH234852   6.162   1.535   1.626
 4406TIP3    H134853   6.156   1.528   1.529
 4406TIP3    H234854   6.068   1.525   1.651
 4407TIP3   OH234855   7.262   0.047   0.244
 4407TIP3    H134856   7.195   0.063   0.313
 4407TIP3    H234857   7.314   0.126   0.235
 4408TIP3   OH234858   6.104   0.920   0.477
 4408TIP3    H134859   6.077   0.997   0.423
 4408TIP3    H234860   6.040   0.853   0.453
 4409TIP3   OH234861   5.716   1.162   1.364
 4409TIP3    H134862   5.669   1.153   1.279
 4409TIP3    H234863   5.723   1.068   1.389
 4410TIP3   OH234864   5.690   1.436   1.044
 4410TIP3    H134865   5.786   1.425   1.043
 4410TIP3    H234866   5.682   1.518   1.094
 4411TIP3   OH234867   6.611   1.460   1.502
 4411TIP3    H134868   6.615   1.546   1.551
 4411TIP3    H234869   6.523   1.424   1.524
 4412TIP3   OH234870   6.655   1.834   0.478
 4412TIP3    H134871   6.646   1.829   0.381
 4412TIP3    H234872   6.659   1.930   0.495
 4413TIP3   OH234873   6.019   1.723   0.661
 4413TIP3    H134874   6.033   1.681   0.749
 4413TIP3    H234875   5.934   1.682   0.637
 4414TIP3   OH234876   6.962   1.755   0.175
 4414TIP3    H134877   7.005   1.677   0.134
 4414TIP3    H234878   6.963   1.730   0.269
 4415TIP3   OH234879   6.928   1.750   0.455
 4415TIP3    H134880   6.832   1.756   0.474
 4415TIP3    H234881   6.954   1.676   0.512
 4416TIP3   OH234882   7.198   0.665   1.666
 4416TIP3    H134883   7.177   0.702   1.579
 4416TIP3    H234884   7.234   0.577   1.639
 4417TIP3   OH234885   5.944   1.292   1.460
 4417TIP3    H134886   5.965   1.258   1.550
 4417TIP3    H234887   5.856   1.254   1.440
 4418TIP3   OH234888   6.207   0.158   1.061
 4418TIP3    H134889   6.120   0.138   1.020
 4418TIP3    H234890   6.188   0.239   1.110
 4419TIP3   OH234891   6.672   0.106   1.395
 4419TIP3    H134892   6.711   0.070   1.475
 4419TIP3    H234893   6.576   0.099   1.411
 4420TIP3   OH234894   7.000   0.488   1.476
 4420TIP3    H134895   6.948   0.473   1.558
 4420TIP3    H234896   6.988   0.584   1.460
 4421TIP3   OH234897   7.091   0.974   0.074
 4421TIP3    H134898   7.087   0.963  -0.022
 4421TIP3    H234899   7.171   1.027   0.083
 4422TIP3   OH234900   6.641   0.364   0.127
 4422TIP3    H134901   6.610   0.362   0.219
 4422TIP3    H234902   6.614   0.276   0.097
 4423TIP3   OH234903   6.222   0.639   1.182
 4423TIP3    H134904   6.148   0.638   1.245
 4423TIP3    H234905   6.217   0.730   1.144
 4424TIP3   OH234906   6.218   0.649   0.668
 4424TIP3    H134907   6.124   0.625   0.654
 4424TIP3    H234908   6.255   0.621   0.582
 4425TIP3   OH234909   6.772   0.701   0.541
 4425TIP3    H134910   6.731   0.784   0.508
 4425TIP3    H234911   6.840   0.684   0.474
 4426TIP3   OH234912   6.676   0.723   1.689
 4426TIP3    H134913   6.624   0.645   1.719
 4426TIP3    H234914   6.759   0.709   1.737
 4427TIP3   OH234915   6.873   0.653   0.830
 4427TIP3    H134916   6.845   0.707   0.755
 4427TIP3    H234917   6.882   0.567   0.784
 4428TIP3   OH234918   5.983   0.663   1.348
 4428TIP3    H134919   5.993   0.706   1.435
 4428TIP3    H234920   5.940   0.579   1.370
 4429TIP3   OH234921   6.337   0.425   0.066
 4429TIP3    H134922   6.282   0.363   0.118
 4429TIP3    H234923   6.277   0.465   0.003
 4430TIP3   OH234924   5.651   0.379   0.743
 4430TIP3    H134925   5.717   0.373   0.816
 4430TIP3    H234926   5.696   0.336   0.670
 4431TIP3   OH234927   5.777   0.449   0.286
 4431TIP3    H134928   5.830   0.505   0.224
 4431TIP3    H234929   5.714   0.513   0.320
 4432TIP3   OH234930   6.793   0.807   1.283
 4432TIP3    H134931   6.832   0.738   1.225
 4432TIP3    H234932   6.746   0.755   1.351
 4433TIP3   OH234933   6.473   0.406   0.767
 4433TIP3    H134934   6.380   0.401   0.797
 4433TIP3    H234935   6.521   0.391   0.849
 4434TIP3   OH234936   5.956   0.558   0.655
 4434TIP3    H134937   5.868   0.577   0.617
 4434TIP3    H234938   5.983   0.473   0.615
 4435TIP3   OH234939   6.318   0.565   0.415
 4435TIP3    H134940   6.413   0.579   0.435
 4435TIP3    H234941   6.294   0.633   0.349
 4436TIP3   OH234942   6.910   0.329   1.090
 4436TIP3    H134943   6.842   0.333   1.160
 4436TIP3    H234944   6.860   0.306   1.010
 4437TIP3   OH234945   6.188   0.683   0.178
 4437TIP3    H134946   6.133   0.648   0.105
 4437TIP3    H234947   6.271   0.705   0.131
 4438TIP3   OH234948   7.230   1.895   1.727
 4438TIP3    H134949   7.258   1.929   1.640
 4438TIP3    H234950   7.304   1.924   1.779
 4439TIP3   OH234951   6.001   1.142   1.685
 4439TIP3    H134952   6.074   1.165   1.744
 4439TIP3    H234953   5.925   1.153   1.747
 4440TIP3   OH234954   6.602   0.680   0.956
 4440TIP3    H134955   6.663   0.624   0.905
 4440TIP3    H234956   6.586   0.627   1.035
 4441TIP3   OH234957   6.101   0.300   0.600
 4441TIP3    H134958   6.067   0.209   0.603
 4441TIP3    H234959   6.180   0.290   0.545
 4442TIP3   OH234960   6.465   0.513   1.198
 4442TIP3    H134961   6.383   0.566   1.207
 4442TIP3    H234962   6.521   0.549   1.270
 4443TIP3   OH234963   6.524   1.134   0.371
 4443TIP3    H134964   6.444   1.089   0.337
 4443TIP3    H234965   6.501   1.148   0.465
 4444TIP3   OH234966   7.228   1.062   1.249
 4444TIP3    H134967   7.292   1.080   1.177
 4444TIP3    H234968   7.146   1.059   1.197
 4445TIP3   OH234969   6.909   0.418   0.185
 4445TIP3    H134970   6.815   0.432   0.168
 4445TIP3    H234971   6.936   0.505   0.219
 4446TIP3   OH234972   6.676   1.162   1.493
 4446TIP3    H134973   6.639   1.120   1.571
 4446TIP3    H234974   6.649   1.254   1.502
 4447TIP3   OH234975   6.981   0.610   0.346
 4447TIP3    H134976   7.067   0.598   0.391
 4447TIP3    H234977   6.988   0.696   0.302
 4448TIP3   OH234978   6.035   1.076   0.948
 4448TIP3    H134979   6.103   1.068   0.879
 4448TIP3    H234980   6.041   0.990   0.994
 4449TIP3   OH234981   6.733   1.284   0.276
 4449TIP3    H134982   6.695   1.368   0.308
 4449TIP3    H234983   6.660   1.220   0.293
 4450TIP3   OH234984   5.733   0.916   1.474
 4450TIP3    H134985   5.751   0.872   1.559
 4450TIP3    H234986   5.670   0.855   1.431
 4451TIP3   OH234987   6.435   0.872   1.692
 4451TIP3    H134988   6.403   0.841   1.605
 4451TIP3    H234989   6.527   0.841   1.692
 4452TIP3   OH234990   6.902   1.403   1.490
 4452TIP3    H134991   6.811   1.423   1.463
 4452TIP3    H234992   6.901   1.437   1.580
 4453TIP3   OH234993   7.288   1.506   0.366
 4453TIP3    H134994   7.259   1.422   0.401
 4453TIP3    H234995   7.328   1.488   0.281
 4454TIP3   OH234996   7.014   0.985   1.079
 4454TIP3    H134997   6.920   0.964   1.063
 4454TIP3    H234998   7.061   0.913   1.034
 4455TIP3   OH234999   6.272   1.422   0.687
 4455TIP3    H135000   6.322   1.502   0.666
 4455TIP3    H235001   6.184   1.445   0.654
 4456TIP3   OH235002   5.844   0.906   0.141
 4456TIP3    H135003   5.907   0.968   0.181
 4456TIP3    H235004   5.758   0.938   0.173
 4457TIP3   OH235005   6.413   1.188   0.639
 4457TIP3    H135006   6.382   1.280   0.647
 4457TIP3    H235007   6.342   1.138   0.683
 4458TIP3   OH235008   6.459   1.607   1.280
 4458TIP3    H135009   6.505   1.687   1.251
 4458TIP3    H235010   6.521   1.572   1.346
 4459TIP3   OH235011   6.283   1.687   0.591
 4459TIP3    H135012   6.186   1.701   0.606
 4459TIP3    H235013   6.318   1.771   0.626
 4460TIP3   OH235014   6.812   1.205   1.242
 4460TIP3    H135015   6.779   1.186   1.332
 4460TIP3    H235016   6.875   1.134   1.225
 4461TIP3   OH235017   7.041   1.310   0.154
 4461TIP3    H135018   7.069   1.265   0.236
 4461TIP3    H235019   6.945   1.296   0.160
 4462TIP3   OH235020   7.088   1.668   1.492
 4462TIP3    H135021   7.023   1.616   1.441
 4462TIP3    H235022   7.113   1.734   1.424
 4463TIP3   OH235023   5.899   0.389   1.434
 4463TIP3    H135024   5.808   0.422   1.425
 4463TIP3    H235025   5.886   0.300   1.471
 4464TIP3   OH235026   7.123   1.174   0.376
 4464TIP3    H135027   7.097   1.094   0.428
 4464TIP3    H235028   7.217   1.182   0.399
 4465TIP3   OH235029   5.860   1.568   1.272
 4465TIP3    H135030   5.891   1.476   1.274
 4465TIP3    H235031   5.884   1.600   1.360
 4466TIP3   OH235032   6.335   1.377   0.243
 4466TIP3    H135033   6.362   1.321   0.317
 4466TIP3    H235034   6.344   1.468   0.279
 4467TIP3   OH235035   5.983   1.100   0.287
 4467TIP3    H135036   5.918   1.140   0.349
 4467TIP3    H235037   6.041   1.175   0.267
 4468TIP3   OH235038   6.770   0.363   1.328
 4468TIP3    H135039   6.846   0.373   1.388
 4468TIP3    H235040   6.737   0.273   1.345
 4469TIP3   OH235041   6.850   0.323   0.436
 4469TIP3    H135042   6.869   0.372   0.353
 4469TIP3    H235043   6.901   0.372   0.501
 4470TIP3   OH235044   6.615   1.542   0.318
 4470TIP3    H135045   6.533   1.594   0.323
 4470TIP3    H235046   6.669   1.591   0.254
 4471TIP3   OH235047   6.569   0.495   0.515
 4471TIP3    H135048   6.646   0.555   0.517
 4471TIP3    H235049   6.543   0.487   0.609
 4472TIP3   OH235050   6.628   0.602   1.434
 4472TIP3    H135051   6.635   0.656   1.516
 4472TIP3    H235052   6.692   0.531   1.444
 4473TIP3   OH235053   6.653   0.203   0.610
 4473TIP3    H135054   6.623   0.272   0.671
 4473TIP3    H235055   6.719   0.255   0.558
 4474TIP3   OH235056   6.353   1.645   0.320
 4474TIP3    H135057   6.369   1.727   0.269
 4474TIP3    H235058   6.327   1.680   0.409
 4475TIP3   OH235059   6.222   0.312   0.279
 4475TIP3    H135060   6.214   0.403   0.312
 4475TIP3    H235061   6.314   0.296   0.306
 4476TIP3   OH235062   7.244   0.383   1.515
 4476TIP3    H135063   7.152   0.418   1.507
 4476TIP3    H235064   7.273   0.387   1.423
 4477TIP3   OH235065   7.106   0.768   0.926
 4477TIP3    H135066   7.023   0.726   0.894
 4477TIP3    H235067   7.145   0.694   0.974
 4478TIP3   OH235068   6.044   1.361   0.180
 4478TIP3    H135069   6.111   1.422   0.213
 4478TIP3    H235070   6.096   1.312   0.112
 4479TIP3   OH235071   5.882   0.628   0.104
 4479TIP3    H135072   5.883   0.725   0.110
 4479TIP3    H235073   5.798   0.609   0.060
 4480TIP3   OH235074   7.215   1.694   1.088
 4480TIP3    H135075   7.198   1.763   1.021
 4480TIP3    H235076   7.309   1.703   1.106
 4481TIP3   OH235077   5.938   0.120   0.970
 4481TIP3    H135078   5.941   0.110   0.873
 4481TIP3    H235079   5.929   0.026   0.994
 4482TIP3   OH235080   5.855   1.498   0.583
 4482TIP3    H135081   5.769   1.542   0.579
 4482TIP3    H235082   5.902   1.544   0.512
 4483TIP3   OH235083   5.787   1.756   1.704
 4483TIP3    H135084   5.835   1.746   1.787
 4483TIP3    H235085   5.730   1.679   1.697
 4484TIP3   OH235086   6.246   1.657   1.870
 4484TIP3    H135087   6.315   1.600   1.904
 4484TIP3    H235088   6.236   1.625   1.778
 4485TIP3   OH235089   6.695   1.610   0.071
 4485TIP3    H135090   6.611   1.563   0.061
 4485TIP3    H235091   6.745   1.566   0.002
 4486TIP3   OH235092   6.897   1.493   1.746
 4486TIP3    H135093   6.860   1.406   1.771
 4486TIP3    H235094   6.974   1.509   1.803
 4487TIP3   OH235095   7.109   1.579   0.030
 4487TIP3    H135096   7.138   1.501   0.080
 4487TIP3    H235097   7.188   1.609  -0.017
 4488TIP3   OH235098   5.767   1.135   1.810
 4488TIP3    H135099   5.784   1.048   1.771
 4488TIP3    H235100   5.695   1.169   1.752
 4489TIP3   OH235101   6.211   1.182   0.027
 4489TIP3    H135102   6.216   1.099   0.074
 4489TIP3    H235103   6.265   1.159  -0.051
 4490TIP3   OH235104   6.443   1.138   1.750
 4490TIP3    H135105   6.405   1.171   1.666
 4490TIP3    H235106   6.444   1.041   1.739
 4491TIP3   OH235107   7.005   1.122   1.488
 4491TIP3    H135108   7.084   1.181   1.478
 4491TIP3    H235109   6.937   1.191   1.492
 4492TIP3   OH235110   5.860   0.863   1.751
 4492TIP3    H135111   5.900   0.777   1.736
 4492TIP3    H235112   5.832   0.861   1.842
 4493TIP3   OH235113   6.324   0.978   0.256
 4493TIP3    H135114   6.272   0.925   0.318
 4493TIP3    H235115   6.354   0.909   0.192
 4494TIP3   OH235116   6.248   0.757   1.484
 4494TIP3    H135117   6.189   0.830   1.509
 4494TIP3    H235118   6.289   0.794   1.404
 4495TIP3   OH235119   6.431   0.801   0.075
 4495TIP3    H135120   6.420   0.780  -0.019
 4495TIP3    H235121   6.529   0.808   0.086
 4496TIP3   OH235122   6.756   1.018   1.831
 4496TIP3    H135123   6.847   1.008   1.799
 4496TIP3    H235124   6.738   0.933   1.875
 4497TIP3   OH235125   6.287   0.497   1.592
 4497TIP3    H135126   6.301   0.425   1.528
 4497TIP3    H235127   6.284   0.576   1.536
 4498TIP3   OH235128   6.331   0.334   1.345
 4498TIP3    H135129   6.381   0.382   1.275
 4498TIP3    H235130   6.241   0.323   1.306
 4499TIP3   OH235131   6.483   0.882   1.371
 4499TIP3    H135132   6.558   0.865   1.313
 4499TIP3    H235133   6.447   0.965   1.336
 4500TIP3   OH235134   6.924   0.658   1.871
 4500TIP3    H135135   6.946   0.565   1.858
 4500TIP3    H235136   7.012   0.698   1.865
 4501TIP3   OH235137   7.051   0.941   1.683
 4501TIP3    H135138   7.031   1.010   1.617
 4501TIP3    H235139   7.148   0.932   1.665
 4502TIP3   OH235140   6.131   0.618   1.786
 4502TIP3    H135141   6.057   0.559   1.761
 4502TIP3    H235142   6.199   0.586   1.722
 4503TIP3   OH235143   6.401   0.091   1.404
 4503TIP3    H135144   6.391   0.187   1.382
 4503TIP3    H235145   6.335   0.052   1.344
 4504TIP3   OH235146   6.536   0.510   1.745
 4504TIP3    H135147   6.506   0.483   1.835
 4504TIP3    H235148   6.456   0.487   1.694
 4505TIP3   OH235149   6.806   0.431   1.660
 4505TIP3    H135150   6.709   0.427   1.671
 4505TIP3    H235151   6.837   0.363   1.723
 4506TIP3   OH235152   6.972   0.295   1.849
 4506TIP3    H135153   6.959   0.196   1.845
 4506TIP3    H235154   6.941   0.316   1.940
 4507TIP3   OH235155   5.947   0.411   1.759
 4507TIP3    H135156   5.971   0.341   1.695
 4507TIP3    H235157   5.941   0.359   1.841
 4508TIP3   OH235158   6.424   7.352   1.656
 4508TIP3    H135159   6.499   7.292   1.667
 4508TIP3    H235160   6.424   7.379   1.562
 4509TIP3   OH235161   6.413   1.868   0.177
 4509TIP3    H135162   6.510   1.878   0.190
 4509TIP3    H235163   6.396   1.935   0.111
 4510TIP3   OH235164   5.772   1.328   0.129
 4510TIP3    H135165   5.867   1.336   0.151
 4510TIP3    H235166   5.775   1.269   0.052
 4511TIP3   OH235167   5.646   1.865   0.627
 4511TIP3    H135168   5.575   1.816   0.581
 4511TIP3    H235169   5.674   1.799   0.693
 4512TIP3   OH235170   5.730   1.677   0.814
 4512TIP3    H135171   5.693   1.590   0.835
 4512TIP3    H235172   5.753   1.711   0.902
 4513TIP3   OH235173   7.280   1.481   1.333
 4513TIP3    H135174   7.214   1.527   1.386
 4513TIP3    H235175   7.227   1.449   1.256
 4514TIP3   OH235176   7.307   0.639   0.094
 4514TIP3    H135177   7.330   0.703   0.025
 4514TIP3    H235178   7.292   0.554   0.049
 4515TIP3   OH235179   7.197   0.782   0.661
 4515TIP3    H135180   7.212   0.687   0.664
 4515TIP3    H235181   7.196   0.804   0.755
 4516TIP3   OH235182   5.734   0.986   1.064
 4516TIP3    H135183   5.752   0.978   0.968
 4516TIP3    H235184   5.824   0.968   1.099
 4517TIP3   OH235185  -0.033   0.980   1.659
 4517TIP3    H135186   0.023   0.900   1.653
 4517TIP3    H235187   0.021   1.049   1.616
 4518TIP3   OH235188   7.233   0.386   0.015
 4518TIP3    H135189   7.298   0.338   0.067
 4518TIP3    H235190   7.152   0.334   0.023
 4519TIP3   OH235191   7.199   0.531   0.493
 4519TIP3    H135192   7.228   0.445   0.528
 4519TIP3    H235193   7.278   0.568   0.454
 4520TIP3   OH235194   7.222   0.540   1.041
 4520TIP3    H135195   7.317   0.551   1.026
 4520TIP3    H235196   7.224   0.587   1.126
 4521TIP3   OH235197   7.269   0.663   1.339
 4521TIP3    H135198   7.179   0.693   1.359
 4521TIP3    H235199   7.310   0.740   1.296
 4522TIP3   OH235200   5.698   0.516   1.683
 4522TIP3    H135201   5.791   0.490   1.696
 4522TIP3    H235202   5.652   0.433   1.703
 4523TIP3   OH235203   7.189   0.249   0.560
 4523TIP3    H135204   7.272   0.214   0.596
 4523TIP3    H235205   7.181   0.193   0.479
 4524TIP3   OH235206   5.813   0.348   0.963
 4524TIP3    H135207   5.859   0.265   0.989
 4524TIP3    H235208   5.871   0.413   1.003
 4525TIP3   OH235209   5.644   0.645   1.068
 4525TIP3    H135210   5.701   0.620   0.993
 4525TIP3    H235211   5.691   0.725   1.095
 4526TIP3   OH235212   5.683   0.268   0.473
 4526TIP3    H135213   5.588   0.285   0.464
 4526TIP3    H235214   5.722   0.320   0.401
 4527TIP3   OH235215   7.142   1.754   0.676
 4527TIP3    H135216   7.207   1.719   0.615
 4527TIP3    H235217   7.197   1.810   0.734
 4528TIP3   OH235218   5.675   0.140   1.304
 4528TIP3    H135219   5.609   0.121   1.372
 4528TIP3    H235220   5.629   0.204   1.247
 4529TIP3   OH235221   5.900   1.459   1.719
 4529TIP3    H135222   5.815   1.478   1.678
 4529TIP3    H235223   5.875   1.453   1.813
 4530TIP3   OH235224   6.189   1.555   1.345
 4530TIP3    H135225   6.157   1.644   1.321
 4530TIP3    H235226   6.283   1.565   1.319
 4531TIP3   OH235227   6.623   1.700   1.643
 4531TIP3    H135228   6.644   1.662   1.729
 4531TIP3    H235229   6.712   1.731   1.613
 4532TIP3   OH235230   6.851   1.825   1.574
 4532TIP3    H135231   6.926   1.770   1.545
 4532TIP3    H235232   6.891   1.873   1.650
 4533TIP3   OH235233   5.929   1.880   1.346
 4533TIP3    H135234   5.856   1.933   1.312
 4533TIP3    H235235   5.902   1.868   1.439
 4534TIP3   OH235236   6.177   1.839   1.256
 4534TIP3    H135237   6.088   1.856   1.295
 4534TIP3    H235238   6.174   1.897   1.178
 4535TIP3   OH235239   6.650   1.829   1.172
 4535TIP3    H135240   6.604   1.885   1.108
 4535TIP3    H235241   6.662   1.892   1.247
 4536TIP3   OH235242   6.880   1.709   1.276
 4536TIP3    H135243   6.794   1.737   1.239
 4536TIP3    H235244   6.925   1.795   1.268
 4537TIP3   OH235245   7.135   1.872   1.299
 4537TIP3    H135246   7.127   1.966   1.274
 4537TIP3    H235247   7.161   1.832   1.214
 4538TIP3   OH235248   5.879   1.746   1.043
 4538TIP3    H135249   5.870   1.699   1.128
 4538TIP3    H235250   5.959   1.707   1.003
 4539TIP3   OH235251   6.086   1.616   0.908
 4539TIP3    H135252   6.069   1.523   0.931
 4539TIP3    H235253   6.171   1.632   0.953
 4540TIP3   OH235254   6.343   1.665   0.995
 4540TIP3    H135255   6.361   1.573   0.969
 4540TIP3    H235256   6.350   1.660   1.092
 4541TIP3   OH235257   6.689   0.239   0.905
 4541TIP3    H135258   6.627   0.170   0.937
 4541TIP3    H235259   6.752   0.184   0.857
 4542TIP3   OH235260   7.193   0.047   0.932
 4542TIP3    H135261   7.259   0.085   0.872
 4542TIP3    H235262   7.110   0.073   0.893
 4543TIP3   OH235263   5.933   0.097   0.680
 4543TIP3    H135264   5.845   0.072   0.646
 4543TIP3    H235265   5.968   0.009   0.699
 4544TIP3   OH235266   5.777   0.115   0.209
 4544TIP3    H135267   5.864   0.159   0.199
 4544TIP3    H235268   5.752   0.136   0.300
 4545TIP3   OH235269   6.402   0.129   0.707
 4545TIP3    H135270   6.496   0.126   0.681
 4545TIP3    H235271   6.392   0.061   0.774
 4546TIP3   OH235272   6.930   0.110   0.838
 4546TIP3    H135273   6.942   0.114   0.743
 4546TIP3    H235274   6.919   0.013   0.851
 4547TIP3   OH235275   7.064   0.086   0.401
 4547TIP3    H135276   6.994   0.151   0.384
 4547TIP3    H235277   7.022   0.002   0.417
 4548TIP3   OH235278   5.797   1.664   0.368
 4548TIP3    H135279   5.729   1.663   0.298
 4548TIP3    H235280   5.800   1.759   0.383
 4549TIP3   OH235281   5.989   0.258   0.116
 4549TIP3    H135282   6.041   0.203   0.058
 4549TIP3    H235283   6.055   0.296   0.177
 4550TIP3   OH235284   6.482   0.283   0.362
 4550TIP3    H135285   6.521   0.230   0.433
 4550TIP3    H235286   6.497   0.371   0.403
 4551TIP3   OH235287   6.682   1.824   0.202
 4551TIP3    H135288   6.779   1.821   0.189
 4551TIP3    H235289   6.663   1.749   0.140
 4552TIP3   OH235290   5.914   0.148   1.644
 4552TIP3    H135291   5.879   0.067   1.681
 4552TIP3    H235292   6.008   0.141   1.672
 4553TIP3   OH235293   6.125   0.094   1.791
 4553TIP3    H135294   6.215   0.062   1.769
 4553TIP3    H235295   6.086   0.014   1.827
 4554TIP3   OH235296   5.980   1.762   0.064
 4554TIP3    H135297   5.949   1.788   0.151
 4554TIP3    H235298   6.055   1.706   0.081
 4555TIP3   OH235299   6.953   7.384   1.813
 4555TIP3    H135300   6.954   7.321   1.889
 4555TIP3    H235301   7.038   7.358   1.776
 4556TIP3   OH235302   7.265   1.615   1.696
 4556TIP3    H135303   7.200   1.603   1.624
 4556TIP3    H235304   7.259   1.714   1.699
 4557TIP3   OH235305   1.181   2.893   0.679
 4557TIP3    H135306   1.179   2.991   0.676
 4557TIP3    H235307   1.108   2.869   0.620
 4558TIP3   OH235308   1.066   2.817   1.029
 4558TIP3    H135309   1.065   2.753   1.101
 4558TIP3    H235310   1.030   2.767   0.955
 4559TIP3   OH235311   0.305   2.785   1.182
 4559TIP3    H135312   0.310   2.716   1.252
 4559TIP3    H235313   0.378   2.843   1.207
 4560TIP3   OH235314   1.434   3.112   0.859
 4560TIP3    H135315   1.393   3.040   0.908
 4560TIP3    H235316   1.437   3.183   0.926
 4561TIP3   OH235317   0.389   3.230   1.036
 4561TIP3    H135318   0.359   3.143   1.004
 4561TIP3    H235319   0.485   3.212   1.039
 4562TIP3   OH235320   0.079   2.589   0.557
 4562TIP3    H135321   0.028   2.668   0.587
 4562TIP3    H235322   0.006   2.531   0.544
 4563TIP3   OH235323   0.126   2.803   0.794
 4563TIP3    H135324   0.154   2.726   0.846
 4563TIP3    H235325   0.200   2.817   0.734
 4564TIP3   OH235326   1.147   3.629   0.882
 4564TIP3    H135327   1.211   3.560   0.853
 4564TIP3    H235328   1.124   3.594   0.969
 4565TIP3   OH235329   0.903   3.057   1.078
 4565TIP3    H135330   0.937   2.995   1.011
 4565TIP3    H235331   0.985   3.073   1.129
 4566TIP3   OH235332   1.764   2.222   1.147
 4566TIP3    H135333   1.780   2.280   1.224
 4566TIP3    H235334   1.821   2.267   1.083
 4567TIP3   OH235335   1.220   2.504   1.109
 4567TIP3    H135336   1.237   2.408   1.109
 4567TIP3    H235337   1.210   2.518   1.013
 4568TIP3   OH235338   0.533   2.313   0.830
 4568TIP3    H135339   0.543   2.396   0.781
 4568TIP3    H235340   0.492   2.256   0.761
 4569TIP3   OH235341   1.309   2.317   0.661
 4569TIP3    H135342   1.369   2.290   0.735
 4569TIP3    H235343   1.363   2.383   0.617
 4570TIP3   OH235344   0.196   2.552   0.895
 4570TIP3    H135345   0.263   2.502   0.946
 4570TIP3    H235346   0.212   2.518   0.805
 4571TIP3   OH235347   0.709   2.710   0.836
 4571TIP3    H135348   0.777   2.652   0.874
 4571TIP3    H235349   0.658   2.644   0.784
 4572TIP3   OH235350   1.804   2.362   1.378
 4572TIP3    H135351   1.749   2.442   1.364
 4572TIP3    H235352   1.814   2.359   1.473
 4573TIP3   OH235353   0.423   2.203   1.234
 4573TIP3    H135354   0.395   2.260   1.159
 4573TIP3    H235355   0.354   2.226   1.301
 4574TIP3   OH235356   1.150   3.151   0.588
 4574TIP3    H135357   1.123   3.124   0.499
 4574TIP3    H235358   1.121   3.245   0.593
 4575TIP3   OH235359   0.676   2.967   1.258
 4575TIP3    H135360   0.603   3.030   1.280
 4575TIP3    H235361   0.745   3.028   1.228
 4576TIP3   OH235362   1.488   2.255   0.862
 4576TIP3    H135363   1.462   2.182   0.918
 4576TIP3    H235364   1.552   2.301   0.918
 4577TIP3   OH235365   0.378   2.385   1.038
 4577TIP3    H135366   0.437   2.456   1.070
 4577TIP3    H235367   0.433   2.348   0.964
 4578TIP3   OH235368   0.517   3.168   1.336
 4578TIP3    H135369   0.512   3.261   1.306
 4578TIP3    H235370   0.430   3.160   1.383
 4579TIP3   OH235371   0.127   3.135   0.416
 4579TIP3    H135372   0.105   3.166   0.326
 4579TIP3    H235373   0.133   3.215   0.472
 4580TIP3   OH235374   1.488   3.297   1.096
 4580TIP3    H135375   1.391   3.308   1.107
 4580TIP3    H235376   1.514   3.388   1.074
 4581TIP3   OH235377   1.520   2.124   1.236
 4581TIP3    H135378   1.447   2.186   1.221
 4581TIP3    H235379   1.591   2.167   1.182
 4582TIP3   OH235380   0.816   1.938   0.979
 4582TIP3    H135381   0.802   1.841   0.973
 4582TIP3    H235382   0.728   1.967   1.011
 4583TIP3   OH235383   1.314   3.474   0.754
 4583TIP3    H135384   1.356   3.403   0.703
 4583TIP3    H235385   1.358   3.553   0.716
 4584TIP3   OH235386   1.435   3.267   0.605
 4584TIP3    H135387   1.405   3.198   0.543
 4584TIP3    H235388   1.438   3.218   0.689
 4585TIP3   OH235389   1.598   3.127   1.456
 4585TIP3    H135390   1.609   3.060   1.385
 4585TIP3    H235391   1.615   3.211   1.409
 4586TIP3   OH235392   1.045   2.815   0.429
 4586TIP3    H135393   0.976   2.874   0.391
 4586TIP3    H235394   1.116   2.826   0.364
 4587TIP3   OH235395   1.049   2.668   0.141
 4587TIP3    H135396   1.124   2.671   0.203
 4587TIP3    H235397   1.082   2.608   0.075
 4588TIP3   OH235398   1.785   2.758   1.257
 4588TIP3    H135399   1.720   2.831   1.263
 4588TIP3    H235400   1.835   2.783   1.177
 4589TIP3   OH235401   1.388   2.832   0.524
 4589TIP3    H135402   1.316   2.861   0.585
 4589TIP3    H235403   1.439   2.771   0.579
 4590TIP3   OH235404   1.383   2.651   1.436
 4590TIP3    H135405   1.385   2.733   1.490
 4590TIP3    H235406   1.321   2.682   1.368
 4591TIP3   OH235407   0.554   2.903   0.715
 4591TIP3    H135408   0.518   2.863   0.633
 4591TIP3    H235409   0.614   2.833   0.749
 4592TIP3   OH235410   0.684   3.240   0.983
 4592TIP3    H135411   0.684   3.189   0.902
 4592TIP3    H235412   0.762   3.205   1.029
 4593TIP3   OH235413   0.586   2.778   1.082
 4593TIP3    H135414   0.640   2.787   1.001
 4593TIP3    H235415   0.624   2.845   1.142
 4594TIP3   OH235416   1.227   3.335   1.153
 4594TIP3    H135417   1.198   3.399   1.218
 4594TIP3    H235418   1.201   3.249   1.194
 4595TIP3   OH235419   0.680   3.220   1.554
 4595TIP3    H135420   0.639   3.298   1.598
 4595TIP3    H235421   0.614   3.200   1.482
 4596TIP3   OH235422   1.283   2.750   0.289
 4596TIP3    H135423   1.331   2.778   0.371
 4596TIP3    H235424   1.318   2.811   0.221
 4597TIP3   OH235425   0.378   2.838   1.472
 4597TIP3    H135426   0.380   2.907   1.540
 4597TIP3    H235427   0.285   2.845   1.442
 4598TIP3   OH235428   1.049   3.429   0.639
 4598TIP3    H135429   1.093   3.461   0.718
 4598TIP3    H235430   0.994   3.504   0.612
 4599TIP3   OH235431   0.504   3.424   1.627
 4599TIP3    H135432   0.499   3.413   1.530
 4599TIP3    H235433   0.411   3.408   1.651
 4600TIP3   OH235434   1.650   1.931   0.282
 4600TIP3    H135435   1.554   1.939   0.303
 4600TIP3    H235436   1.672   2.015   0.238
 4601TIP3   OH235437   0.451   2.805   0.474
 4601TIP3    H135438   0.422   2.883   0.424
 4601TIP3    H235439   0.383   2.740   0.453
 4602TIP3   OH235440   1.760   3.364   0.117
 4602TIP3    H135441   1.773   3.460   0.129
 4602TIP3    H235442   1.853   3.335   0.111
 4603TIP3   OH235443   0.101   3.039   1.345
 4603TIP3    H135444   0.029   3.044   1.280
 4603TIP3    H235445   0.074   2.954   1.385
 4604TIP3   OH235446   0.051   3.338   1.025
 4604TIP3    H135447   0.139   3.305   1.045
 4604TIP3    H235448   0.032   3.396   1.099
 4605TIP3   OH235449   1.860   3.390   1.609
 4605TIP3    H135450   1.841   3.294   1.612
 4605TIP3    H235451   1.775   3.418   1.654
 4606TIP3   OH235452   0.955   3.345   1.501
 4606TIP3    H135453   0.959   3.429   1.550
 4606TIP3    H235454   0.866   3.309   1.522
 4607TIP3   OH235455   0.996   3.720   0.478
 4607TIP3    H135456   0.989   3.715   0.381
 4607TIP3    H235457   1.001   3.816   0.496
 4608TIP3   OH235458   0.362   3.608   0.660
 4608TIP3    H135459   0.376   3.566   0.747
 4608TIP3    H235460   0.279   3.566   0.634
 4609TIP3   OH235461   1.291   3.634   0.176
 4609TIP3    H135462   1.349   3.568   0.134
 4609TIP3    H235463   1.310   3.618   0.270
 4610TIP3   OH235464   1.271   3.634   0.457
 4610TIP3    H135465   1.176   3.642   0.474
 4610TIP3    H235466   1.296   3.559   0.514
 4611TIP3   OH235467   1.567   2.532   1.665
 4611TIP3    H135468   1.529   2.589   1.594
 4611TIP3    H235469   1.575   2.447   1.623
 4612TIP3   OH235470   0.287   3.184   1.462
 4612TIP3    H135471   0.303   3.143   1.549
 4612TIP3    H235472   0.202   3.142   1.435
 4613TIP3   OH235473   0.556   2.029   1.054
 4613TIP3    H135474   0.466   2.016   1.018
 4613TIP3    H235475   0.541   2.110   1.104
 4614TIP3   OH235476   1.021   1.995   1.395
 4614TIP3    H135477   1.057   1.949   1.473
 4614TIP3    H235478   0.923   1.983   1.406
 4615TIP3   OH235479   1.348   2.377   1.485
 4615TIP3    H135480   1.283   2.362   1.557
 4615TIP3    H235481   1.332   2.470   1.458
 4616TIP3   OH235482   1.430   2.865   0.075
 4616TIP3    H135483   1.432   2.846  -0.020
 4616TIP3    H235484   1.517   2.908   0.086
 4617TIP3   OH235485   0.989   2.250   0.129
 4617TIP3    H135486   0.948   2.246   0.218
 4617TIP3    H235487   0.955   2.165   0.096
 4618TIP3   OH235488   0.565   2.525   1.182
 4618TIP3    H135489   0.492   2.523   1.245
 4618TIP3    H235490   0.558   2.615   1.144
 4619TIP3   OH235491   0.562   2.535   0.668
 4619TIP3    H135492   0.468   2.511   0.654
 4619TIP3    H235493   0.599   2.507   0.582
 4620TIP3   OH235494   1.114   2.584   0.542
 4620TIP3    H135495   1.072   2.668   0.511
 4620TIP3    H235496   1.182   2.572   0.474
 4621TIP3   OH235497   1.021   2.609   1.689
 4621TIP3    H135498   0.967   2.532   1.718
 4621TIP3    H235499   1.104   2.597   1.738
 4622TIP3   OH235500   1.217   2.536   0.830
 4622TIP3    H135501   1.187   2.592   0.757
 4622TIP3    H235502   1.224   2.451   0.784
 4623TIP3   OH235503   0.328   2.548   1.349
 4623TIP3    H135504   0.333   2.589   1.437
 4623TIP3    H235505   0.282   2.465   1.369
 4624TIP3   OH235506   0.682   2.311   0.066
 4624TIP3    H135507   0.627   2.249   0.119
 4624TIP3    H235508   0.621   2.349   0.003
 4625TIP3   OH235509   0.021   2.284   0.734
 4625TIP3    H135510   0.062   2.254   0.818
 4625TIP3    H235511   0.045   2.215   0.671
 4626TIP3   OH235512   0.123   2.343   0.281
 4626TIP3    H135513   0.176   2.399   0.220
 4626TIP3    H235514   0.052   2.402   0.305
 4627TIP3   OH235515   1.135   2.693   1.284
 4627TIP3    H135516   1.174   2.625   1.226
 4627TIP3    H235517   1.089   2.641   1.351
 4628TIP3   OH235518   0.815   2.292   0.768
 4628TIP3    H135519   0.721   2.292   0.798
 4628TIP3    H235520   0.864   2.274   0.850
 4629TIP3   OH235521   0.305   2.447   0.651
 4629TIP3    H135522   0.215   2.463   0.616
 4629TIP3    H235523   0.326   2.360   0.611
 4630TIP3   OH235524   0.660   2.453   0.418
 4630TIP3    H135525   0.756   2.463   0.434
 4630TIP3    H235526   0.638   2.518   0.349
 4631TIP3   OH235527   1.257   2.213   1.092
 4631TIP3    H135528   1.189   2.219   1.162
 4631TIP3    H235529   1.206   2.189   1.014
 4632TIP3   OH235530   0.534   2.568   0.177
 4632TIP3    H135531   0.478   2.534   0.105
 4632TIP3    H235532   0.615   2.591   0.130
 4633TIP3   OH235533   1.584   3.755   1.735
 4633TIP3    H135534   1.591   3.812   1.655
 4633TIP3    H235535   1.649   3.805   1.786
 4634TIP3   OH235536   0.348   3.025   1.682
 4634TIP3    H135537   0.418   3.051   1.744
 4634TIP3    H235538   0.270   3.042   1.737
 4635TIP3   OH235539   0.944   2.567   0.957
 4635TIP3    H135540   1.004   2.514   0.904
 4635TIP3    H235541   0.930   2.512   1.035
 4636TIP3   OH235542   0.445   2.182   0.602
 4636TIP3    H135543   0.413   2.090   0.599
 4636TIP3    H235544   0.524   2.175   0.547
 4637TIP3   OH235545   0.809   2.400   1.199
 4637TIP3    H135546   0.726   2.452   1.207
 4637TIP3    H235547   0.864   2.435   1.271
 4638TIP3   OH235548   0.868   3.020   0.371
 4638TIP3    H135549   0.787   2.975   0.337
 4638TIP3    H235550   0.844   3.033   0.465
 4639TIP3   OH235551   1.586   2.943   1.248
 4639TIP3    H135552   1.642   2.991   1.185
 4639TIP3    H235553   1.500   2.947   1.202
 4640TIP3   OH235554   1.256   2.303   0.191
 4640TIP3    H135555   1.161   2.311   0.167
 4640TIP3    H235556   1.273   2.397   0.211
 4641TIP3   OH235557   1.015   3.049   1.490
 4641TIP3    H135558   0.982   3.005   1.569
 4641TIP3    H235559   0.992   3.142   1.503
 4642TIP3   OH235560   1.332   2.492   0.346
 4642TIP3    H135561   1.413   2.498   0.400
 4642TIP3    H235562   1.329   2.580   0.303
 4643TIP3   OH235563   0.381   2.963   0.948
 4643TIP3    H135564   0.446   2.953   0.878
 4643TIP3    H235565   0.385   2.878   0.994
 4644TIP3   OH235566   1.077   3.168   0.276
 4644TIP3    H135567   1.040   3.253   0.307
 4644TIP3    H235568   1.003   3.106   0.293
 4645TIP3   OH235569   0.100   2.781   1.448
 4645TIP3    H135570   0.110   2.757   1.541
 4645TIP3    H235571   0.016   2.738   1.427
 4646TIP3   OH235572   0.780   2.761   1.689
 4646TIP3    H135573   0.747   2.726   1.605
 4646TIP3    H235574   0.871   2.727   1.691
 4647TIP3   OH235575   1.248   3.292   1.488
 4647TIP3    H135576   1.155   3.309   1.463
 4647TIP3    H235577   1.244   3.320   1.580
 4648TIP3   OH235578   1.809   2.507   0.330
 4648TIP3    H135579   1.759   2.479   0.251
 4648TIP3    H235580   1.823   2.601   0.303
 4649TIP3   OH235581   1.815   3.100   1.608
 4649TIP3    H135582   1.724   3.114   1.570
 4649TIP3    H235583   1.867   3.087   1.526
 4650TIP3   OH235584   1.643   3.392   0.365
 4650TIP3    H135585   1.606   3.309   0.399
 4650TIP3    H235586   1.673   3.371   0.274
 4651TIP3   OH235587   1.364   2.874   1.077
 4651TIP3    H135588   1.270   2.854   1.065
 4651TIP3    H235589   1.407   2.798   1.033
 4652TIP3   OH235590   0.614   3.307   0.688
 4652TIP3    H135591   0.665   3.387   0.667
 4652TIP3    H235592   0.527   3.330   0.654
 4653TIP3   OH235593   0.178   2.788   0.148
 4653TIP3    H135594   0.247   2.851   0.178
 4653TIP3    H235595   0.096   2.825   0.179
 4654TIP3   OH235596   0.757   3.073   0.639
 4654TIP3    H135597   0.725   3.165   0.647
 4654TIP3    H235598   0.685   3.024   0.683
 4655TIP3   OH235599   0.803   3.491   1.278
 4655TIP3    H135600   0.847   3.573   1.252
 4655TIP3    H235601   0.864   3.458   1.347
 4656TIP3   OH235602   0.625   3.572   0.591
 4656TIP3    H135603   0.529   3.586   0.606
 4656TIP3    H235604   0.661   3.656   0.626
 4657TIP3   OH235605   1.153   3.091   1.241
 4657TIP3    H135606   1.121   3.071   1.331
 4657TIP3    H235607   1.218   3.020   1.224
 4658TIP3   OH235608   1.383   3.195   0.154
 4658TIP3    H135609   1.414   3.150   0.236
 4658TIP3    H235610   1.288   3.179   0.161
 4659TIP3   OH235611   1.432   3.547   1.491
 4659TIP3    H135612   1.365   3.500   1.439
 4659TIP3    H235613   1.454   3.619   1.428
 4660TIP3   OH235614   1.835   3.639   0.176
 4660TIP3    H135615   1.903   3.703   0.149
 4660TIP3    H235616   1.762   3.698   0.204
 4661TIP3   OH235617   0.242   2.274   1.424
 4661TIP3    H135618   0.152   2.310   1.429
 4661TIP3    H235619   0.231   2.190   1.474
 4662TIP3   OH235620   1.466   3.062   0.377
 4662TIP3    H135621   1.442   2.981   0.426
 4662TIP3    H235622   1.561   3.069   0.396
 4663TIP3   OH235623   0.209   3.457   1.269
 4663TIP3    H135624   0.230   3.363   1.272
 4663TIP3    H235625   0.228   3.482   1.360
 4664TIP3   OH235626   0.675   3.266   0.242
 4664TIP3    H135627   0.705   3.206   0.312
 4664TIP3    H235628   0.689   3.353   0.282
 4665TIP3   OH235629   0.324   2.984   0.286
 4665TIP3    H135630   0.262   3.025   0.351
 4665TIP3    H235631   0.384   3.058   0.267
 4666TIP3   OH235632   1.117   2.253   1.325
 4666TIP3    H135633   1.187   2.259   1.390
 4666TIP3    H235634   1.076   2.166   1.345
 4667TIP3   OH235635   1.199   2.206   0.434
 4667TIP3    H135636   1.206   2.260   0.354
 4667TIP3    H235637   1.243   2.258   0.503
 4668TIP3   OH235638   0.955   3.425   0.314
 4668TIP3    H135639   0.878   3.482   0.325
 4668TIP3    H235640   1.014   3.476   0.255
 4669TIP3   OH235641   0.915   2.382   0.515
 4669TIP3    H135642   0.989   2.445   0.520
 4669TIP3    H235643   0.885   2.371   0.607
 4670TIP3   OH235644   0.965   2.486   1.435
 4670TIP3    H135645   0.975   2.544   1.513
 4670TIP3    H235646   1.033   2.418   1.442
 4671TIP3   OH235647   1.001   2.090   0.603
 4671TIP3    H135648   0.966   2.155   0.666
 4671TIP3    H235649   1.068   2.145   0.559
 4672TIP3   OH235650   0.691   3.531   0.316
 4672TIP3    H135651   0.715   3.615   0.271
 4672TIP3    H235652   0.670   3.564   0.407
 4673TIP3   OH235653   0.565   2.200   0.281
 4673TIP3    H135654   0.558   2.292   0.314
 4673TIP3    H235655   0.657   2.178   0.307
 4674TIP3   OH235656   1.582   2.271   1.525
 4674TIP3    H135657   1.494   2.312   1.500
 4674TIP3    H235658   1.621   2.273   1.435
 4675TIP3   OH235659   1.448   2.653   0.920
 4675TIP3    H135660   1.365   2.608   0.893
 4675TIP3    H235661   1.496   2.585   0.972
 4676TIP3   OH235662   0.388   3.257   0.170
 4676TIP3    H135663   0.456   3.302   0.220
 4676TIP3    H235664   0.439   3.193   0.117
 4677TIP3   OH235665   0.233   2.513   0.095
 4677TIP3    H135666   0.227   2.608   0.114
 4677TIP3    H235667   0.144   2.492   0.069
 4678TIP3   OH235668   1.553   3.579   1.087
 4678TIP3    H135669   1.545   3.647   1.018
 4678TIP3    H235670   1.649   3.584   1.104
 4679TIP3   OH235671   0.301   1.992   0.967
 4679TIP3    H135672   0.284   1.991   0.870
 4679TIP3    H235673   0.261   1.906   0.993
 4680TIP3   OH235674   0.202   3.384   0.585
 4680TIP3    H135675   0.114   3.424   0.579
 4680TIP3    H235676   0.246   3.432   0.513
 4681TIP3   OH235677   0.140   3.647   1.709
 4681TIP3    H135678   0.179   3.624   1.793
 4681TIP3    H235679   0.080   3.570   1.695
 4682TIP3   OH235680   1.037   3.497   0.069
 4682TIP3    H135681   0.955   3.447   0.061
 4682TIP3    H235682   1.090   3.453   0.003
 4683TIP3   OH235683   1.234   3.381   1.751
 4683TIP3    H135684   1.210   3.290   1.769
 4683TIP3    H235685   1.318   3.387   1.800
 4684TIP3   OH235686   1.457   3.466   0.030
 4684TIP3    H135687   1.484   3.388   0.081
 4684TIP3    H235688   1.536   3.491  -0.020
 4685TIP3   OH235689   0.127   3.021   1.811
 4685TIP3    H135690   0.127   2.929   1.779
 4685TIP3    H235691   0.044   3.055   1.770
 4686TIP3   OH235692   0.554   3.069   0.028
 4686TIP3    H135693   0.559   2.985   0.075
 4686TIP3    H235694   0.607   3.042  -0.049
 4687TIP3   OH235695   0.783   3.027   1.753
 4687TIP3    H135696   0.748   3.055   1.666
 4687TIP3    H235697   0.788   2.929   1.743
 4688TIP3   OH235698   1.351   3.011   1.488
 4688TIP3    H135699   1.431   3.068   1.482
 4688TIP3    H235700   1.282   3.078   1.494
 4689TIP3   OH235701   0.197   2.747   1.746
 4689TIP3    H135702   0.246   2.663   1.738
 4689TIP3    H235703   0.178   2.746   1.840
 4690TIP3   OH235704   0.667   2.864   0.256
 4690TIP3    H135705   0.616   2.810   0.318
 4690TIP3    H235706   0.697   2.795   0.192
 4691TIP3   OH235707   0.592   2.643   1.484
 4691TIP3    H135708   0.530   2.714   1.511
 4691TIP3    H235709   0.631   2.680   1.404
 4692TIP3   OH235710   0.773   2.687   0.075
 4692TIP3    H135711   0.763   2.666  -0.018
 4692TIP3    H235712   0.871   2.693   0.087
 4693TIP3   OH235713   1.098   2.898   1.816
 4693TIP3    H135714   1.193   2.898   1.805
 4693TIP3    H235715   1.079   2.826   1.878
 4694TIP3   OH235716   1.691   2.930   8.526
 4694TIP3    H135717   1.681   2.880   8.443
 4694TIP3    H235718   1.713   3.020   8.499
 4695TIP3   OH235719   0.636   2.381   1.591
 4695TIP3    H135720   0.643   2.310   1.524
 4695TIP3    H235721   0.626   2.461   1.536
 4696TIP3   OH235722   0.673   2.218   1.345
 4696TIP3    H135723   0.724   2.265   1.275
 4696TIP3    H235724   0.583   2.211   1.305
 4697TIP3   OH235725   0.827   2.768   1.370
 4697TIP3    H135726   0.902   2.751   1.312
 4697TIP3    H235727   0.790   2.851   1.336
 4698TIP3   OH235728   1.264   2.541   1.869
 4698TIP3    H135729   1.293   2.451   1.862
 4698TIP3    H235730   1.349   2.591   1.868
 4699TIP3   OH235731   1.399   2.822   1.678
 4699TIP3    H135732   1.377   2.897   1.620
 4699TIP3    H235733   1.496   2.820   1.667
 4700TIP3   OH235734   0.468   2.512   1.774
 4700TIP3    H135735   0.398   2.444   1.768
 4700TIP3    H235736   0.540   2.469   1.724
 4701TIP3   OH235737   0.752   1.962   1.385
 4701TIP3    H135738   0.734   2.058   1.375
 4701TIP3    H235739   0.677   1.925   1.335
 4702TIP3   OH235740   0.881   2.392   1.749
 4702TIP3    H135741   0.842   2.375   1.837
 4702TIP3    H235742   0.802   2.377   1.694
 4703TIP3   OH235743   1.151   2.308   1.657
 4703TIP3    H135744   1.053   2.316   1.664
 4703TIP3    H235745   1.170   2.243   1.725
 4704TIP3   OH235746   1.314   2.172   1.850
 4704TIP3    H135747   1.296   2.073   1.851
 4704TIP3    H235748   1.280   2.198   1.937
 4705TIP3   OH235749   0.292   2.299   1.758
 4705TIP3    H135750   0.313   2.225   1.699
 4705TIP3    H235751   0.284   2.254   1.845
 4706TIP3   OH235752   0.770   1.899   1.655
 4706TIP3    H135753   0.838   1.829   1.654
 4706TIP3    H235754   0.760   1.916   1.560
 4707TIP3   OH235755   0.815   2.069   1.860
 4707TIP3    H135756   0.793   2.009   1.785
 4707TIP3    H235757   0.746   2.137   1.856
 4708TIP3   OH235758   0.756   3.749   0.170
 4708TIP3    H135759   0.852   3.764   0.190
 4708TIP3    H235760   0.737   3.824   0.114
 4709TIP3   OH235761   0.117   3.214   0.131
 4709TIP3    H135762   0.212   3.222   0.153
 4709TIP3    H235763   0.117   3.153   0.056
 4710TIP3   OH235764   7.358   3.760   0.618
 4710TIP3    H135765   7.272   3.735   0.580
 4710TIP3    H235766   7.372   3.693   0.689
 4711TIP3   OH235767   0.066   3.568   0.809
 4711TIP3    H135768   0.038   3.477   0.833
 4711TIP3    H235769   0.096   3.598   0.897
 4712TIP3   OH235770   1.828   3.641   1.109
 4712TIP3    H135771   1.828   3.662   1.204
 4712TIP3    H235772   1.894   3.703   1.076
 4713TIP3   OH235773   1.806   3.584   1.389
 4713TIP3    H135774   1.731   3.524   1.365
 4713TIP3    H235775   1.820   3.562   1.481
 4714TIP3   OH235776   1.761   3.007   0.411
 4714TIP3    H135777   1.846   3.048   0.434
 4714TIP3    H235778   1.757   2.937   0.480
 4715TIP3   OH235779   1.794   2.816   0.601
 4715TIP3    H135780   1.719   2.765   0.638
 4715TIP3    H235781   1.854   2.828   0.677
 4716TIP3   OH235782   1.771   3.084   1.100
 4716TIP3    H135783   1.852   3.047   1.061
 4716TIP3    H235784   1.784   3.179   1.081
 4717TIP3   OH235785   1.627   3.376   1.327
 4717TIP3    H135786   1.556   3.409   1.385
 4717TIP3    H235787   1.573   3.336   1.255
 4718TIP3   OH235788   1.825   2.798   0.237
 4718TIP3    H135789   1.765   2.833   0.169
 4718TIP3    H235790   1.817   2.867   0.305
 4719TIP3   OH235791   1.620   2.521   0.102
 4719TIP3    H135792   1.668   2.582   0.042
 4719TIP3    H235793   1.644   2.440   0.053
 4720TIP3   OH235794   1.576   2.661   0.657
 4720TIP3    H135795   1.562   2.566   0.657
 4720TIP3    H235796   1.546   2.686   0.747
 4721TIP3   OH235797   0.074   2.869   1.062
 4721TIP3    H135798   0.094   2.866   0.966
 4721TIP3    H235799   0.164   2.856   1.100
 4722TIP3   OH235800   1.664   2.859   1.615
 4722TIP3    H135801   1.722   2.784   1.643
 4722TIP3    H235802   1.722   2.936   1.631
 4723TIP3   OH235803   1.812   2.649   1.691
 4723TIP3    H135804   1.724   2.610   1.676
 4723TIP3    H235805   1.870   2.572   1.685
 4724TIP3   OH235806   1.585   2.267   0.011
 4724TIP3    H135807   1.649   2.216   0.064
 4724TIP3    H235808   1.500   2.221   0.016
 4725TIP3   OH235809   1.542   2.415   0.491
 4725TIP3    H135810   1.579   2.330   0.526
 4725TIP3    H235811   1.624   2.464   0.471
 4726TIP3   OH235812   1.608   2.476   1.048
 4726TIP3    H135813   1.704   2.498   1.046
 4726TIP3    H235814   1.589   2.489   1.142
 4727TIP3   OH235815   1.614   2.546   1.328
 4727TIP3    H135816   1.526   2.579   1.360
 4727TIP3    H235817   1.658   2.632   1.306
 4728TIP3   OH235818   0.060   2.395   1.679
 4728TIP3    H135819   0.149   2.369   1.705
 4728TIP3    H235820   0.002   2.323   1.713
 4729TIP3   OH235821   1.605   2.151   0.507
 4729TIP3    H135822   1.633   2.110   0.592
 4729TIP3    H235823   1.552   2.079   0.466
 4730TIP3   OH235824   0.154   2.225   0.968
 4730TIP3    H135825   0.208   2.146   0.990
 4730TIP3    H235826   0.210   2.296   1.004
 4731TIP3   OH235827   0.060   2.582   1.109
 4731TIP3    H135828   0.068   2.547   1.018
 4731TIP3    H235829   0.038   2.672   1.085
 4732TIP3   OH235830   1.791   2.156   0.164
 4732TIP3    H135831   1.835   2.084   0.115
 4732TIP3    H235832   1.866   2.219   0.167
 4733TIP3   OH235833   7.407   2.156   0.450
 4733TIP3    H135834   7.312   2.176   0.456
 4733TIP3    H235835   7.436   2.221   0.382
 4734TIP3   OH235836   1.498   3.651   0.671
 4734TIP3    H135837   1.566   3.621   0.609
 4734TIP3    H235838   1.549   3.702   0.736
 4735TIP3   OH235839   7.378   2.018   1.317
 4735TIP3    H135840   7.304   1.998   1.375
 4735TIP3    H235841   7.327   2.075   1.256
 4736TIP3   OH235842   0.246   3.349   1.727
 4736TIP3    H135843   0.162   3.360   1.679
 4736TIP3    H235844   0.213   3.332   1.815
 4737TIP3   OH235845   0.534   3.444   1.351
 4737TIP3    H135846   0.496   3.528   1.321
 4737TIP3    H235847   0.626   3.453   1.319
 4738TIP3   OH235848   0.965   3.586   1.644
 4738TIP3    H135849   0.986   3.548   1.730
 4738TIP3    H235850   1.053   3.613   1.611
 4739TIP3   OH235851   1.194   3.709   1.576
 4739TIP3    H135852   1.268   3.655   1.543
 4739TIP3    H235853   1.237   3.757   1.647
 4740TIP3   OH235854   1.689   1.971   1.485
 4740TIP3    H135855   1.613   2.001   1.434
 4740TIP3    H235856   1.716   1.893   1.433
 4741TIP3   OH235857   0.278   3.769   1.351
 4741TIP3    H135858   0.202   3.814   1.309
 4741TIP3    H235859   0.240   3.746   1.437
 4742TIP3   OH235860   0.523   3.725   1.253
 4742TIP3    H135861   0.435   3.740   1.296
 4742TIP3    H235862   0.517   3.785   1.177
 4743TIP3   OH235863   0.993   3.715   1.173
 4743TIP3    H135864   0.946   3.771   1.108
 4743TIP3    H235865   1.006   3.778   1.246
 4744TIP3   OH235866   1.221   3.597   1.279
 4744TIP3    H135867   1.137   3.624   1.239
 4744TIP3    H235868   1.271   3.680   1.268
 4745TIP3   OH235869   1.479   3.752   1.299
 4745TIP3    H135870   1.477   3.849   1.278
 4745TIP3    H235871   1.502   3.717   1.211
 4746TIP3   OH235872   0.220   3.631   1.040
 4746TIP3    H135873   0.215   3.588   1.128
 4746TIP3    H235874   0.301   3.592   1.003
 4747TIP3   OH235875   0.430   3.501   0.906
 4747TIP3    H135876   0.411   3.408   0.932
 4747TIP3    H235877   0.514   3.517   0.953
 4748TIP3   OH235878   0.690   3.551   0.996
 4748TIP3    H135879   0.705   3.458   0.969
 4748TIP3    H235880   0.694   3.545   1.092
 4749TIP3   OH235881   1.035   2.116   0.909
 4749TIP3    H135882   0.966   2.052   0.937
 4749TIP3    H235883   1.089   2.062   0.851
 4750TIP3   OH235884   1.555   1.915   0.911
 4750TIP3    H135885   1.608   1.985   0.863
 4750TIP3    H235886   1.463   1.952   0.895
 4751TIP3   OH235887   1.716   2.043   0.745
 4751TIP3    H135888   1.786   1.990   0.699
 4751TIP3    H235889   1.765   2.129   0.755
 4752TIP3   OH235890   0.270   1.976   0.696
 4752TIP3    H135891   0.194   1.958   0.637
 4752TIP3    H235892   0.320   1.893   0.685
 4753TIP3   OH235893   0.194   1.967   0.285
 4753TIP3    H135894   0.207   2.021   0.206
 4753TIP3    H235895   0.108   1.997   0.320
 4754TIP3   OH235896   0.718   1.971   0.673
 4754TIP3    H135897   0.808   2.006   0.665
 4754TIP3    H235898   0.715   1.949   0.766
 4755TIP3   OH235899   1.296   1.969   0.836
 4755TIP3    H135900   1.282   1.984   0.741
 4755TIP3    H235901   1.250   1.882   0.848
 4756TIP3   OH235902   1.416   1.979   0.399
 4756TIP3    H135903   1.336   2.031   0.387
 4756TIP3    H235904   1.377   1.891   0.424
 4757TIP3   OH235905   0.160   3.557   0.355
 4757TIP3    H135906   0.076   3.547   0.305
 4757TIP3    H235907   0.144   3.648   0.383
 4758TIP3   OH235908   0.330   2.148   0.114
 4758TIP3    H135909   0.383   2.083   0.066
 4758TIP3    H235910   0.393   2.179   0.180
 4759TIP3   OH235911   0.833   2.172   0.358
 4759TIP3    H135912   0.861   2.115   0.431
 4759TIP3    H235913   0.842   2.259   0.404
 4760TIP3   OH235914   1.021   3.707   0.204
 4760TIP3    H135915   1.119   3.709   0.190
 4760TIP3    H235916   1.009   3.635   0.139
 4761TIP3   OH235917   1.699   3.629   0.472
 4761TIP3    H135918   1.676   3.553   0.415
 4761TIP3    H235919   1.687   3.704   0.410
 4762TIP3   OH235920   0.255   2.037   1.645
 4762TIP3    H135921   0.220   1.952   1.675
 4762TIP3    H235922   0.348   2.029   1.677
 4763TIP3   OH235923   0.460   1.967   1.796
 4763TIP3    H135924   0.553   1.941   1.777
 4763TIP3    H235925   0.433   1.888   1.842
 4764TIP3   OH235926   0.331   3.645   0.064
 4764TIP3    H135927   0.289   3.678   0.146
 4764TIP3    H235928   0.398   3.592   0.099
 4765TIP3   OH235929   1.308   1.909   1.818
 4765TIP3    H135930   1.304   1.852   1.897
 4765TIP3    H235931   1.394   1.888   1.779
 4766TIP3   OH235932   1.626   3.501   1.677
 4766TIP3    H135933   1.539   3.490   1.634
 4766TIP3    H235934   1.611   3.594   1.708
 4767TIP3   OH235935   3.066   2.893   0.680
 4767TIP3    H135936   3.064   2.991   0.676
 4767TIP3    H235937   2.993   2.869   0.620
 4768TIP3   OH235938   2.951   2.817   1.030
 4768TIP3    H135939   2.950   2.753   1.102
 4768TIP3    H235940   2.916   2.766   0.955
 4769TIP3   OH235941   2.186   2.785   1.185
 4769TIP3    H135942   2.195   2.716   1.254
 4769TIP3    H235943   2.261   2.842   1.207
 4770TIP3   OH235944   3.320   3.112   0.858
 4770TIP3    H135945   3.279   3.041   0.908
 4770TIP3    H235946   3.322   3.183   0.925
 4771TIP3   OH235947   2.278   3.230   1.039
 4771TIP3    H135948   2.248   3.144   1.003
 4771TIP3    H235949   2.374   3.212   1.038
 4772TIP3   OH235950   1.943   2.586   0.585
 4772TIP3    H135951   1.900   2.673   0.578
 4772TIP3    H235952   1.888   2.532   0.526
 4773TIP3   OH235953   2.015   2.808   0.799
 4773TIP3    H135954   2.042   2.726   0.844
 4773TIP3    H235955   2.084   2.819   0.732
 4774TIP3   OH235956   3.032   3.628   0.882
 4774TIP3    H135957   3.097   3.560   0.853
 4774TIP3    H235958   3.010   3.594   0.969
 4775TIP3   OH235959   2.788   3.058   1.078
 4775TIP3    H135960   2.822   2.996   1.012
 4775TIP3    H235961   2.870   3.074   1.129
 4776TIP3   OH235962   3.648   2.224   1.149
 4776TIP3    H135963   3.666   2.282   1.226
 4776TIP3    H235964   3.706   2.266   1.083
 4777TIP3   OH235965   3.106   2.504   1.109
 4777TIP3    H135966   3.123   2.409   1.109
 4777TIP3    H235967   3.095   2.518   1.013
 4778TIP3   OH235968   2.417   2.313   0.830
 4778TIP3    H135969   2.428   2.397   0.780
 4778TIP3    H235970   2.377   2.256   0.761
 4779TIP3   OH235971   3.191   2.321   0.667
 4779TIP3    H135972   3.256   2.290   0.734
 4779TIP3    H235973   3.247   2.379   0.613
 4780TIP3   OH235974   2.079   2.554   0.903
 4780TIP3    H135975   2.146   2.500   0.949
 4780TIP3    H235976   2.090   2.523   0.812
 4781TIP3   OH235977   2.595   2.710   0.836
 4781TIP3    H135978   2.662   2.652   0.875
 4781TIP3    H235979   2.544   2.645   0.784
 4782TIP3   OH235980   3.692   2.363   1.377
 4782TIP3    H135981   3.633   2.441   1.366
 4782TIP3    H235982   3.696   2.356   1.473
 4783TIP3   OH235983   2.309   2.203   1.234
 4783TIP3    H135984   2.280   2.260   1.159
 4783TIP3    H235985   2.241   2.227   1.302
 4784TIP3   OH235986   3.036   3.150   0.588
 4784TIP3    H135987   3.009   3.124   0.499
 4784TIP3    H235988   3.006   3.244   0.593
 4785TIP3   OH235989   2.559   2.968   1.256
 4785TIP3    H135990   2.489   3.032   1.281
 4785TIP3    H235991   2.630   3.027   1.228
 4786TIP3   OH235992   3.372   2.256   0.867
 4786TIP3    H135993   3.350   2.179   0.920
 4786TIP3    H235994   3.439   2.299   0.922
 4787TIP3   OH235995   2.265   2.388   1.038
 4787TIP3    H135996   2.328   2.458   1.069
 4787TIP3    H235997   2.317   2.348   0.964
 4788TIP3   OH235998   2.403   3.168   1.343
 4788TIP3    H135999   2.400   3.258   1.305
 4788TIP3    H236000   2.314   3.159   1.384
 4789TIP3   OH236001   2.010   3.129   0.418
 4789TIP3    H136002   1.990   3.164   0.329
 4789TIP3    H236003   2.019   3.211   0.471
 4790TIP3   OH236004   3.373   3.296   1.095
 4790TIP3    H136005   3.276   3.308   1.107
 4790TIP3    H236006   3.400   3.388   1.075
 4791TIP3   OH236007   3.405   2.124   1.233
 4791TIP3    H136008   3.333   2.188   1.224
 4791TIP3    H236009   3.477   2.166   1.182
 4792TIP3   OH236010   2.702   1.937   0.980
 4792TIP3    H136011   2.688   1.841   0.973
 4792TIP3    H236012   2.614   1.967   1.011
 4793TIP3   OH236013   3.199   3.475   0.754
 4793TIP3    H136014   3.241   3.403   0.703
 4793TIP3    H236015   3.244   3.553   0.716
 4794TIP3   OH236016   3.320   3.267   0.605
 4794TIP3    H136017   3.291   3.198   0.543
 4794TIP3    H236018   3.323   3.218   0.689
 4795TIP3   OH236019   3.481   3.127   1.455
 4795TIP3    H136020   3.496   3.062   1.383
 4795TIP3    H236021   3.502   3.211   1.410
 4796TIP3   OH236022   2.930   2.816   0.430
 4796TIP3    H136023   2.862   2.875   0.390
 4796TIP3    H236024   3.002   2.825   0.364
 4797TIP3   OH236025   2.935   2.670   0.140
 4797TIP3    H136026   3.009   2.670   0.203
 4797TIP3    H236027   2.968   2.606   0.076
 4798TIP3   OH236028   3.670   2.758   1.259
 4798TIP3    H136029   3.604   2.830   1.262
 4798TIP3    H236030   3.720   2.782   1.179
 4799TIP3   OH236031   3.276   2.837   0.525
 4799TIP3    H136032   3.201   2.861   0.586
 4799TIP3    H236033   3.324   2.770   0.577
 4800TIP3   OH236034   3.268   2.653   1.438
 4800TIP3    H136035   3.270   2.736   1.488
 4800TIP3    H236036   3.208   2.682   1.366
 4801TIP3   OH236037   2.437   2.902   0.715
 4801TIP3    H136038   2.406   2.863   0.630
 4801TIP3    H236039   2.499   2.833   0.749
 4802TIP3   OH236040   2.570   3.240   0.983
 4802TIP3    H136041   2.570   3.188   0.901
 4802TIP3    H236042   2.649   3.205   1.028
 4803TIP3   OH236043   2.470   2.777   1.082
 4803TIP3    H136044   2.525   2.787   1.001
 4803TIP3    H236045   2.510   2.844   1.142
 4804TIP3   OH236046   3.113   3.335   1.152
 4804TIP3    H136047   3.083   3.399   1.218
 4804TIP3    H236048   3.087   3.250   1.194
 4805TIP3   OH236049   2.565   3.221   1.551
 4805TIP3    H136050   2.525   3.295   1.600
 4805TIP3    H236051   2.499   3.200   1.480
 4806TIP3   OH236052   3.165   2.755   0.291
 4806TIP3    H136053   3.219   2.776   0.371
 4806TIP3    H236054   3.205   2.810   0.221
 4807TIP3   OH236055   2.260   2.836   1.465
 4807TIP3    H136056   2.267   2.900   1.538
 4807TIP3    H236057   2.166   2.845   1.445
 4808TIP3   OH236058   2.934   3.429   0.639
 4808TIP3    H136059   2.978   3.460   0.718
 4808TIP3    H236060   2.880   3.504   0.612
 4809TIP3   OH236061   2.389   3.424   1.624
 4809TIP3    H136062   2.386   3.413   1.528
 4809TIP3    H236063   2.298   3.409   1.654
 4810TIP3   OH236064   3.536   1.930   0.280
 4810TIP3    H136065   3.441   1.941   0.304
 4810TIP3    H236066   3.557   2.015   0.240
 4811TIP3   OH236067   2.333   2.805   0.477
 4811TIP3    H136068   2.306   2.882   0.423
 4811TIP3    H236069   2.269   2.738   0.453
 4812TIP3   OH236070   3.646   3.363   0.117
 4812TIP3    H136071   3.659   3.459   0.129
 4812TIP3    H236072   3.739   3.335   0.110
 4813TIP3   OH236073   1.946   3.049   1.365
 4813TIP3    H136074   1.898   3.039   1.280
 4813TIP3    H236075   1.952   2.954   1.388
 4814TIP3   OH236076   1.919   3.323   1.049
 4814TIP3    H136077   2.015   3.311   1.040
 4814TIP3    H236078   1.910   3.408   1.093
 4815TIP3   OH236079   3.742   3.391   1.612
 4815TIP3    H136080   3.731   3.294   1.612
 4815TIP3    H236081   3.656   3.416   1.654
 4816TIP3   OH236082   2.840   3.347   1.498
 4816TIP3    H136083   2.845   3.430   1.552
 4816TIP3    H236084   2.754   3.310   1.524
 4817TIP3   OH236085   2.882   3.720   0.478
 4817TIP3    H136086   2.875   3.715   0.381
 4817TIP3    H236087   2.886   3.816   0.495
 4818TIP3   OH236088   2.247   3.608   0.662
 4818TIP3    H136089   2.262   3.567   0.749
 4818TIP3    H236090   2.162   3.567   0.637
 4819TIP3   OH236091   3.185   3.640   0.174
 4819TIP3    H136092   3.233   3.565   0.134
 4819TIP3    H236093   3.193   3.617   0.269
 4820TIP3   OH236094   3.157   3.635   0.455
 4820TIP3    H136095   3.061   3.642   0.474
 4820TIP3    H236096   3.182   3.561   0.512
 4821TIP3   OH236097   3.459   2.537   1.659
 4821TIP3    H136098   3.411   2.584   1.590
 4821TIP3    H236099   3.458   2.446   1.628
 4822TIP3   OH236100   2.164   3.191   1.467
 4822TIP3    H136101   2.195   3.141   1.547
 4822TIP3    H236102   2.087   3.136   1.438
 4823TIP3   OH236103   2.440   2.027   1.055
 4823TIP3    H136104   2.350   2.014   1.019
 4823TIP3    H236105   2.427   2.110   1.104
 4824TIP3   OH236106   2.905   1.994   1.393
 4824TIP3    H136107   2.943   1.950   1.471
 4824TIP3    H236108   2.807   1.982   1.405
 4825TIP3   OH236109   3.233   2.379   1.481
 4825TIP3    H136110   3.177   2.358   1.559
 4825TIP3    H236111   3.215   2.472   1.459
 4826TIP3   OH236112   3.316   2.864   0.076
 4826TIP3    H136113   3.317   2.848  -0.020
 4826TIP3    H236114   3.403   2.908   0.086
 4827TIP3   OH236115   2.869   2.251   0.127
 4827TIP3    H136116   2.837   2.246   0.218
 4827TIP3    H236117   2.841   2.164   0.097
 4828TIP3   OH236118   2.451   2.525   1.182
 4828TIP3    H136119   2.377   2.524   1.245
 4828TIP3    H236120   2.446   2.615   1.144
 4829TIP3   OH236121   2.446   2.535   0.668
 4829TIP3    H136122   2.352   2.511   0.654
 4829TIP3    H236123   2.484   2.507   0.582
 4830TIP3   OH236124   2.999   2.585   0.541
 4830TIP3    H136125   2.959   2.669   0.509
 4830TIP3    H236126   3.068   2.570   0.474
 4831TIP3   OH236127   2.899   2.608   1.684
 4831TIP3    H136128   2.848   2.529   1.714
 4831TIP3    H236129   2.985   2.598   1.724
 4832TIP3   OH236130   3.102   2.535   0.829
 4832TIP3    H136131   3.073   2.592   0.756
 4832TIP3    H236132   3.111   2.450   0.782
 4833TIP3   OH236133   2.212   2.549   1.349
 4833TIP3    H136134   2.222   2.588   1.438
 4833TIP3    H236135   2.169   2.465   1.370
 4834TIP3   OH236136   2.567   2.311   0.067
 4834TIP3    H136137   2.512   2.249   0.119
 4834TIP3    H236138   2.507   2.350   0.004
 4835TIP3   OH236139   1.878   2.255   0.750
 4835TIP3    H136140   1.947   2.258   0.818
 4835TIP3    H236141   1.926   2.224   0.671
 4836TIP3   OH236142   2.005   2.332   0.283
 4836TIP3    H136143   2.057   2.390   0.223
 4836TIP3    H236144   1.940   2.398   0.315
 4837TIP3   OH236145   3.022   2.693   1.285
 4837TIP3    H136146   3.060   2.625   1.226
 4837TIP3    H236147   2.974   2.640   1.351
 4838TIP3   OH236148   2.702   2.292   0.769
 4838TIP3    H136149   2.608   2.292   0.797
 4838TIP3    H236150   2.750   2.274   0.851
 4839TIP3   OH236151   2.182   2.446   0.655
 4839TIP3    H136152   2.094   2.462   0.615
 4839TIP3    H236153   2.211   2.363   0.614
 4840TIP3   OH236154   2.546   2.453   0.418
 4840TIP3    H136155   2.642   2.463   0.434
 4840TIP3    H236156   2.524   2.518   0.349
 4841TIP3   OH236157   3.142   2.215   1.092
 4841TIP3    H136158   3.074   2.220   1.162
 4841TIP3    H236159   3.091   2.189   1.014
 4842TIP3   OH236160   2.417   2.568   0.178
 4842TIP3    H136161   2.361   2.534   0.105
 4842TIP3    H236162   2.499   2.591   0.131
 4843TIP3   OH236163   3.463   3.778   1.725
 4843TIP3    H136164   3.490   3.816   1.639
 4843TIP3    H236165   3.533   3.810   1.782
 4844TIP3   OH236166   2.228   3.034   1.679
 4844TIP3    H136167   2.302   3.048   1.740
 4844TIP3    H236168   2.154   3.032   1.742
 4845TIP3   OH236169   2.830   2.567   0.957
 4845TIP3    H136170   2.890   2.514   0.904
 4845TIP3    H236171   2.815   2.512   1.035
 4846TIP3   OH236172   2.331   2.181   0.602
 4846TIP3    H136173   2.300   2.089   0.600
 4846TIP3    H236174   2.409   2.175   0.546
 4847TIP3   OH236175   2.694   2.400   1.199
 4847TIP3    H136176   2.611   2.452   1.207
 4847TIP3    H236177   2.749   2.435   1.271
 4848TIP3   OH236178   2.753   3.019   0.371
 4848TIP3    H136179   2.673   2.975   0.337
 4848TIP3    H236180   2.730   3.033   0.465
 4849TIP3   OH236181   3.472   2.943   1.249
 4849TIP3    H136182   3.528   2.991   1.185
 4849TIP3    H236183   3.386   2.947   1.202
 4850TIP3   OH236184   3.140   2.301   0.187
 4850TIP3    H136185   3.045   2.317   0.169
 4850TIP3    H236186   3.170   2.389   0.218
 4851TIP3   OH236187   2.903   3.049   1.491
 4851TIP3    H136188   2.867   3.006   1.570
 4851TIP3    H236189   2.876   3.140   1.503
 4852TIP3   OH236190   3.210   2.496   0.354
 4852TIP3    H136191   3.299   2.482   0.390
 4852TIP3    H236192   3.219   2.577   0.301
 4853TIP3   OH236193   2.264   2.962   0.948
 4853TIP3    H136194   2.332   2.953   0.879
 4853TIP3    H236195   2.269   2.876   0.994
 4854TIP3   OH236196   2.962   3.168   0.276
 4854TIP3    H136197   2.925   3.253   0.308
 4854TIP3    H236198   2.889   3.106   0.293
 4855TIP3   OH236199   1.962   2.802   1.472
 4855TIP3    H136200   1.979   2.758   1.558
 4855TIP3    H236201   1.899   2.741   1.430
 4856TIP3   OH236202   2.664   2.756   1.691
 4856TIP3    H136203   2.632   2.728   1.604
 4856TIP3    H236204   2.758   2.728   1.688
 4857TIP3   OH236205   3.133   3.291   1.487
 4857TIP3    H136206   3.040   3.310   1.465
 4857TIP3    H236207   3.130   3.321   1.580
 4858TIP3   OH236208   3.699   2.509   0.329
 4858TIP3    H136209   3.643   2.478   0.255
 4858TIP3    H236210   3.707   2.602   0.301
 4859TIP3   OH236211   3.698   3.095   1.607
 4859TIP3    H136212   3.608   3.117   1.571
 4859TIP3    H236213   3.753   3.090   1.525
 4860TIP3   OH236214   3.529   3.392   0.365
 4860TIP3    H136215   3.491   3.309   0.398
 4860TIP3    H236216   3.559   3.371   0.274
 4861TIP3   OH236217   3.249   2.874   1.077
 4861TIP3    H136218   3.155   2.853   1.066
 4861TIP3    H236219   3.292   2.798   1.033
 4862TIP3   OH236220   2.501   3.307   0.687
 4862TIP3    H136221   2.551   3.388   0.666
 4862TIP3    H236222   2.413   3.330   0.654
 4863TIP3   OH236223   2.074   2.793   0.140
 4863TIP3    H136224   2.136   2.855   0.182
 4863TIP3    H236225   1.987   2.820   0.174
 4864TIP3   OH236226   2.643   3.073   0.639
 4864TIP3    H136227   2.611   3.165   0.647
 4864TIP3    H236228   2.571   3.024   0.683
 4865TIP3   OH236229   2.687   3.492   1.281
 4865TIP3    H136230   2.733   3.572   1.251
 4865TIP3    H236231   2.749   3.458   1.347
 4866TIP3   OH236232   2.511   3.573   0.590
 4866TIP3    H136233   2.414   3.587   0.606
 4866TIP3    H236234   2.547   3.656   0.626
 4867TIP3   OH236235   3.038   3.091   1.240
 4867TIP3    H136236   3.008   3.073   1.331
 4867TIP3    H236237   3.104   3.021   1.224
 4868TIP3   OH236238   3.269   3.195   0.154
 4868TIP3    H136239   3.299   3.150   0.236
 4868TIP3    H236240   3.173   3.179   0.161
 4869TIP3   OH236241   3.322   3.548   1.490
 4869TIP3    H136242   3.252   3.500   1.443
 4869TIP3    H236243   3.340   3.620   1.426
 4870TIP3   OH236244   3.721   3.637   0.176
 4870TIP3    H136245   3.790   3.701   0.150
 4870TIP3    H236246   3.649   3.697   0.206
 4871TIP3   OH236247   2.129   2.276   1.430
 4871TIP3    H136248   2.037   2.310   1.425
 4871TIP3    H236249   2.118   2.190   1.473
 4872TIP3   OH236250   3.352   3.062   0.376
 4872TIP3    H136251   3.327   2.981   0.426
 4872TIP3    H236252   3.447   3.068   0.396
 4873TIP3   OH236253   2.088   3.449   1.267
 4873TIP3    H136254   2.126   3.360   1.261
 4873TIP3    H236255   2.142   3.497   1.330
 4874TIP3   OH236256   2.563   3.263   0.244
 4874TIP3    H136257   2.590   3.206   0.317
 4874TIP3    H236258   2.573   3.354   0.279
 4875TIP3   OH236259   2.212   2.985   0.288
 4875TIP3    H136260   2.147   3.026   0.349
 4875TIP3    H236261   2.270   3.060   0.267
 4876TIP3   OH236262   3.000   2.253   1.325
 4876TIP3    H136263   3.075   2.257   1.385
 4876TIP3    H236264   2.963   2.165   1.344
 4877TIP3   OH236265   3.074   2.211   0.436
 4877TIP3    H136266   3.099   2.256   0.353
 4877TIP3    H236267   3.133   2.254   0.499
 4878TIP3   OH236268   2.844   3.427   0.318
 4878TIP3    H136269   2.762   3.479   0.323
 4878TIP3    H236270   2.898   3.476   0.254
 4879TIP3   OH236271   2.797   2.384   0.516
 4879TIP3    H136272   2.876   2.443   0.519
 4879TIP3    H236273   2.771   2.372   0.609
 4880TIP3   OH236274   2.854   2.487   1.431
 4880TIP3    H136275   2.860   2.543   1.510
 4880TIP3    H236276   2.921   2.418   1.443
 4881TIP3   OH236277   2.883   2.090   0.603
 4881TIP3    H136278   2.851   2.155   0.667
 4881TIP3    H236279   2.953   2.145   0.559
 4882TIP3   OH236280   2.582   3.531   0.320
 4882TIP3    H136281   2.599   3.613   0.269
 4882TIP3    H236282   2.556   3.565   0.408
 4883TIP3   OH236283   2.449   2.200   0.281
 4883TIP3    H136284   2.443   2.291   0.314
 4883TIP3    H236285   2.541   2.177   0.306
 4884TIP3   OH236286   3.470   2.271   1.520
 4884TIP3    H136287   3.379   2.305   1.506
 4884TIP3    H236288   3.502   2.272   1.428
 4885TIP3   OH236289   3.333   2.653   0.920
 4885TIP3    H136290   3.251   2.608   0.893
 4885TIP3    H236291   3.381   2.584   0.972
 4886TIP3   OH236292   2.273   3.246   0.180
 4886TIP3    H136293   2.340   3.307   0.213
 4886TIP3    H236294   2.325   3.198   0.112
 4887TIP3   OH236295   2.112   2.513   0.100
 4887TIP3    H136296   2.110   2.610   0.111
 4887TIP3    H236297   2.025   2.494   0.063
 4888TIP3   OH236298   3.439   3.579   1.088
 4888TIP3    H136299   3.431   3.647   1.018
 4888TIP3    H236300   3.536   3.584   1.106
 4889TIP3   OH236301   2.186   1.991   0.970
 4889TIP3    H136302   2.171   1.993   0.872
 4889TIP3    H236303   2.148   1.904   0.993
 4890TIP3   OH236304   2.084   3.384   0.583
 4890TIP3    H136305   1.998   3.428   0.578
 4890TIP3    H236306   2.131   3.429   0.512
 4891TIP3   OH236307   2.016   3.639   1.701
 4891TIP3    H136308   2.064   3.630   1.786
 4891TIP3    H236309   1.957   3.563   1.705
 4892TIP3   OH236310   2.469   3.536   1.869
 4892TIP3    H136311   2.548   3.493   1.904
 4892TIP3    H236312   2.472   3.513   1.775
 4893TIP3   OH236313   2.924   3.496   0.072
 4893TIP3    H136314   2.839   3.449   0.061
 4893TIP3    H236315   2.974   3.452   0.002
 4894TIP3   OH236316   3.124   3.376   1.744
 4894TIP3    H136317   3.093   3.288   1.774
 4894TIP3    H236318   3.200   3.394   1.803
 4895TIP3   OH236319   3.344   3.469   0.032
 4895TIP3    H136320   3.368   3.388   0.080
 4895TIP3    H236321   3.423   3.488  -0.022
 4896TIP3   OH236322   1.995   3.026   1.807
 4896TIP3    H136323   2.012   2.933   1.779
 4896TIP3    H236324   1.919   3.051   1.751
 4897TIP3   OH236325   2.440   3.068   0.027
 4897TIP3    H136326   2.445   2.984   0.074
 4897TIP3    H236327   2.494   3.045  -0.051
 4898TIP3   OH236328   2.676   3.025   1.748
 4898TIP3    H136329   2.631   3.056   1.668
 4898TIP3    H236330   2.671   2.927   1.739
 4899TIP3   OH236331   3.236   3.011   1.488
 4899TIP3    H136332   3.315   3.068   1.483
 4899TIP3    H236333   3.167   3.078   1.492
 4900TIP3   OH236334   2.082   2.750   1.748
 4900TIP3    H136335   2.131   2.668   1.736
 4900TIP3    H236336   2.062   2.748   1.842
 4901TIP3   OH236337   2.552   2.865   0.255
 4901TIP3    H136338   2.501   2.811   0.318
 4901TIP3    H236339   2.583   2.796   0.192
 4902TIP3   OH236340   2.477   2.641   1.485
 4902TIP3    H136341   2.419   2.713   1.513
 4902TIP3    H236342   2.517   2.679   1.405
 4903TIP3   OH236343   2.660   2.687   0.075
 4903TIP3    H136344   2.649   2.666  -0.019
 4903TIP3    H236345   2.757   2.693   0.086
 4904TIP3   OH236346   2.987   2.902   1.823
 4904TIP3    H136347   3.083   2.897   1.810
 4904TIP3    H236348   2.966   2.826   1.876
 4905TIP3   OH236349   3.576   2.930   8.526
 4905TIP3    H136350   3.567   2.880   8.443
 4905TIP3    H236351   3.599   3.020   8.499
 4906TIP3   OH236352   2.525   2.381   1.592
 4906TIP3    H136353   2.528   2.311   1.525
 4906TIP3    H236354   2.511   2.462   1.537
 4907TIP3   OH236355   2.559   2.218   1.347
 4907TIP3    H136356   2.610   2.264   1.276
 4907TIP3    H236357   2.469   2.210   1.308
 4908TIP3   OH236358   2.713   2.767   1.371
 4908TIP3    H136359   2.787   2.751   1.313
 4908TIP3    H236360   2.676   2.850   1.337
 4909TIP3   OH236361   3.285   2.821   1.676
 4909TIP3    H136362   3.263   2.897   1.619
 4909TIP3    H236363   3.382   2.819   1.664
 4910TIP3   OH236364   2.365   2.505   1.784
 4910TIP3    H136365   2.288   2.449   1.766
 4910TIP3    H236366   2.429   2.472   1.719
 4911TIP3   OH236367   2.637   1.962   1.384
 4911TIP3    H136368   2.619   2.059   1.374
 4911TIP3    H236369   2.563   1.925   1.334
 4912TIP3   OH236370   2.767   2.387   1.748
 4912TIP3    H136371   2.724   2.379   1.834
 4912TIP3    H236372   2.687   2.377   1.690
 4913TIP3   OH236373   3.036   2.315   1.662
 4913TIP3    H136374   2.939   2.312   1.665
 4913TIP3    H236375   3.065   2.241   1.719
 4914TIP3   OH236376   3.184   2.174   1.850
 4914TIP3    H136377   3.192   2.076   1.845
 4914TIP3    H236378   3.173   2.190   1.943
 4915TIP3   OH236379   2.173   2.297   1.756
 4915TIP3    H136380   2.199   2.226   1.695
 4915TIP3    H236381   2.168   2.253   1.841
 4916TIP3   OH236382   2.661   1.900   1.659
 4916TIP3    H136383   2.728   1.829   1.652
 4916TIP3    H236384   2.647   1.918   1.564
 4917TIP3   OH236385   2.641   3.754   0.177
 4917TIP3    H136386   2.738   3.763   0.190
 4917TIP3    H236387   2.625   3.821   0.111
 4918TIP3   OH236388   1.998   3.212   0.131
 4918TIP3    H136389   2.094   3.224   0.150
 4918TIP3    H236390   2.002   3.155   0.053
 4919TIP3   OH236391   1.875   3.749   0.628
 4919TIP3    H136392   1.803   3.701   0.581
 4919TIP3    H236393   1.903   3.683   0.694
 4920TIP3   OH236394   1.958   3.563   0.814
 4920TIP3    H136395   1.921   3.476   0.836
 4920TIP3    H236396   1.981   3.597   0.902
 4921TIP3   OH236397   3.711   3.643   1.107
 4921TIP3    H136398   3.714   3.659   1.203
 4921TIP3    H236399   3.782   3.702   1.077
 4922TIP3   OH236400   3.668   3.603   1.401
 4922TIP3    H136401   3.622   3.525   1.363
 4922TIP3    H236402   3.717   3.558   1.472
 4923TIP3   OH236403   3.515   3.180   1.868
 4923TIP3    H136404   3.427   3.168   1.908
 4923TIP3    H236405   3.548   3.258   1.912
 4924TIP3   OH236406   3.646   3.007   0.411
 4924TIP3    H136407   3.731   3.049   0.434
 4924TIP3    H236408   3.643   2.937   0.480
 4925TIP3   OH236409   3.680   2.816   0.601
 4925TIP3    H136410   3.605   2.765   0.638
 4925TIP3    H236411   3.740   2.828   0.677
 4926TIP3   OH236412   3.656   3.085   1.099
 4926TIP3    H136413   3.737   3.047   1.061
 4926TIP3    H236414   3.671   3.180   1.083
 4927TIP3   OH236415   3.512   3.375   1.326
 4927TIP3    H136416   3.443   3.410   1.385
 4927TIP3    H236417   3.457   3.335   1.255
 4928TIP3   OH236418   3.710   2.797   0.238
 4928TIP3    H136419   3.650   2.833   0.169
 4928TIP3    H236420   3.703   2.867   0.305
 4929TIP3   OH236421   3.508   2.523   0.101
 4929TIP3    H136422   3.554   2.582   0.039
 4929TIP3    H236423   3.527   2.439   0.056
 4930TIP3   OH236424   3.463   2.663   0.658
 4930TIP3    H136425   3.448   2.567   0.653
 4930TIP3    H236426   3.430   2.684   0.748
 4931TIP3   OH236427   1.963   2.871   1.064
 4931TIP3    H136428   1.981   2.863   0.968
 4931TIP3    H236429   2.053   2.853   1.099
 4932TIP3   OH236430   3.547   2.857   1.624
 4932TIP3    H136431   3.610   2.784   1.640
 4932TIP3    H236432   3.606   2.935   1.627
 4933TIP3   OH236433   3.698   2.648   1.689
 4933TIP3    H136434   3.610   2.606   1.676
 4933TIP3    H236435   3.755   2.569   1.685
 4934TIP3   OH236436   3.473   2.262   0.001
 4934TIP3    H136437   3.531   2.220   0.069
 4934TIP3    H236438   3.384   2.231   0.023
 4935TIP3   OH236439   3.429   2.421   0.506
 4935TIP3    H136440   3.460   2.328   0.516
 4935TIP3    H236441   3.507   2.461   0.465
 4936TIP3   OH236442   3.493   2.475   1.048
 4936TIP3    H136443   3.589   2.498   1.046
 4936TIP3    H236444   3.475   2.489   1.142
 4937TIP3   OH236445   3.500   2.548   1.326
 4937TIP3    H136446   3.412   2.577   1.357
 4937TIP3    H236447   3.544   2.633   1.304
 4938TIP3   OH236448   1.924   2.391   1.670
 4938TIP3    H136449   2.018   2.382   1.695
 4938TIP3    H236450   1.881   2.318   1.714
 4939TIP3   OH236451   3.726   1.952   1.859
 4939TIP3    H136452   3.763   1.885   1.800
 4939TIP3    H236453   3.738   2.034   1.809
 4940TIP3   OH236454   3.497   2.149   0.508
 4940TIP3    H136455   3.518   2.106   0.594
 4940TIP3    H236456   3.436   2.085   0.464
 4941TIP3   OH236457   2.045   2.229   0.964
 4941TIP3    H136458   2.093   2.148   0.990
 4941TIP3    H236459   2.100   2.299   1.002
 4942TIP3   OH236460   1.873   2.531   1.069
 4942TIP3    H136461   1.929   2.505   0.992
 4942TIP3    H236462   1.920   2.611   1.094
 4943TIP3   OH236463   3.681   2.166   1.693
 4943TIP3    H136464   3.586   2.189   1.690
 4943TIP3    H236465   3.683   2.109   1.615
 4944TIP3   OH236466   3.678   2.156   0.164
 4944TIP3    H136467   3.721   2.084   0.115
 4944TIP3    H236468   3.750   2.220   0.167
 4945TIP3   OH236469   1.908   2.154   0.473
 4945TIP3    H136470   1.815   2.176   0.462
 4945TIP3    H236471   1.952   2.205   0.402
 4946TIP3   OH236472   3.383   3.651   0.671
 4946TIP3    H136473   3.451   3.621   0.609
 4946TIP3    H236474   3.435   3.701   0.736
 4947TIP3   OH236475   1.905   2.020   1.302
 4947TIP3    H136476   1.841   2.003   1.373
 4947TIP3    H236477   1.860   2.092   1.252
 4948TIP3   OH236478   2.124   3.348   1.718
 4948TIP3    H136479   2.034   3.359   1.687
 4948TIP3    H236480   2.107   3.337   1.813
 4949TIP3   OH236481   2.415   3.443   1.347
 4949TIP3    H136482   2.388   3.532   1.320
 4949TIP3    H236483   2.509   3.449   1.320
 4950TIP3   OH236484   2.852   3.582   1.640
 4950TIP3    H136485   2.866   3.554   1.733
 4950TIP3    H236486   2.941   3.615   1.617
 4951TIP3   OH236487   3.079   3.710   1.566
 4951TIP3    H136488   3.154   3.652   1.546
 4951TIP3    H236489   3.114   3.753   1.649
 4952TIP3   OH236490   3.582   1.973   1.480
 4952TIP3    H136491   3.498   2.002   1.440
 4952TIP3    H236492   3.598   1.890   1.430
 4953TIP3   OH236493   2.154   3.756   1.348
 4953TIP3    H136494   2.089   3.818   1.307
 4953TIP3    H236495   2.129   3.758   1.442
 4954TIP3   OH236496   2.405   3.721   1.254
 4954TIP3    H136497   2.318   3.742   1.295
 4954TIP3    H236498   2.404   3.783   1.178
 4955TIP3   OH236499   2.878   3.715   1.173
 4955TIP3    H136500   2.832   3.771   1.108
 4955TIP3    H236501   2.891   3.778   1.246
 4956TIP3   OH236502   3.107   3.595   1.276
 4956TIP3    H136503   3.022   3.624   1.238
 4956TIP3    H236504   3.156   3.679   1.267
 4957TIP3   OH236505   3.365   3.752   1.297
 4957TIP3    H136506   3.360   3.848   1.275
 4957TIP3    H236507   3.387   3.715   1.210
 4958TIP3   OH236508   2.108   3.631   1.042
 4958TIP3    H136509   2.098   3.584   1.127
 4958TIP3    H236510   2.190   3.593   1.002
 4959TIP3   OH236511   2.315   3.502   0.908
 4959TIP3    H136512   2.298   3.409   0.931
 4959TIP3    H236513   2.400   3.518   0.953
 4960TIP3   OH236514   2.576   3.551   0.996
 4960TIP3    H136515   2.591   3.458   0.969
 4960TIP3    H236516   2.580   3.545   1.092
 4961TIP3   OH236517   2.920   2.116   0.909
 4961TIP3    H136518   2.853   2.052   0.938
 4961TIP3    H236519   2.975   2.062   0.851
 4962TIP3   OH236520   3.434   1.920   0.915
 4962TIP3    H136521   3.495   1.980   0.864
 4962TIP3    H236522   3.345   1.956   0.893
 4963TIP3   OH236523   3.600   2.046   0.743
 4963TIP3    H136524   3.669   1.987   0.702
 4963TIP3    H236525   3.652   2.129   0.754
 4964TIP3   OH236526   2.155   1.976   0.698
 4964TIP3    H136527   2.079   1.960   0.639
 4964TIP3    H236528   2.204   1.893   0.687
 4965TIP3   OH236529   2.031   1.954   0.265
 4965TIP3    H136530   2.082   2.018   0.212
 4965TIP3    H236531   1.979   2.012   0.323
 4966TIP3   OH236532   2.604   1.971   0.673
 4966TIP3    H136533   2.694   2.006   0.665
 4966TIP3    H236534   2.601   1.949   0.766
 4967TIP3   OH236535   3.176   1.972   0.835
 4967TIP3    H136536   3.171   1.984   0.739
 4967TIP3    H236537   3.138   1.882   0.847
 4968TIP3   OH236538   3.302   1.974   0.400
 4968TIP3    H136539   3.228   2.035   0.386
 4968TIP3    H236540   3.258   1.889   0.424
 4969TIP3   OH236541   2.026   3.550   0.368
 4969TIP3    H136542   1.959   3.549   0.298
 4969TIP3    H236543   2.029   3.645   0.383
 4970TIP3   OH236544   2.216   2.138   0.122
 4970TIP3    H136545   2.271   2.085   0.065
 4970TIP3    H236546   2.282   2.182   0.178
 4971TIP3   OH236547   2.720   2.172   0.358
 4971TIP3    H136548   2.746   2.115   0.432
 4971TIP3    H236549   2.727   2.259   0.404
 4972TIP3   OH236550   2.909   3.709   0.203
 4972TIP3    H136551   3.006   3.707   0.189
 4972TIP3    H236552   2.892   3.635   0.141
 4973TIP3   OH236553   3.582   3.630   0.474
 4973TIP3    H136554   3.563   3.552   0.417
 4973TIP3    H236555   3.574   3.703   0.410
 4974TIP3   OH236556   2.142   2.033   1.642
 4974TIP3    H136557   2.108   1.951   1.681
 4974TIP3    H236558   2.235   2.029   1.675
 4975TIP3   OH236559   2.346   1.969   1.798
 4975TIP3    H136560   2.435   1.939   1.776
 4975TIP3    H236561   2.310   1.891   1.844
 4976TIP3   OH236562   2.212   3.648   0.064
 4976TIP3    H136563   2.178   3.673   0.151
 4976TIP3    H236564   2.286   3.590   0.082
 4977TIP3   OH236565   3.187   1.905   1.820
 4977TIP3    H136566   3.196   1.854   1.903
 4977TIP3    H236567   3.278   1.896   1.782
 4978TIP3   OH236568   3.507   3.504   1.684
 4978TIP3    H136569   3.428   3.491   1.628
 4978TIP3    H236570   3.495   3.598   1.705
 4979TIP3   OH236571   4.955   2.892   0.680
 4979TIP3    H136572   4.951   2.990   0.677
 4979TIP3    H236573   4.880   2.869   0.621
 4980TIP3   OH236574   4.837   2.817   1.030
 4980TIP3    H136575   4.835   2.753   1.102
 4980TIP3    H236576   4.802   2.767   0.955
 4981TIP3   OH236577   4.072   2.785   1.185
 4981TIP3    H136578   4.081   2.716   1.254
 4981TIP3    H236579   4.147   2.842   1.207
 4982TIP3   OH236580   5.209   3.109   0.860
 4982TIP3    H136581   5.162   3.042   0.909
 4982TIP3    H236582   5.208   3.183   0.924
 4983TIP3   OH236583   4.165   3.230   1.035
 4983TIP3    H136584   4.134   3.143   1.003
 4983TIP3    H236585   4.260   3.212   1.039
 4984TIP3   OH236586   3.829   2.585   0.584
 4984TIP3    H136587   3.785   2.673   0.578
 4984TIP3    H236588   3.772   2.532   0.526
 4985TIP3   OH236589   3.900   2.808   0.799
 4985TIP3    H136590   3.928   2.726   0.844
 4985TIP3    H236591   3.969   2.819   0.732
 4986TIP3   OH236592   4.917   3.628   0.882
 4986TIP3    H136593   4.982   3.560   0.853
 4986TIP3    H236594   4.896   3.594   0.969
 4987TIP3   OH236595   4.675   3.057   1.078
 4987TIP3    H136596   4.708   2.995   1.011
 4987TIP3    H236597   4.756   3.073   1.129
 4988TIP3   OH236598   5.528   2.230   1.145
 4988TIP3    H136599   5.553   2.278   1.228
 4988TIP3    H236600   5.596   2.264   1.086
 4989TIP3   OH236601   4.997   2.505   1.107
 4989TIP3    H136602   5.006   2.408   1.110
 4989TIP3    H236603   4.978   2.517   1.012
 4990TIP3   OH236604   4.302   2.313   0.830
 4990TIP3    H136605   4.314   2.397   0.780
 4990TIP3    H236606   4.263   2.256   0.761
 4991TIP3   OH236607   5.076   2.323   0.668
 4991TIP3    H136608   5.141   2.288   0.733
 4991TIP3    H236609   5.133   2.377   0.611
 4992TIP3   OH236610   3.965   2.554   0.903
 4992TIP3    H136611   4.032   2.500   0.949
 4992TIP3    H236612   3.976   2.523   0.812
 4993TIP3   OH236613   4.481   2.710   0.836
 4993TIP3    H136614   4.548   2.652   0.875
 4993TIP3    H236615   4.429   2.645   0.784
 4994TIP3   OH236616   5.579   2.370   1.372
 4994TIP3    H136617   5.514   2.442   1.370
 4994TIP3    H236618   5.585   2.349   1.467
 4995TIP3   OH236619   4.194   2.203   1.234
 4995TIP3    H136620   4.166   2.260   1.159
 4995TIP3    H236621   4.126   2.226   1.302
 4996TIP3   OH236622   4.921   3.150   0.588
 4996TIP3    H136623   4.894   3.124   0.498
 4996TIP3    H236624   4.891   3.244   0.593
 4997TIP3   OH236625   4.445   2.967   1.256
 4997TIP3    H136626   4.375   3.032   1.281
 4997TIP3    H236627   4.516   3.027   1.228
 4998TIP3   OH236628   5.258   2.258   0.868
 4998TIP3    H136629   5.236   2.179   0.918
 4998TIP3    H236630   5.327   2.296   0.924
 4999TIP3   OH236631   4.151   2.389   1.038
 4999TIP3    H136632   4.213   2.458   1.069
 4999TIP3    H236633   4.202   2.348   0.964
 5000TIP3   OH236634   4.290   3.168   1.340
 5000TIP3    H136635   4.285   3.259   1.307
 5000TIP3    H236636   4.201   3.160   1.384
 5001TIP3   OH236637   3.896   3.129   0.418
 5001TIP3    H136638   3.876   3.164   0.329
 5001TIP3    H236639   3.904   3.211   0.471
 5002TIP3   OH236640   5.259   3.296   1.095
 5002TIP3    H136641   5.162   3.307   1.107
 5002TIP3    H236642   5.285   3.388   1.074
 5003TIP3   OH236643   5.288   2.122   1.232
 5003TIP3    H136644   5.219   2.189   1.225
 5003TIP3    H236645   5.363   2.164   1.184
 5004TIP3   OH236646   4.587   1.937   0.980
 5004TIP3    H136647   4.572   1.840   0.973
 5004TIP3    H236648   4.499   1.967   1.011
 5005TIP3   OH236649   5.085   3.475   0.754
 5005TIP3    H136650   5.127   3.403   0.703
 5005TIP3    H236651   5.129   3.553   0.716
 5006TIP3   OH236652   5.206   3.267   0.605
 5006TIP3    H136653   5.176   3.198   0.543
 5006TIP3    H236654   5.209   3.218   0.689
 5007TIP3   OH236655   5.368   3.127   1.457
 5007TIP3    H136656   5.382   3.061   1.384
 5007TIP3    H236657   5.387   3.211   1.412
 5008TIP3   OH236658   4.818   2.816   0.430
 5008TIP3    H136659   4.749   2.874   0.391
 5008TIP3    H236660   4.888   2.825   0.364
 5009TIP3   OH236661   4.821   2.670   0.140
 5009TIP3    H136662   4.894   2.670   0.203
 5009TIP3    H236663   4.854   2.606   0.076
 5010TIP3   OH236664   5.553   2.755   1.253
 5010TIP3    H136665   5.492   2.831   1.265
 5010TIP3    H236666   5.610   2.786   1.180
 5011TIP3   OH236667   5.163   2.839   0.527
 5011TIP3    H136668   5.086   2.862   0.584
 5011TIP3    H236669   5.207   2.769   0.575
 5012TIP3   OH236670   5.154   2.652   1.436
 5012TIP3    H136671   5.155   2.734   1.489
 5012TIP3    H236672   5.090   2.682   1.368
 5013TIP3   OH236673   4.323   2.903   0.715
 5013TIP3    H136674   4.291   2.863   0.630
 5013TIP3    H236675   4.385   2.834   0.749
 5014TIP3   OH236676   4.455   3.241   0.983
 5014TIP3    H136677   4.455   3.189   0.902
 5014TIP3    H236678   4.533   3.205   1.029
 5015TIP3   OH236679   4.356   2.777   1.082
 5015TIP3    H136680   4.410   2.787   1.001
 5015TIP3    H236681   4.395   2.844   1.142
 5016TIP3   OH236682   4.999   3.335   1.152
 5016TIP3    H136683   4.968   3.399   1.217
 5016TIP3    H236684   4.972   3.250   1.195
 5017TIP3   OH236685   4.450   3.220   1.555
 5017TIP3    H136686   4.408   3.296   1.600
 5017TIP3    H236687   4.386   3.200   1.482
 5018TIP3   OH236688   5.051   2.754   0.292
 5018TIP3    H136689   5.104   2.776   0.371
 5018TIP3    H236690   5.089   2.810   0.222
 5019TIP3   OH236691   4.146   2.837   1.467
 5019TIP3    H136692   4.151   2.904   1.538
 5019TIP3    H236693   4.052   2.845   1.444
 5020TIP3   OH236694   4.820   3.429   0.639
 5020TIP3    H136695   4.864   3.460   0.718
 5020TIP3    H236696   4.766   3.504   0.612
 5021TIP3   OH236697   4.277   3.423   1.627
 5021TIP3    H136698   4.271   3.415   1.530
 5021TIP3    H236699   4.182   3.412   1.651
 5022TIP3   OH236700   5.421   1.930   0.280
 5022TIP3    H136701   5.326   1.940   0.304
 5022TIP3    H236702   5.443   2.015   0.240
 5023TIP3   OH236703   4.219   2.805   0.477
 5023TIP3    H136704   4.192   2.882   0.423
 5023TIP3    H236705   4.154   2.738   0.453
 5024TIP3   OH236706   5.531   3.361   0.116
 5024TIP3    H136707   5.543   3.457   0.128
 5024TIP3    H236708   5.625   3.335   0.111
 5025TIP3   OH236709   3.829   3.048   1.366
 5025TIP3    H136710   3.785   3.039   1.280
 5025TIP3    H236711   3.837   2.953   1.389
 5026TIP3   OH236712   3.805   3.321   1.044
 5026TIP3    H136713   3.901   3.310   1.042
 5026TIP3    H236714   3.797   3.403   1.095
 5027TIP3   OH236715   5.629   3.392   1.617
 5027TIP3    H136716   5.617   3.296   1.608
 5027TIP3    H236717   5.540   3.417   1.650
 5028TIP3   OH236718   4.725   3.348   1.497
 5028TIP3    H136719   4.731   3.429   1.552
 5028TIP3    H236720   4.639   3.310   1.523
 5029TIP3   OH236721   4.768   3.720   0.478
 5029TIP3    H136722   4.760   3.714   0.381
 5029TIP3    H236723   4.772   3.816   0.495
 5030TIP3   OH236724   4.133   3.608   0.661
 5030TIP3    H136725   4.148   3.567   0.749
 5030TIP3    H236726   4.048   3.567   0.638
 5031TIP3   OH236727   5.072   3.642   0.176
 5031TIP3    H136728   5.117   3.565   0.133
 5031TIP3    H236729   5.079   3.616   0.270
 5032TIP3   OH236730   5.043   3.635   0.455
 5032TIP3    H136731   4.947   3.642   0.474
 5032TIP3    H236732   5.068   3.561   0.512
 5033TIP3   OH236733   5.343   2.539   1.660
 5033TIP3    H136734   5.294   2.584   1.590
 5033TIP3    H236735   5.345   2.446   1.630
 5034TIP3   OH236736   4.058   3.179   1.462
 5034TIP3    H136737   4.079   3.142   1.551
 5034TIP3    H236738   3.972   3.139   1.438
 5035TIP3   OH236739   4.326   2.027   1.055
 5035TIP3    H136740   4.236   2.014   1.019
 5035TIP3    H236741   4.312   2.110   1.104
 5036TIP3   OH236742   4.790   1.995   1.393
 5036TIP3    H136743   4.829   1.952   1.471
 5036TIP3    H236744   4.693   1.982   1.406
 5037TIP3   OH236745   5.118   2.378   1.481
 5037TIP3    H136746   5.063   2.358   1.560
 5037TIP3    H236747   5.103   2.472   1.460
 5038TIP3   OH236748   5.200   2.866   0.075
 5038TIP3    H136749   5.201   2.840  -0.018
 5038TIP3    H236750   5.288   2.906   0.090
 5039TIP3   OH236751   4.755   2.251   0.127
 5039TIP3    H136752   4.722   2.246   0.218
 5039TIP3    H236753   4.727   2.164   0.097
 5040TIP3   OH236754   4.336   2.525   1.181
 5040TIP3    H136755   4.263   2.524   1.246
 5040TIP3    H236756   4.331   2.615   1.144
 5041TIP3   OH236757   4.332   2.535   0.668
 5041TIP3    H136758   4.238   2.511   0.654
 5041TIP3    H236759   4.369   2.507   0.582
 5042TIP3   OH236760   4.885   2.585   0.542
 5042TIP3    H136761   4.844   2.669   0.509
 5042TIP3    H236762   4.953   2.570   0.474
 5043TIP3   OH236763   4.787   2.602   1.693
 5043TIP3    H136764   4.737   2.527   1.723
 5043TIP3    H236765   4.874   2.596   1.739
 5044TIP3   OH236766   4.993   2.537   0.828
 5044TIP3    H136767   4.957   2.591   0.756
 5044TIP3    H236768   4.995   2.450   0.783
 5045TIP3   OH236769   4.099   2.549   1.349
 5045TIP3    H136770   4.109   2.590   1.437
 5045TIP3    H236771   4.054   2.465   1.370
 5046TIP3   OH236772   4.453   2.311   0.067
 5046TIP3    H136773   4.398   2.249   0.119
 5046TIP3    H236774   4.393   2.350   0.004
 5047TIP3   OH236775   3.764   2.260   0.748
 5047TIP3    H136776   3.833   2.256   0.818
 5047TIP3    H236777   3.809   2.223   0.670
 5048TIP3   OH236778   3.893   2.333   0.284
 5048TIP3    H136779   3.943   2.391   0.223
 5048TIP3    H236780   3.825   2.395   0.315
 5049TIP3   OH236781   4.906   2.694   1.283
 5049TIP3    H136782   4.945   2.625   1.226
 5049TIP3    H236783   4.860   2.641   1.350
 5050TIP3   OH236784   4.587   2.292   0.769
 5050TIP3    H136785   4.494   2.292   0.797
 5050TIP3    H236786   4.635   2.274   0.851
 5051TIP3   OH236787   4.068   2.446   0.655
 5051TIP3    H136788   3.980   2.462   0.615
 5051TIP3    H236789   4.097   2.363   0.614
 5052TIP3   OH236790   4.432   2.453   0.418
 5052TIP3    H136791   4.528   2.463   0.434
 5052TIP3    H236792   4.409   2.518   0.349
 5053TIP3   OH236793   5.028   2.215   1.091
 5053TIP3    H136794   4.960   2.220   1.162
 5053TIP3    H236795   4.977   2.189   1.014
 5054TIP3   OH236796   4.302   2.568   0.178
 5054TIP3    H136797   4.247   2.534   0.105
 5054TIP3    H236798   4.385   2.591   0.131
 5055TIP3   OH236799   5.348   3.778   1.725
 5055TIP3    H136800   5.376   3.820   1.641
 5055TIP3    H236801   5.417   3.810   1.786
 5056TIP3   OH236802   4.115   3.025   1.681
 5056TIP3    H136803   4.186   3.053   1.739
 5056TIP3    H236804   4.037   3.034   1.741
 5057TIP3   OH236805   4.716   2.567   0.957
 5057TIP3    H136806   4.775   2.513   0.904
 5057TIP3    H236807   4.701   2.512   1.035
 5058TIP3   OH236808   4.216   2.181   0.603
 5058TIP3    H136809   4.185   2.089   0.600
 5058TIP3    H236810   4.295   2.175   0.546
 5059TIP3   OH236811   4.579   2.399   1.199
 5059TIP3    H136812   4.497   2.452   1.207
 5059TIP3    H236813   4.635   2.435   1.271
 5060TIP3   OH236814   4.639   3.019   0.372
 5060TIP3    H136815   4.558   2.975   0.337
 5060TIP3    H236816   4.616   3.033   0.465
 5061TIP3   OH236817   5.359   2.938   1.244
 5061TIP3    H136818   5.413   2.993   1.185
 5061TIP3    H236819   5.270   2.949   1.204
 5062TIP3   OH236820   5.025   2.301   0.187
 5062TIP3    H136821   4.931   2.317   0.169
 5062TIP3    H236822   5.055   2.389   0.217
 5063TIP3   OH236823   4.788   3.049   1.490
 5063TIP3    H136824   4.754   3.006   1.569
 5063TIP3    H236825   4.762   3.141   1.503
 5064TIP3   OH236826   5.095   2.496   0.352
 5064TIP3    H136827   5.184   2.481   0.388
 5064TIP3    H236828   5.104   2.577   0.300
 5065TIP3   OH236829   4.150   2.962   0.949
 5065TIP3    H136830   4.217   2.953   0.879
 5065TIP3    H236831   4.155   2.876   0.994
 5066TIP3   OH236832   4.849   3.167   0.281
 5066TIP3    H136833   4.810   3.253   0.307
 5066TIP3    H236834   4.774   3.105   0.293
 5067TIP3   OH236835   3.848   2.801   1.473
 5067TIP3    H136836   3.865   2.758   1.559
 5067TIP3    H236837   3.786   2.740   1.430
 5068TIP3   OH236838   4.548   2.756   1.692
 5068TIP3    H136839   4.517   2.728   1.604
 5068TIP3    H236840   4.642   2.730   1.690
 5069TIP3   OH236841   5.019   3.291   1.488
 5069TIP3    H136842   4.927   3.309   1.464
 5069TIP3    H236843   5.015   3.320   1.581
 5070TIP3   OH236844   5.583   2.509   0.331
 5070TIP3    H136845   5.529   2.478   0.257
 5070TIP3    H236846   5.593   2.602   0.303
 5071TIP3   OH236847   5.584   3.094   1.609
 5071TIP3    H136848   5.496   3.116   1.570
 5071TIP3    H236849   5.639   3.089   1.528
 5072TIP3   OH236850   5.414   3.391   0.365
 5072TIP3    H136851   5.377   3.309   0.398
 5072TIP3    H236852   5.444   3.371   0.274
 5073TIP3   OH236853   5.135   2.873   1.075
 5073TIP3    H136854   5.040   2.855   1.066
 5073TIP3    H236855   5.175   2.796   1.034
 5074TIP3   OH236856   4.386   3.307   0.687
 5074TIP3    H136857   4.436   3.388   0.666
 5074TIP3    H236858   4.299   3.330   0.654
 5075TIP3   OH236859   3.959   2.793   0.139
 5075TIP3    H136860   4.022   2.855   0.182
 5075TIP3    H236861   3.872   2.820   0.174
 5076TIP3   OH236862   4.528   3.073   0.639
 5076TIP3    H136863   4.496   3.165   0.647
 5076TIP3    H236864   4.456   3.024   0.683
 5077TIP3   OH236865   4.573   3.492   1.280
 5077TIP3    H136866   4.619   3.573   1.251
 5077TIP3    H236867   4.637   3.457   1.344
 5078TIP3   OH236868   4.396   3.573   0.590
 5078TIP3    H136869   4.300   3.587   0.606
 5078TIP3    H236870   4.432   3.656   0.626
 5079TIP3   OH236871   4.925   3.091   1.241
 5079TIP3    H136872   4.893   3.074   1.332
 5079TIP3    H236873   4.989   3.020   1.225
 5080TIP3   OH236874   5.156   3.190   0.153
 5080TIP3    H136875   5.183   3.150   0.238
 5080TIP3    H236876   5.059   3.181   0.160
 5081TIP3   OH236877   5.207   3.551   1.492
 5081TIP3    H136878   5.138   3.501   1.443
 5081TIP3    H236879   5.226   3.620   1.425
 5082TIP3   OH236880   5.606   3.638   0.176
 5082TIP3    H136881   5.675   3.702   0.150
 5082TIP3    H236882   5.534   3.698   0.205
 5083TIP3   OH236883   4.012   2.275   1.428
 5083TIP3    H136884   3.922   2.310   1.427
 5083TIP3    H236885   4.003   2.191   1.476
 5084TIP3   OH236886   5.238   3.060   0.375
 5084TIP3    H136887   5.213   2.980   0.426
 5084TIP3    H236888   5.332   3.068   0.399
 5085TIP3   OH236889   3.974   3.453   1.272
 5085TIP3    H136890   4.006   3.362   1.273
 5085TIP3    H236891   4.000   3.483   1.360
 5086TIP3   OH236892   4.449   3.263   0.243
 5086TIP3    H136893   4.476   3.206   0.317
 5086TIP3    H236894   4.458   3.354   0.279
 5087TIP3   OH236895   4.098   2.985   0.288
 5087TIP3    H136896   4.033   3.026   0.349
 5087TIP3    H236897   4.156   3.061   0.267
 5088TIP3   OH236898   4.887   2.253   1.325
 5088TIP3    H136899   4.958   2.258   1.389
 5088TIP3    H236900   4.848   2.165   1.345
 5089TIP3   OH236901   4.960   2.211   0.436
 5089TIP3    H136902   4.985   2.256   0.353
 5089TIP3    H236903   5.019   2.254   0.499
 5090TIP3   OH236904   4.730   3.427   0.317
 5090TIP3    H136905   4.648   3.479   0.323
 5090TIP3    H236906   4.784   3.475   0.251
 5091TIP3   OH236907   4.683   2.384   0.516
 5091TIP3    H136908   4.761   2.443   0.519
 5091TIP3    H236909   4.656   2.372   0.608
 5092TIP3   OH236910   4.738   2.486   1.433
 5092TIP3    H136911   4.748   2.546   1.510
 5092TIP3    H236912   4.807   2.419   1.442
 5093TIP3   OH236913   4.769   2.090   0.603
 5093TIP3    H136914   4.736   2.155   0.667
 5093TIP3    H236915   4.838   2.145   0.559
 5094TIP3   OH236916   4.467   3.531   0.320
 5094TIP3    H136917   4.485   3.613   0.269
 5094TIP3    H236918   4.442   3.565   0.408
 5095TIP3   OH236919   4.334   2.200   0.281
 5095TIP3    H136920   4.329   2.291   0.314
 5095TIP3    H236921   4.426   2.177   0.306
 5096TIP3   OH236922   5.357   2.275   1.521
 5096TIP3    H136923   5.264   2.305   1.507
 5096TIP3    H236924   5.389   2.270   1.430
 5097TIP3   OH236925   5.218   2.650   0.919
 5097TIP3    H136926   5.131   2.611   0.893
 5097TIP3    H236927   5.249   2.580   0.981
 5098TIP3   OH236928   4.159   3.246   0.180
 5098TIP3    H136929   4.225   3.307   0.212
 5098TIP3    H236930   4.210   3.198   0.112
 5099TIP3   OH236931   3.998   2.513   0.100
 5099TIP3    H136932   3.995   2.610   0.111
 5099TIP3    H236933   3.911   2.494   0.063
 5100TIP3   OH236934   5.325   3.579   1.088
 5100TIP3    H136935   5.316   3.647   1.018
 5100TIP3    H236936   5.421   3.584   1.105
 5101TIP3   OH236937   4.074   1.991   0.969
 5101TIP3    H136938   4.055   1.993   0.873
 5101TIP3    H236939   4.033   1.905   0.994
 5102TIP3   OH236940   3.970   3.383   0.583
 5102TIP3    H136941   3.884   3.427   0.579
 5102TIP3    H236942   4.016   3.429   0.512
 5103TIP3   OH236943   3.891   3.647   1.710
 5103TIP3    H136944   3.953   3.626   1.783
 5103TIP3    H236945   3.849   3.561   1.693
 5104TIP3   OH236946   4.352   3.536   1.874
 5104TIP3    H136947   4.434   3.496   1.905
 5104TIP3    H236948   4.355   3.514   1.778
 5105TIP3   OH236949   4.810   3.495   0.071
 5105TIP3    H136950   4.727   3.446   0.057
 5105TIP3    H236951   4.861   3.453  -0.000
 5106TIP3   OH236952   5.014   3.375   1.741
 5106TIP3    H136953   4.975   3.292   1.778
 5106TIP3    H236954   5.084   3.393   1.806
 5107TIP3   OH236955   5.230   3.470   0.032
 5107TIP3    H136956   5.254   3.388   0.079
 5107TIP3    H236957   5.305   3.489  -0.024
 5108TIP3   OH236958   3.883   3.021   1.813
 5108TIP3    H136959   3.897   2.932   1.776
 5108TIP3    H236960   3.809   3.053   1.757
 5109TIP3   OH236961   4.325   3.067   0.027
 5109TIP3    H136962   4.330   2.984   0.074
 5109TIP3    H236963   4.380   3.045  -0.050
 5110TIP3   OH236964   4.556   3.022   1.751
 5110TIP3    H136965   4.521   3.058   1.667
 5110TIP3    H236966   4.561   2.926   1.734
 5111TIP3   OH236967   5.122   3.010   1.489
 5111TIP3    H136968   5.200   3.068   1.482
 5111TIP3    H236969   5.052   3.077   1.494
 5112TIP3   OH236970   3.970   2.748   1.747
 5112TIP3    H136971   4.012   2.661   1.737
 5112TIP3    H236972   3.948   2.748   1.841
 5113TIP3   OH236973   4.438   2.865   0.255
 5113TIP3    H136974   4.387   2.811   0.318
 5113TIP3    H236975   4.470   2.796   0.192
 5114TIP3   OH236976   4.364   2.643   1.488
 5114TIP3    H136977   4.303   2.714   1.511
 5114TIP3    H236978   4.402   2.678   1.405
 5115TIP3   OH236979   4.545   2.687   0.075
 5115TIP3    H136980   4.536   2.667  -0.019
 5115TIP3    H236981   4.643   2.693   0.087
 5116TIP3   OH236982   4.869   2.896   1.822
 5116TIP3    H136983   4.965   2.901   1.807
 5116TIP3    H236984   4.858   2.821   1.880
 5117TIP3   OH236985   5.456   2.933   8.531
 5117TIP3    H136986   5.471   2.867   8.460
 5117TIP3    H236987   5.496   3.019   8.509
 5118TIP3   OH236988   4.405   2.382   1.588
 5118TIP3    H136989   4.414   2.310   1.523
 5118TIP3    H236990   4.399   2.462   1.533
 5119TIP3   OH236991   4.445   2.219   1.347
 5119TIP3    H136992   4.495   2.265   1.276
 5119TIP3    H236993   4.355   2.210   1.308
 5120TIP3   OH236994   4.599   2.766   1.370
 5120TIP3    H136995   4.674   2.752   1.312
 5120TIP3    H236996   4.560   2.850   1.340
 5121TIP3   OH236997   5.038   2.543   1.858
 5121TIP3    H136998   5.064   2.451   1.867
 5121TIP3    H236999   5.124   2.587   1.869
 5122TIP3   OH237000   5.171   2.822   1.678
 5122TIP3    H137001   5.147   2.895   1.618
 5122TIP3    H237002   5.267   2.817   1.662
 5123TIP3   OH237003   4.250   2.507   1.784
 5123TIP3    H137004   4.174   2.449   1.767
 5123TIP3    H237005   4.314   2.469   1.721
 5124TIP3   OH237006   4.523   1.963   1.386
 5124TIP3    H137007   4.504   2.059   1.374
 5124TIP3    H237008   4.448   1.925   1.337
 5125TIP3   OH237009   4.922   2.311   1.658
 5125TIP3    H137010   4.826   2.308   1.666
 5125TIP3    H237011   4.954   2.244   1.722
 5126TIP3   OH237012   5.081   2.174   1.855
 5126TIP3    H137013   5.070   2.076   1.848
 5126TIP3    H237014   5.048   2.194   1.944
 5127TIP3   OH237015   4.059   2.297   1.757
 5127TIP3    H137016   4.083   2.224   1.698
 5127TIP3    H237017   4.052   2.254   1.845
 5128TIP3   OH237018   4.542   1.899   1.658
 5128TIP3    H137019   4.612   1.831   1.653
 5128TIP3    H237020   4.531   1.917   1.562
 5129TIP3   OH237021   4.527   3.754   0.177
 5129TIP3    H137022   4.624   3.763   0.190
 5129TIP3    H237023   4.511   3.821   0.111
 5130TIP3   OH237024   3.885   3.212   0.132
 5130TIP3    H137025   3.981   3.222   0.152
 5130TIP3    H237026   3.889   3.156   0.054
 5131TIP3   OH237027   3.761   3.750   0.627
 5131TIP3    H137028   3.689   3.701   0.581
 5131TIP3    H237029   3.789   3.685   0.693
 5132TIP3   OH237030   3.843   3.564   0.815
 5132TIP3    H137031   3.807   3.476   0.835
 5132TIP3    H237032   3.866   3.597   0.903
 5133TIP3   OH237033   5.597   3.643   1.107
 5133TIP3    H137034   5.600   3.659   1.203
 5133TIP3    H237035   5.667   3.702   1.077
 5134TIP3   OH237036   5.554   3.602   1.400
 5134TIP3    H137037   5.507   3.525   1.363
 5134TIP3    H237038   5.604   3.559   1.471
 5135TIP3   OH237039   5.532   3.007   0.413
 5135TIP3    H137040   5.617   3.049   0.434
 5135TIP3    H237041   5.529   2.937   0.480
 5136TIP3   OH237042   5.565   2.817   0.600
 5136TIP3    H137043   5.490   2.766   0.636
 5136TIP3    H237044   5.627   2.830   0.675
 5137TIP3   OH237045   5.541   3.084   1.098
 5137TIP3    H137046   5.624   3.049   1.061
 5137TIP3    H237047   5.556   3.180   1.083
 5138TIP3   OH237048   5.398   3.375   1.327
 5138TIP3    H137049   5.328   3.410   1.385
 5138TIP3    H237050   5.343   3.336   1.255
 5139TIP3   OH237051   5.597   2.798   0.236
 5139TIP3    H137052   5.536   2.835   0.171
 5139TIP3    H237053   5.589   2.866   0.307
 5140TIP3   OH237054   5.393   2.526   0.099
 5140TIP3    H137055   5.443   2.581   0.037
 5140TIP3    H237056   5.412   2.439   0.058
 5141TIP3   OH237057   5.358   2.658   0.669
 5141TIP3    H137058   5.329   2.568   0.645
 5141TIP3    H237059   5.294   2.686   0.735
 5142TIP3   OH237060   3.849   2.871   1.064
 5142TIP3    H137061   3.866   2.863   0.968
 5142TIP3    H237062   3.938   2.853   1.099
 5143TIP3   OH237063   5.434   2.860   1.627
 5143TIP3    H137064   5.494   2.784   1.642
 5143TIP3    H237065   5.496   2.936   1.626
 5144TIP3   OH237066   5.584   2.650   1.689
 5144TIP3    H137067   5.496   2.608   1.674
 5144TIP3    H237068   5.640   2.570   1.686
 5145TIP3   OH237069   5.359   2.262   0.002
 5145TIP3    H137070   5.416   2.220   0.069
 5145TIP3    H237071   5.269   2.230   0.022
 5146TIP3   OH237072   5.318   2.423   0.511
 5146TIP3    H137073   5.343   2.328   0.515
 5146TIP3    H237074   5.393   2.459   0.462
 5147TIP3   OH237075   5.381   2.486   1.045
 5147TIP3    H137076   5.480   2.491   1.054
 5147TIP3    H237077   5.359   2.486   1.141
 5148TIP3   OH237078   5.383   2.550   1.320
 5148TIP3    H137079   5.298   2.577   1.360
 5148TIP3    H237080   5.430   2.636   1.308
 5149TIP3   OH237081   3.811   2.400   1.678
 5149TIP3    H137082   3.904   2.381   1.699
 5149TIP3    H237083   3.765   2.319   1.708
 5150TIP3   OH237084   5.382   2.149   0.508
 5150TIP3    H137085   5.404   2.106   0.594
 5150TIP3    H237086   5.322   2.085   0.464
 5151TIP3   OH237087   3.931   2.231   0.964
 5151TIP3    H137088   3.976   2.148   0.990
 5151TIP3    H237089   3.986   2.299   1.003
 5152TIP3   OH237090   3.759   2.531   1.068
 5152TIP3    H137091   3.815   2.505   0.992
 5152TIP3    H237092   3.806   2.611   1.095
 5153TIP3   OH237093   5.497   2.159   1.735
 5153TIP3    H137094   5.437   2.207   1.676
 5153TIP3    H237095   5.554   2.123   1.662
 5154TIP3   OH237096   5.563   2.156   0.164
 5154TIP3    H137097   5.606   2.084   0.115
 5154TIP3    H237098   5.636   2.220   0.166
 5155TIP3   OH237099   3.795   2.156   0.474
 5155TIP3    H137100   3.701   2.175   0.462
 5155TIP3    H237101   3.836   2.206   0.401
 5156TIP3   OH237102   5.269   3.651   0.671
 5156TIP3    H137103   5.337   3.622   0.608
 5156TIP3    H237104   5.320   3.701   0.736
 5157TIP3   OH237105   3.790   2.022   1.304
 5157TIP3    H137106   3.723   2.002   1.373
 5157TIP3    H237107   3.744   2.089   1.251
 5158TIP3   OH237108   4.016   3.346   1.723
 5158TIP3    H137109   3.933   3.364   1.677
 5158TIP3    H237110   3.985   3.333   1.813
 5159TIP3   OH237111   4.303   3.442   1.347
 5159TIP3    H137112   4.271   3.530   1.322
 5159TIP3    H237113   4.396   3.451   1.319
 5160TIP3   OH237114   4.738   3.583   1.642
 5160TIP3    H137115   4.756   3.551   1.732
 5160TIP3    H237116   4.826   3.615   1.615
 5161TIP3   OH237117   4.966   3.712   1.570
 5161TIP3    H137118   5.038   3.652   1.547
 5161TIP3    H237119   5.002   3.754   1.651
 5162TIP3   OH237120   5.446   1.962   1.485
 5162TIP3    H137121   5.378   2.003   1.431
 5162TIP3    H237122   5.486   1.893   1.427
 5163TIP3   OH237123   4.047   3.766   1.346
 5163TIP3    H137124   3.973   3.816   1.309
 5163TIP3    H237125   4.017   3.747   1.437
 5164TIP3   OH237126   4.293   3.724   1.256
 5164TIP3    H137127   4.204   3.739   1.294
 5164TIP3    H237128   4.288   3.783   1.178
 5165TIP3   OH237129   4.764   3.715   1.173
 5165TIP3    H137130   4.718   3.771   1.108
 5165TIP3    H237131   4.777   3.778   1.246
 5166TIP3   OH237132   4.992   3.595   1.276
 5166TIP3    H137133   4.908   3.624   1.238
 5166TIP3    H237134   5.042   3.679   1.267
 5167TIP3   OH237135   5.251   3.752   1.297
 5167TIP3    H137136   5.246   3.848   1.275
 5167TIP3    H237137   5.273   3.715   1.210
 5168TIP3   OH237138   3.993   3.631   1.042
 5168TIP3    H137139   3.985   3.584   1.128
 5168TIP3    H237140   4.075   3.593   1.003
 5169TIP3   OH237141   4.200   3.502   0.908
 5169TIP3    H137142   4.184   3.409   0.931
 5169TIP3    H237143   4.286   3.518   0.953
 5170TIP3   OH237144   4.461   3.551   0.996
 5170TIP3    H137145   4.476   3.458   0.969
 5170TIP3    H237146   4.465   3.545   1.092
 5171TIP3   OH237147   4.806   2.116   0.909
 5171TIP3    H137148   4.738   2.052   0.938
 5171TIP3    H237149   4.861   2.062   0.851
 5172TIP3   OH237150   5.320   1.919   0.916
 5172TIP3    H137151   5.381   1.979   0.865
 5172TIP3    H237152   5.232   1.956   0.894
 5173TIP3   OH237153   5.486   2.045   0.743
 5173TIP3    H137154   5.555   1.987   0.703
 5173TIP3    H237155   5.538   2.128   0.754
 5174TIP3   OH237156   4.043   1.978   0.696
 5174TIP3    H137157   3.964   1.959   0.641
 5174TIP3    H237158   4.089   1.892   0.688
 5175TIP3   OH237159   3.916   1.953   0.265
 5175TIP3    H137160   3.968   2.017   0.212
 5175TIP3    H237161   3.864   2.012   0.322
 5176TIP3   OH237162   4.489   1.971   0.673
 5176TIP3    H137163   4.580   2.005   0.664
 5176TIP3    H237164   4.487   1.949   0.766
 5177TIP3   OH237165   5.062   1.972   0.835
 5177TIP3    H137166   5.057   1.984   0.740
 5177TIP3    H237167   5.024   1.882   0.847
 5178TIP3   OH237168   5.188   1.975   0.400
 5178TIP3    H137169   5.114   2.035   0.386
 5178TIP3    H237170   5.144   1.889   0.424
 5179TIP3   OH237171   3.912   3.550   0.368
 5179TIP3    H137172   3.844   3.549   0.298
 5179TIP3    H237173   3.915   3.645   0.383
 5180TIP3   OH237174   4.102   2.138   0.121
 5180TIP3    H137175   4.157   2.085   0.064
 5180TIP3    H237176   4.168   2.182   0.178
 5181TIP3   OH237177   4.605   2.172   0.358
 5181TIP3    H137178   4.632   2.115   0.432
 5181TIP3    H237179   4.613   2.259   0.404
 5182TIP3   OH237180   4.795   3.709   0.202
 5182TIP3    H137181   4.892   3.706   0.189
 5182TIP3    H237182   4.779   3.634   0.139
 5183TIP3   OH237183   5.468   3.629   0.474
 5183TIP3    H137184   5.448   3.551   0.416
 5183TIP3    H237185   5.459   3.703   0.411
 5184TIP3   OH237186   4.031   2.030   1.641
 5184TIP3    H137187   3.992   1.952   1.683
 5184TIP3    H237188   4.122   2.029   1.680
 5185TIP3   OH237189   4.232   1.970   1.807
 5185TIP3    H137190   4.318   1.938   1.774
 5185TIP3    H237191   4.194   1.890   1.844
 5186TIP3   OH237192   4.094   3.647   0.064
 5186TIP3    H137193   4.064   3.674   0.151
 5186TIP3    H237194   4.170   3.591   0.081
 5187TIP3   OH237195   5.076   1.907   1.824
 5187TIP3    H137196   5.077   1.845   1.899
 5187TIP3    H237197   5.162   1.894   1.780
 5188TIP3   OH237198   5.393   3.503   1.687
 5188TIP3    H137199   5.314   3.489   1.630
 5188TIP3    H237200   5.380   3.599   1.704
 5189TIP3   OH237201   6.835   2.891   0.680
 5189TIP3    H137202   6.837   2.990   0.676
 5189TIP3    H237203   6.765   2.870   0.617
 5190TIP3   OH237204   6.721   2.818   1.028
 5190TIP3    H137205   6.721   2.754   1.101
 5190TIP3    H237206   6.691   2.765   0.954
 5191TIP3   OH237207   5.959   2.786   1.184
 5191TIP3    H137208   5.966   2.717   1.254
 5191TIP3    H237209   6.033   2.842   1.207
 5192TIP3   OH237210   7.092   3.110   0.860
 5192TIP3    H137211   7.050   3.039   0.910
 5192TIP3    H237212   7.099   3.179   0.928
 5193TIP3   OH237213   6.050   3.230   1.034
 5193TIP3    H137214   6.020   3.143   1.004
 5193TIP3    H237215   6.146   3.212   1.040
 5194TIP3   OH237216   5.711   2.584   0.588
 5194TIP3    H137217   5.674   2.673   0.575
 5194TIP3    H237218   5.659   2.532   0.525
 5195TIP3   OH237219   5.784   2.807   0.799
 5195TIP3    H137220   5.816   2.727   0.845
 5195TIP3    H237221   5.853   2.821   0.733
 5196TIP3   OH237222   6.806   3.629   0.881
 5196TIP3    H137223   6.868   3.559   0.852
 5196TIP3    H237224   6.782   3.594   0.968
 5197TIP3   OH237225   6.560   3.057   1.078
 5197TIP3    H137226   6.595   2.996   1.013
 5197TIP3    H237227   6.642   3.074   1.129
 5198TIP3   OH237228   6.875   2.505   1.108
 5198TIP3    H137229   6.894   2.409   1.109
 5198TIP3    H237230   6.867   2.518   1.012
 5199TIP3   OH237231   6.189   2.314   0.829
 5199TIP3    H137232   6.197   2.396   0.779
 5199TIP3    H237233   6.148   2.254   0.762
 5200TIP3   OH237234   6.963   2.324   0.668
 5200TIP3    H137235   7.028   2.289   0.734
 5200TIP3    H237236   7.019   2.379   0.612
 5201TIP3   OH237237   5.852   2.555   0.902
 5201TIP3    H137238   5.917   2.500   0.950
 5201TIP3    H237239   5.862   2.521   0.812
 5202TIP3   OH237240   6.368   2.706   0.833
 5202TIP3    H137241   6.436   2.653   0.882
 5202TIP3    H237242   6.312   2.633   0.803
 5203TIP3   OH237243   6.082   2.204   1.233
 5203TIP3    H137244   6.049   2.261   1.160
 5203TIP3    H237245   6.014   2.225   1.302
 5204TIP3   OH237246   6.805   3.150   0.589
 5204TIP3    H137247   6.781   3.125   0.498
 5204TIP3    H237248   6.777   3.244   0.592
 5205TIP3   OH237249   6.330   2.967   1.258
 5205TIP3    H137250   6.260   3.032   1.281
 5205TIP3    H237251   6.401   3.027   1.228
 5206TIP3   OH237252   7.124   2.253   0.872
 5206TIP3    H137253   7.117   2.174   0.925
 5206TIP3    H237254   7.197   2.301   0.917
 5207TIP3   OH237255   6.035   2.388   1.037
 5207TIP3    H137256   6.099   2.456   1.070
 5207TIP3    H237257   6.088   2.347   0.964
 5208TIP3   OH237258   6.174   3.167   1.338
 5208TIP3    H137259   6.170   3.259   1.306
 5208TIP3    H237260   6.087   3.160   1.385
 5209TIP3   OH237261   5.781   3.129   0.418
 5209TIP3    H137262   5.761   3.164   0.329
 5209TIP3    H237263   5.790   3.211   0.471
 5210TIP3   OH237264   7.136   3.291   1.102
 5210TIP3    H137265   7.039   3.306   1.108
 5210TIP3    H237266   7.168   3.380   1.076
 5211TIP3   OH237267   7.169   2.135   1.220
 5211TIP3    H137268   7.093   2.197   1.223
 5211TIP3    H237269   7.237   2.184   1.174
 5212TIP3   OH237270   6.473   1.937   0.980
 5212TIP3    H137271   6.459   1.840   0.973
 5212TIP3    H237272   6.385   1.967   1.011
 5213TIP3   OH237273   6.967   3.470   0.757
 5213TIP3    H137274   7.012   3.401   0.705
 5213TIP3    H237275   7.012   3.549   0.719
 5214TIP3   OH237276   7.090   3.264   0.602
 5214TIP3    H137277   7.061   3.194   0.542
 5214TIP3    H237278   7.095   3.216   0.687
 5215TIP3   OH237279   7.232   3.136   1.463
 5215TIP3    H137280   7.262   3.068   1.400
 5215TIP3    H237281   7.272   3.215   1.420
 5216TIP3   OH237282   6.698   2.815   0.428
 5216TIP3    H137283   6.635   2.878   0.388
 5216TIP3    H237284   6.773   2.824   0.366
 5217TIP3   OH237285   6.708   2.670   0.139
 5217TIP3    H137286   6.780   2.670   0.203
 5217TIP3    H237287   6.740   2.606   0.076
 5218TIP3   OH237288   7.046   2.839   0.522
 5218TIP3    H137289   6.974   2.863   0.584
 5218TIP3    H237290   7.094   2.773   0.577
 5219TIP3   OH237291   7.035   2.651   1.435
 5219TIP3    H137292   7.039   2.732   1.487
 5219TIP3    H237293   6.976   2.683   1.364
 5220TIP3   OH237294   6.211   2.906   0.714
 5220TIP3    H137295   6.166   2.868   0.635
 5220TIP3    H237296   6.263   2.838   0.762
 5221TIP3   OH237297   6.340   3.242   0.985
 5221TIP3    H137298   6.340   3.191   0.902
 5221TIP3    H237299   6.419   3.205   1.029
 5222TIP3   OH237300   6.241   2.778   1.080
 5222TIP3    H137301   6.299   2.789   1.003
 5222TIP3    H237302   6.279   2.843   1.143
 5223TIP3   OH237303   6.879   3.335   1.151
 5223TIP3    H137304   6.857   3.399   1.219
 5223TIP3    H237305   6.858   3.249   1.194
 5224TIP3   OH237306   6.337   3.221   1.553
 5224TIP3    H137307   6.294   3.295   1.598
 5224TIP3    H237308   6.271   3.200   1.482
 5225TIP3   OH237309   6.938   2.754   0.289
 5225TIP3    H137310   6.989   2.777   0.370
 5225TIP3    H237311   6.976   2.811   0.219
 5226TIP3   OH237312   6.030   2.835   1.468
 5226TIP3    H137313   6.035   2.902   1.539
 5226TIP3    H237314   5.937   2.844   1.444
 5227TIP3   OH237315   6.705   3.428   0.641
 5227TIP3    H137316   6.750   3.461   0.720
 5227TIP3    H237317   6.651   3.502   0.612
 5228TIP3   OH237318   6.164   3.420   1.625
 5228TIP3    H137319   6.156   3.413   1.528
 5228TIP3    H237320   6.071   3.412   1.654
 5229TIP3   OH237321   7.282   1.921   0.271
 5229TIP3    H137322   7.195   1.946   0.306
 5229TIP3    H237323   7.316   2.004   0.236
 5230TIP3   OH237324   6.110   2.802   0.477
 5230TIP3    H137325   6.079   2.881   0.426
 5230TIP3    H237326   6.040   2.739   0.453
 5231TIP3   OH237327   5.716   3.048   1.366
 5231TIP3    H137328   5.670   3.041   1.280
 5231TIP3    H237329   5.722   2.953   1.388
 5232TIP3   OH237330   5.691   3.321   1.044
 5232TIP3    H137331   5.786   3.310   1.042
 5232TIP3    H237332   5.682   3.403   1.095
 5233TIP3   OH237333   6.610   3.345   1.500
 5233TIP3    H137334   6.616   3.430   1.550
 5233TIP3    H237335   6.523   3.309   1.524
 5234TIP3   OH237336   6.653   3.721   0.479
 5234TIP3    H137337   6.648   3.713   0.382
 5234TIP3    H237338   6.659   3.817   0.495
 5235TIP3   OH237339   6.019   3.608   0.661
 5235TIP3    H137340   6.033   3.567   0.749
 5235TIP3    H237341   5.934   3.567   0.638
 5236TIP3   OH237342   6.981   3.647   0.190
 5236TIP3    H137343   6.998   3.569   0.132
 5236TIP3    H237344   6.963   3.608   0.276
 5237TIP3   OH237345   6.928   3.638   0.460
 5237TIP3    H137346   6.831   3.641   0.471
 5237TIP3    H237347   6.952   3.560   0.510
 5238TIP3   OH237348   7.195   2.548   1.663
 5238TIP3    H137349   7.179   2.586   1.577
 5238TIP3    H237350   7.237   2.462   1.639
 5239TIP3   OH237351   5.944   3.179   1.463
 5239TIP3    H137352   5.965   3.143   1.552
 5239TIP3    H237353   5.856   3.139   1.441
 5240TIP3   OH237354   6.211   2.028   1.055
 5240TIP3    H137355   6.121   2.014   1.019
 5240TIP3    H237356   6.197   2.110   1.106
 5241TIP3   OH237357   6.675   1.995   1.392
 5241TIP3    H137358   6.715   1.951   1.470
 5241TIP3    H237359   6.578   1.982   1.406
 5242TIP3   OH237360   7.000   2.378   1.479
 5242TIP3    H137361   6.949   2.359   1.561
 5242TIP3    H237362   6.987   2.473   1.461
 5243TIP3   OH237363   7.091   2.860   0.074
 5243TIP3    H137364   7.087   2.849  -0.022
 5243TIP3    H237365   7.171   2.912   0.083
 5244TIP3   OH237366   6.640   2.252   0.127
 5244TIP3    H137367   6.608   2.246   0.218
 5244TIP3    H237368   6.613   2.164   0.097
 5245TIP3   OH237369   6.221   2.525   1.180
 5245TIP3    H137370   6.149   2.523   1.246
 5245TIP3    H237371   6.216   2.616   1.145
 5246TIP3   OH237372   6.217   2.540   0.662
 5246TIP3    H137373   6.123   2.507   0.656
 5246TIP3    H237374   6.253   2.495   0.581
 5247TIP3   OH237375   6.770   2.585   0.541
 5247TIP3    H137376   6.733   2.669   0.507
 5247TIP3    H237377   6.841   2.568   0.476
 5248TIP3   OH237378   6.672   2.603   1.691
 5248TIP3    H137379   6.623   2.527   1.723
 5248TIP3    H237380   6.759   2.597   1.736
 5249TIP3   OH237381   6.873   2.537   0.831
 5249TIP3    H137382   6.848   2.592   0.756
 5249TIP3    H237383   6.882   2.451   0.784
 5250TIP3   OH237384   5.983   2.549   1.349
 5250TIP3    H137385   5.992   2.588   1.437
 5250TIP3    H237386   5.940   2.464   1.370
 5251TIP3   OH237387   6.339   2.312   0.068
 5251TIP3    H137388   6.283   2.249   0.119
 5251TIP3    H237389   6.279   2.350   0.003
 5252TIP3   OH237390   5.650   2.264   0.747
 5252TIP3    H137391   5.718   2.255   0.817
 5252TIP3    H237392   5.693   2.222   0.670
 5253TIP3   OH237393   5.779   2.333   0.284
 5253TIP3    H137394   5.828   2.391   0.224
 5253TIP3    H237395   5.710   2.395   0.316
 5254TIP3   OH237396   6.793   2.693   1.282
 5254TIP3    H137397   6.832   2.623   1.225
 5254TIP3    H237398   6.746   2.641   1.350
 5255TIP3   OH237399   6.471   2.297   0.770
 5255TIP3    H137400   6.378   2.289   0.800
 5255TIP3    H237401   6.521   2.273   0.849
 5256TIP3   OH237402   5.958   2.448   0.651
 5256TIP3    H137403   5.867   2.461   0.616
 5256TIP3    H237404   5.981   2.360   0.616
 5257TIP3   OH237405   6.316   2.463   0.425
 5257TIP3    H137406   6.414   2.457   0.430
 5257TIP3    H237407   6.295   2.513   0.344
 5258TIP3   OH237408   6.910   2.212   1.091
 5258TIP3    H137409   6.843   2.219   1.162
 5258TIP3    H237410   6.859   2.191   1.012
 5259TIP3   OH237411   6.189   2.569   0.179
 5259TIP3    H137412   6.132   2.534   0.107
 5259TIP3    H237413   6.271   2.590   0.130
 5260TIP3   OH237414   7.231   3.777   1.724
 5260TIP3    H137415   7.261   3.817   1.641
 5260TIP3    H237416   7.299   3.809   1.786
 5261TIP3   OH237417   6.002   3.025   1.681
 5261TIP3    H137418   6.072   3.053   1.742
 5261TIP3    H237419   5.925   3.036   1.739
 5262TIP3   OH237420   6.598   2.565   0.954
 5262TIP3    H137421   6.664   2.514   0.906
 5262TIP3    H237422   6.587   2.514   1.035
 5263TIP3   OH237423   6.103   2.183   0.603
 5263TIP3    H137424   6.071   2.091   0.601
 5263TIP3    H237425   6.181   2.173   0.546
 5264TIP3   OH237426   6.465   2.400   1.200
 5264TIP3    H137427   6.383   2.452   1.207
 5264TIP3    H237428   6.520   2.436   1.271
 5265TIP3   OH237429   6.525   3.019   0.371
 5265TIP3    H137430   6.444   2.978   0.334
 5265TIP3    H237431   6.501   3.038   0.464
 5266TIP3   OH237432   7.228   2.948   1.249
 5266TIP3    H137433   7.292   2.966   1.177
 5266TIP3    H237434   7.145   2.945   1.197
 5267TIP3   OH237435   6.909   2.300   0.188
 5267TIP3    H137436   6.815   2.316   0.168
 5267TIP3    H237437   6.936   2.389   0.218
 5268TIP3   OH237438   6.673   3.047   1.491
 5268TIP3    H137439   6.639   3.005   1.571
 5268TIP3    H237440   6.650   3.140   1.503
 5269TIP3   OH237441   6.981   2.496   0.346
 5269TIP3    H137442   7.067   2.485   0.391
 5269TIP3    H237443   6.988   2.582   0.302
 5270TIP3   OH237444   6.034   2.961   0.948
 5270TIP3    H137445   6.104   2.955   0.880
 5270TIP3    H237446   6.040   2.876   0.996
 5271TIP3   OH237447   6.734   3.167   0.279
 5271TIP3    H137448   6.697   3.254   0.306
 5271TIP3    H237449   6.659   3.106   0.293
 5272TIP3   OH237450   5.733   2.803   1.475
 5272TIP3    H137451   5.751   2.757   1.559
 5272TIP3    H237452   5.672   2.741   1.431
 5273TIP3   OH237453   6.433   2.751   1.695
 5273TIP3    H137454   6.403   2.731   1.605
 5273TIP3    H237455   6.528   2.731   1.690
 5274TIP3   OH237456   6.901   3.289   1.486
 5274TIP3    H137457   6.810   3.309   1.464
 5274TIP3    H237458   6.903   3.320   1.579
 5275TIP3   OH237459   7.289   3.392   0.368
 5275TIP3    H137460   7.258   3.308   0.401
 5275TIP3    H237461   7.329   3.374   0.282
 5276TIP3   OH237462   7.014   2.871   1.079
 5276TIP3    H137463   6.920   2.850   1.063
 5276TIP3    H237464   7.061   2.798   1.034
 5277TIP3   OH237465   6.273   3.304   0.685
 5277TIP3    H137466   6.322   3.386   0.667
 5277TIP3    H237467   6.185   3.329   0.654
 5278TIP3   OH237468   5.843   2.796   0.136
 5278TIP3    H137469   5.907   2.854   0.181
 5278TIP3    H237470   5.759   2.820   0.177
 5279TIP3   OH237471   6.412   3.072   0.638
 5279TIP3    H137472   6.385   3.166   0.647
 5279TIP3    H237473   6.339   3.030   0.686
 5280TIP3   OH237474   6.458   3.492   1.280
 5280TIP3    H137475   6.505   3.572   1.251
 5280TIP3    H237476   6.520   3.457   1.346
 5281TIP3   OH237477   6.283   3.573   0.591
 5281TIP3    H137478   6.186   3.586   0.606
 5281TIP3    H237479   6.318   3.656   0.626
 5282TIP3   OH237480   6.812   3.091   1.241
 5282TIP3    H137481   6.779   3.073   1.331
 5282TIP3    H237482   6.875   3.019   1.225
 5283TIP3   OH237483   7.042   3.191   0.154
 5283TIP3    H137484   7.069   3.151   0.238
 5283TIP3    H237485   6.945   3.182   0.160
 5284TIP3   OH237486   7.088   3.554   1.490
 5284TIP3    H137487   7.024   3.500   1.441
 5284TIP3    H237488   7.113   3.620   1.423
 5285TIP3   OH237489   5.906   2.279   1.424
 5285TIP3    H137490   5.812   2.308   1.429
 5285TIP3    H237491   5.888   2.194   1.473
 5286TIP3   OH237492   7.123   3.060   0.376
 5286TIP3    H137493   7.097   2.980   0.428
 5286TIP3    H237494   7.217   3.067   0.399
 5287TIP3   OH237495   5.860   3.453   1.272
 5287TIP3    H137496   5.892   3.362   1.273
 5287TIP3    H237497   5.887   3.483   1.360
 5288TIP3   OH237498   6.334   3.264   0.243
 5288TIP3    H137499   6.362   3.208   0.316
 5288TIP3    H237500   6.343   3.354   0.278
 5289TIP3   OH237501   5.987   2.985   0.293
 5289TIP3    H137502   5.917   3.027   0.348
 5289TIP3    H237503   6.040   3.062   0.265
 5290TIP3   OH237504   6.770   2.252   1.327
 5290TIP3    H137505   6.845   2.259   1.387
 5290TIP3    H237506   6.733   2.164   1.346
 5291TIP3   OH237507   6.847   2.209   0.435
 5291TIP3    H137508   6.871   2.256   0.352
 5291TIP3    H237509   6.904   2.253   0.499
 5292TIP3   OH237510   6.616   3.431   0.346
 5292TIP3    H137511   6.532   3.476   0.327
 5292TIP3    H237512   6.662   3.463   0.263
 5293TIP3   OH237513   6.564   2.390   0.516
 5293TIP3    H137514   6.647   2.441   0.518
 5293TIP3    H237515   6.545   2.368   0.609
 5294TIP3   OH237516   6.627   2.487   1.434
 5294TIP3    H137517   6.637   2.545   1.512
 5294TIP3    H237518   6.693   2.417   1.443
 5295TIP3   OH237519   6.651   2.091   0.602
 5295TIP3    H137520   6.623   2.154   0.670
 5295TIP3    H237521   6.722   2.144   0.559
 5296TIP3   OH237522   6.352   3.531   0.319
 5296TIP3    H137523   6.370   3.613   0.269
 5296TIP3    H237524   6.328   3.565   0.408
 5297TIP3   OH237525   6.221   2.198   0.281
 5297TIP3    H137526   6.213   2.290   0.313
 5297TIP3    H237527   6.313   2.177   0.306
 5298TIP3   OH237528   7.238   2.266   1.510
 5298TIP3    H137529   7.149   2.308   1.506
 5298TIP3    H237530   7.272   2.279   1.421
 5299TIP3   OH237531   7.106   2.654   0.926
 5299TIP3    H137532   7.023   2.611   0.894
 5299TIP3    H237533   7.145   2.579   0.974
 5300TIP3   OH237534   6.046   3.247   0.180
 5300TIP3    H137535   6.113   3.308   0.212
 5300TIP3    H237536   6.097   3.198   0.112
 5301TIP3   OH237537   5.883   2.514   0.100
 5301TIP3    H137538   5.881   2.610   0.111
 5301TIP3    H237539   5.797   2.494   0.063
 5302TIP3   OH237540   7.215   3.580   1.088
 5302TIP3    H137541   7.198   3.648   1.021
 5302TIP3    H237542   7.309   3.589   1.106
 5303TIP3   OH237543   5.959   1.991   0.969
 5303TIP3    H137544   5.941   1.992   0.872
 5303TIP3    H237545   5.918   1.906   0.994
 5304TIP3   OH237546   5.855   3.383   0.583
 5304TIP3    H137547   5.770   3.427   0.579
 5304TIP3    H237548   5.902   3.429   0.512
 5305TIP3   OH237549   5.776   3.650   1.713
 5305TIP3    H137550   5.835   3.627   1.787
 5305TIP3    H237551   5.737   3.563   1.690
 5306TIP3   OH237552   6.246   3.539   1.867
 5306TIP3    H137553   6.320   3.492   1.903
 5306TIP3    H237554   6.240   3.511   1.774
 5307TIP3   OH237555   6.645   3.463   0.105
 5307TIP3    H137556   6.580   3.417   0.053
 5307TIP3    H237557   6.718   3.466   0.036
 5308TIP3   OH237558   6.897   3.377   1.746
 5308TIP3    H137559   6.863   3.290   1.775
 5308TIP3    H237560   6.972   3.391   1.807
 5309TIP3   OH237561   7.112   3.462   0.032
 5309TIP3    H137562   7.141   3.384   0.081
 5309TIP3    H237563   7.188   3.495  -0.018
 5310TIP3   OH237564   5.759   3.019   1.817
 5310TIP3    H137565   5.786   2.935   1.776
 5310TIP3    H237566   5.697   3.053   1.749
 5311TIP3   OH237567   6.209   3.067   0.027
 5311TIP3    H137568   6.215   2.983   0.073
 5311TIP3    H237569   6.266   3.046  -0.050
 5312TIP3   OH237570   6.439   3.023   1.749
 5312TIP3    H137571   6.406   3.057   1.664
 5312TIP3    H237572   6.446   2.926   1.735
 5313TIP3   OH237573   7.004   3.007   1.484
 5313TIP3    H137574   7.084   3.066   1.481
 5313TIP3    H237575   6.938   3.077   1.494
 5314TIP3   OH237576   5.861   2.751   1.749
 5314TIP3    H137577   5.899   2.664   1.735
 5314TIP3    H237578   5.830   2.744   1.839
 5315TIP3   OH237579   6.326   2.863   0.259
 5315TIP3    H137580   6.268   2.809   0.313
 5315TIP3    H237581   6.355   2.798   0.190
 5316TIP3   OH237582   6.250   2.641   1.487
 5316TIP3    H137583   6.190   2.712   1.513
 5316TIP3    H237584   6.288   2.678   1.405
 5317TIP3   OH237585   6.431   2.687   0.077
 5317TIP3    H137586   6.419   2.666  -0.016
 5317TIP3    H237587   6.529   2.693   0.086
 5318TIP3   OH237588   6.751   2.899   1.824
 5318TIP3    H137589   6.846   2.899   1.805
 5318TIP3    H237590   6.741   2.819   1.878
 5319TIP3   OH237591   6.289   2.381   1.592
 5319TIP3    H137592   6.301   2.310   1.525
 5319TIP3    H237593   6.283   2.461   1.536
 5320TIP3   OH237594   6.330   2.219   1.348
 5320TIP3    H137595   6.381   2.264   1.276
 5320TIP3    H237596   6.240   2.210   1.309
 5321TIP3   OH237597   6.485   2.768   1.371
 5321TIP3    H137598   6.559   2.751   1.312
 5321TIP3    H237599   6.448   2.851   1.338
 5322TIP3   OH237600   6.918   2.543   1.864
 5322TIP3    H137601   6.948   2.451   1.861
 5322TIP3    H237602   7.006   2.587   1.865
 5323TIP3   OH237603   7.053   2.823   1.680
 5323TIP3    H137604   7.032   2.896   1.619
 5323TIP3    H237605   7.149   2.818   1.665
 5324TIP3   OH237606   6.140   2.504   1.784
 5324TIP3    H137607   6.060   2.449   1.770
 5324TIP3    H237608   6.199   2.467   1.716
 5325TIP3   OH237609   6.410   1.963   1.383
 5325TIP3    H137610   6.391   2.059   1.374
 5325TIP3    H237611   6.334   1.926   1.335
 5326TIP3   OH237612   6.806   2.314   1.662
 5326TIP3    H137613   6.710   2.307   1.666
 5326TIP3    H237614   6.840   2.245   1.723
 5327TIP3   OH237615   6.970   2.171   1.848
 5327TIP3    H137616   6.960   2.074   1.848
 5327TIP3    H237617   6.940   2.202   1.936
 5328TIP3   OH237618   5.950   2.298   1.759
 5328TIP3    H137619   5.962   2.225   1.695
 5328TIP3    H237620   5.933   2.250   1.841
 5329TIP3   OH237621   6.431   1.903   1.656
 5329TIP3    H137622   6.497   1.832   1.650
 5329TIP3    H237623   6.417   1.919   1.561
 5330TIP3   OH237624   6.412   3.756   0.177
 5330TIP3    H137625   6.509   3.763   0.190
 5330TIP3    H237626   6.396   3.821   0.108
 5331TIP3   OH237627   5.769   3.210   0.132
 5331TIP3    H137628   5.864   3.223   0.152
 5331TIP3    H237629   5.777   3.155   0.053
 5332TIP3   OH237630   5.646   3.750   0.627
 5332TIP3    H137631   5.574   3.701   0.581
 5332TIP3    H237632   5.674   3.684   0.694
 5333TIP3   OH237633   5.729   3.564   0.815
 5333TIP3    H137634   5.693   3.476   0.835
 5333TIP3    H237635   5.753   3.596   0.903
 5334TIP3   OH237636   7.266   3.186   1.857
 5334TIP3    H137637   7.187   3.171   1.911
 5334TIP3    H237638   7.315   3.250   1.911
 5335TIP3   OH237639   7.281   3.367   1.332
 5335TIP3    H137640   7.215   3.412   1.386
 5335TIP3    H237641   7.228   3.334   1.256
 5336TIP3   OH237642   7.308   2.523   0.095
 5336TIP3    H137643   7.330   2.587   0.025
 5336TIP3    H237644   7.292   2.439   0.049
 5337TIP3   OH237645   7.197   2.669   0.661
 5337TIP3    H137646   7.212   2.573   0.664
 5337TIP3    H237647   7.196   2.690   0.756
 5338TIP3   OH237648   5.734   2.867   1.063
 5338TIP3    H137649   5.756   2.865   0.967
 5338TIP3    H237650   5.824   2.855   1.100
 5339TIP3   OH237651  -0.032   2.862   1.654
 5339TIP3    H137652   0.026   2.784   1.652
 5339TIP3    H237653   0.022   2.935   1.621
 5340TIP3   OH237654   7.233   2.270   0.009
 5340TIP3    H137655   7.298   2.223   0.065
 5340TIP3    H237656   7.152   2.221   0.025
 5341TIP3   OH237657   7.198   2.418   0.493
 5341TIP3    H137658   7.227   2.332   0.528
 5341TIP3    H237659   7.278   2.454   0.454
 5342TIP3   OH237660   7.224   2.424   1.043
 5342TIP3    H137661   7.318   2.436   1.025
 5342TIP3    H237662   7.225   2.474   1.126
 5343TIP3   OH237663   7.270   2.549   1.341
 5343TIP3    H137664   7.179   2.579   1.360
 5343TIP3    H237665   7.310   2.626   1.296
 5344TIP3   OH237666   5.696   2.403   1.688
 5344TIP3    H137667   5.789   2.375   1.697
 5344TIP3    H237668   5.651   2.318   1.704
 5345TIP3   OH237669   7.187   2.130   0.562
 5345TIP3    H137670   7.275   2.103   0.595
 5345TIP3    H237671   7.184   2.076   0.480
 5346TIP3   OH237672   5.814   2.232   0.966
 5346TIP3    H137673   5.859   2.148   0.991
 5346TIP3    H237674   5.873   2.299   1.003
 5347TIP3   OH237675   5.639   2.538   1.058
 5347TIP3    H137676   5.705   2.504   0.994
 5347TIP3    H237677   5.693   2.609   1.097
 5348TIP3   OH237678   5.680   2.156   0.474
 5348TIP3    H137679   5.586   2.175   0.463
 5348TIP3    H237680   5.722   2.206   0.402
 5349TIP3   OH237681   7.142   3.639   0.676
 5349TIP3    H137682   7.207   3.604   0.614
 5349TIP3    H237683   7.196   3.696   0.733
 5350TIP3   OH237684   5.659   2.007   1.281
 5350TIP3    H137685   5.627   2.008   1.374
 5350TIP3    H237686   5.628   2.094   1.253
 5351TIP3   OH237687   5.898   3.343   1.724
 5351TIP3    H137688   5.816   3.366   1.679
 5351TIP3    H237689   5.871   3.337   1.815
 5352TIP3   OH237690   6.188   3.442   1.347
 5352TIP3    H137691   6.157   3.530   1.322
 5352TIP3    H237692   6.282   3.451   1.319
 5353TIP3   OH237693   6.623   3.584   1.642
 5353TIP3    H137694   6.642   3.549   1.729
 5353TIP3    H237695   6.712   3.616   1.614
 5354TIP3   OH237696   6.853   3.712   1.571
 5354TIP3    H137697   6.927   3.654   1.547
 5354TIP3    H237698   6.889   3.756   1.651
 5355TIP3   OH237699   5.932   3.766   1.348
 5355TIP3    H137700   5.859   3.816   1.308
 5355TIP3    H237701   5.901   3.748   1.437
 5356TIP3   OH237702   6.179   3.724   1.255
 5356TIP3    H137703   6.090   3.740   1.294
 5356TIP3    H237704   6.174   3.783   1.178
 5357TIP3   OH237705   6.650   3.715   1.172
 5357TIP3    H137706   6.603   3.771   1.108
 5357TIP3    H237707   6.663   3.778   1.246
 5358TIP3   OH237708   6.879   3.595   1.274
 5358TIP3    H137709   6.793   3.622   1.239
 5358TIP3    H237710   6.925   3.680   1.268
 5359TIP3   OH237711   7.136   3.758   1.300
 5359TIP3    H137712   7.126   3.852   1.275
 5359TIP3    H237713   7.161   3.717   1.214
 5360TIP3   OH237714   5.879   3.631   1.042
 5360TIP3    H137715   5.870   3.586   1.129
 5360TIP3    H237716   5.960   3.593   1.004
 5361TIP3   OH237717   6.086   3.502   0.908
 5361TIP3    H137718   6.069   3.409   0.931
 5361TIP3    H237719   6.171   3.518   0.953
 5362TIP3   OH237720   6.344   3.550   0.995
 5362TIP3    H137721   6.362   3.458   0.969
 5362TIP3    H237722   6.350   3.545   1.091
 5363TIP3   OH237723   6.691   2.116   0.908
 5363TIP3    H137724   6.624   2.052   0.937
 5363TIP3    H237725   6.747   2.062   0.851
 5364TIP3   OH237726   7.207   1.919   0.919
 5364TIP3    H137727   7.261   1.984   0.873
 5364TIP3    H237728   7.117   1.953   0.896
 5365TIP3   OH237729   5.929   1.978   0.695
 5365TIP3    H137730   5.849   1.959   0.641
 5365TIP3    H237731   5.974   1.892   0.689
 5366TIP3   OH237732   5.801   1.954   0.265
 5366TIP3    H137733   5.854   2.018   0.212
 5366TIP3    H237734   5.749   2.012   0.322
 5367TIP3   OH237735   6.375   1.971   0.673
 5367TIP3    H137736   6.465   2.006   0.665
 5367TIP3    H237737   6.372   1.949   0.766
 5368TIP3   OH237738   6.952   1.969   0.833
 5368TIP3    H137739   6.943   1.985   0.738
 5368TIP3    H237740   6.908   1.882   0.847
 5369TIP3   OH237741   7.065   1.969   0.393
 5369TIP3    H137742   6.994   2.035   0.388
 5369TIP3    H237743   7.021   1.887   0.424
 5370TIP3   OH237744   5.797   3.549   0.368
 5370TIP3    H137745   5.729   3.549   0.298
 5370TIP3    H237746   5.800   3.644   0.383
 5371TIP3   OH237747   5.987   2.139   0.121
 5371TIP3    H137748   6.042   2.085   0.064
 5371TIP3    H237749   6.053   2.182   0.178
 5372TIP3   OH237750   6.491   2.172   0.358
 5372TIP3    H137751   6.518   2.114   0.432
 5372TIP3    H237752   6.499   2.258   0.404
 5373TIP3   OH237753   6.683   3.706   0.200
 5373TIP3    H137754   6.779   3.706   0.184
 5373TIP3    H237755   6.664   3.630   0.140
 5374TIP3   OH237756   5.959   2.011   1.633
 5374TIP3    H137757   5.888   1.964   1.682
 5374TIP3    H237758   6.028   2.023   1.699
 5375TIP3   OH237759   6.133   1.973   1.820
 5375TIP3    H137760   6.207   1.932   1.774
 5375TIP3    H237761   6.078   1.895   1.845
 5376TIP3   OH237762   5.980   3.647   0.064
 5376TIP3    H137763   5.949   3.674   0.151
 5376TIP3    H237764   6.056   3.592   0.081
 5377TIP3   OH237765   6.960   1.902   1.817
 5377TIP3    H137766   6.969   1.853   1.899
 5377TIP3    H237767   7.049   1.898   1.777
 5378TIP3   OH237768   7.269   3.499   1.690
 5378TIP3    H137769   7.196   3.487   1.627
 5378TIP3    H237770   7.260   3.597   1.703
 5379TIP3   OH237771   1.181   4.778   0.679
 5379TIP3    H137772   1.179   4.876   0.676
 5379TIP3    H237773   1.108   4.755   0.620
 5380TIP3   OH237774   1.066   4.702   1.029
 5380TIP3    H137775   1.065   4.638   1.102
 5380TIP3    H237776   1.030   4.652   0.955
 5381TIP3   OH237777   0.305   4.670   1.182
 5381TIP3    H137778   0.310   4.601   1.252
 5381TIP3    H237779   0.378   4.728   1.207
 5382TIP3   OH237780   1.434   4.998   0.858
 5382TIP3    H137781   1.392   4.927   0.907
 5382TIP3    H237782   1.437   5.069   0.925
 5383TIP3   OH237783   0.389   5.116   1.035
 5383TIP3    H137784   0.359   5.029   1.004
 5383TIP3    H237785   0.485   5.098   1.040
 5384TIP3   OH237786   0.079   4.474   0.557
 5384TIP3    H137787   0.028   4.553   0.587
 5384TIP3    H237788   0.006   4.416   0.542
 5385TIP3   OH237789   0.126   4.689   0.795
 5385TIP3    H137790   0.154   4.612   0.846
 5385TIP3    H237791   0.200   4.703   0.734
 5386TIP3   OH237792   1.146   5.514   0.882
 5386TIP3    H137793   1.211   5.445   0.854
 5386TIP3    H237794   1.124   5.481   0.969
 5387TIP3   OH237795   0.903   4.943   1.078
 5387TIP3    H137796   0.937   4.880   1.011
 5387TIP3    H237797   0.985   4.959   1.129
 5388TIP3   OH237798   1.764   4.110   1.148
 5388TIP3    H137799   1.780   4.168   1.225
 5388TIP3    H237800   1.821   4.153   1.083
 5389TIP3   OH237801   1.219   4.390   1.109
 5389TIP3    H137802   1.237   4.295   1.110
 5389TIP3    H237803   1.210   4.404   1.012
 5390TIP3   OH237804   0.533   4.198   0.830
 5390TIP3    H137805   0.543   4.282   0.781
 5390TIP3    H237806   0.492   4.141   0.761
 5391TIP3   OH237807   1.305   4.207   0.667
 5391TIP3    H137808   1.370   4.175   0.734
 5391TIP3    H237809   1.362   4.264   0.613
 5392TIP3   OH237810   0.196   4.437   0.895
 5392TIP3    H137811   0.263   4.388   0.947
 5392TIP3    H237812   0.212   4.404   0.806
 5393TIP3   OH237813   0.709   4.595   0.836
 5393TIP3    H137814   0.777   4.538   0.874
 5393TIP3    H237815   0.658   4.530   0.784
 5394TIP3   OH237816   1.821   4.257   1.374
 5394TIP3    H137817   1.744   4.318   1.365
 5394TIP3    H237818   1.809   4.239   1.469
 5395TIP3   OH237819   0.423   4.089   1.233
 5395TIP3    H137820   0.395   4.146   1.158
 5395TIP3    H237821   0.354   4.112   1.300
 5396TIP3   OH237822   1.150   5.036   0.589
 5396TIP3    H137823   1.123   5.009   0.499
 5396TIP3    H237824   1.120   5.130   0.593
 5397TIP3   OH237825   0.675   4.853   1.258
 5397TIP3    H137826   0.603   4.916   1.280
 5397TIP3    H237827   0.745   4.914   1.228
 5398TIP3   OH237828   1.486   4.142   0.868
 5398TIP3    H137829   1.465   4.065   0.922
 5398TIP3    H237830   1.554   4.185   0.922
 5399TIP3   OH237831   0.378   4.271   1.037
 5399TIP3    H137832   0.437   4.342   1.070
 5399TIP3    H237833   0.433   4.234   0.964
 5400TIP3   OH237834   0.517   5.053   1.337
 5400TIP3    H137835   0.512   5.145   1.305
 5400TIP3    H237836   0.429   5.046   1.382
 5401TIP3   OH237837   0.127   5.021   0.416
 5401TIP3    H137838   0.105   5.051   0.326
 5401TIP3    H237839   0.133   5.101   0.471
 5402TIP3   OH237840   1.487   5.182   1.095
 5402TIP3    H137841   1.390   5.193   1.107
 5402TIP3    H237842   1.514   5.273   1.074
 5403TIP3   OH237843   1.517   4.009   1.227
 5403TIP3    H137844   1.447   4.076   1.225
 5403TIP3    H237845   1.591   4.054   1.184
 5404TIP3   OH237846   0.816   3.823   0.980
 5404TIP3    H137847   0.802   3.726   0.973
 5404TIP3    H237848   0.728   3.853   1.011
 5405TIP3   OH237849   1.313   5.360   0.754
 5405TIP3    H137850   1.356   5.288   0.703
 5405TIP3    H237851   1.358   5.439   0.716
 5406TIP3   OH237852   1.435   5.153   0.605
 5406TIP3    H137853   1.405   5.084   0.543
 5406TIP3    H237854   1.438   5.103   0.689
 5407TIP3   OH237855   1.598   5.013   1.456
 5407TIP3    H137856   1.611   4.947   1.384
 5407TIP3    H237857   1.617   5.097   1.409
 5408TIP3   OH237858   1.045   4.702   0.430
 5408TIP3    H137859   0.976   4.760   0.390
 5408TIP3    H237860   1.117   4.711   0.364
 5409TIP3   OH237861   1.050   4.555   0.139
 5409TIP3    H137862   1.123   4.555   0.203
 5409TIP3    H237863   1.083   4.491   0.076
 5410TIP3   OH237864   1.786   4.644   1.260
 5410TIP3    H137865   1.719   4.715   1.264
 5410TIP3    H237866   1.834   4.667   1.178
 5411TIP3   OH237867   1.391   4.723   0.525
 5411TIP3    H137868   1.316   4.747   0.585
 5411TIP3    H237869   1.438   4.655   0.577
 5412TIP3   OH237870   1.382   4.540   1.436
 5412TIP3    H137871   1.385   4.622   1.488
 5412TIP3    H237872   1.320   4.570   1.366
 5413TIP3   OH237873   0.554   4.789   0.715
 5413TIP3    H137874   0.518   4.749   0.633
 5413TIP3    H237875   0.614   4.719   0.749
 5414TIP3   OH237876   0.684   5.126   0.983
 5414TIP3    H137877   0.683   5.074   0.902
 5414TIP3    H237878   0.762   5.091   1.029
 5415TIP3   OH237879   0.586   4.663   1.082
 5415TIP3    H137880   0.640   4.673   1.001
 5415TIP3    H237881   0.624   4.731   1.142
 5416TIP3   OH237882   1.227   5.220   1.152
 5416TIP3    H137883   1.198   5.284   1.218
 5416TIP3    H237884   1.201   5.135   1.194
 5417TIP3   OH237885   0.681   5.104   1.552
 5417TIP3    H137886   0.640   5.179   1.600
 5417TIP3    H237887   0.613   5.085   1.482
 5418TIP3   OH237888   1.279   4.642   0.290
 5418TIP3    H137889   1.333   4.661   0.371
 5418TIP3    H237890   1.320   4.696   0.221
 5419TIP3   OH237891   0.378   4.725   1.475
 5419TIP3    H137892   0.377   4.790   1.548
 5419TIP3    H237893   0.286   4.731   1.443
 5420TIP3   OH237894   1.049   5.314   0.639
 5420TIP3    H137895   1.093   5.346   0.718
 5420TIP3    H237896   0.994   5.389   0.612
 5421TIP3   OH237897   0.504   5.308   1.624
 5421TIP3    H137898   0.495   5.299   1.528
 5421TIP3    H237899   0.411   5.297   1.654
 5422TIP3   OH237900   1.653   3.816   0.288
 5422TIP3    H137901   1.555   3.825   0.298
 5422TIP3    H237902   1.668   3.896   0.235
 5423TIP3   OH237903   0.451   4.690   0.474
 5423TIP3    H137904   0.422   4.769   0.424
 5423TIP3    H237905   0.383   4.625   0.453
 5424TIP3   OH237906   1.761   5.247   0.116
 5424TIP3    H137907   1.771   5.344   0.129
 5424TIP3    H237908   1.855   5.224   0.112
 5425TIP3   OH237909   0.101   4.925   1.346
 5425TIP3    H137910   0.028   4.930   1.282
 5425TIP3    H237911   0.075   4.840   1.385
 5426TIP3   OH237912   0.051   5.223   1.025
 5426TIP3    H137913   0.139   5.190   1.046
 5426TIP3    H237914   0.032   5.281   1.100
 5427TIP3   OH237915   1.857   5.277   1.614
 5427TIP3    H137916   1.847   5.181   1.611
 5427TIP3    H237917   1.770   5.303   1.653
 5428TIP3   OH237918   0.954   5.229   1.501
 5428TIP3    H137919   0.959   5.314   1.551
 5428TIP3    H237920   0.864   5.197   1.522
 5429TIP3   OH237921   0.997   5.605   0.478
 5429TIP3    H137922   0.989   5.600   0.381
 5429TIP3    H237923   1.001   5.701   0.495
 5430TIP3   OH237924   0.362   5.494   0.660
 5430TIP3    H137925   0.376   5.451   0.747
 5430TIP3    H237926   0.279   5.451   0.634
 5431TIP3   OH237927   1.300   5.526   0.175
 5431TIP3    H137928   1.348   5.450   0.134
 5431TIP3    H237929   1.308   5.503   0.269
 5432TIP3   OH237930   1.272   5.521   0.455
 5432TIP3    H137931   1.176   5.527   0.474
 5432TIP3    H237932   1.297   5.446   0.512
 5433TIP3   OH237933   1.569   4.429   1.658
 5433TIP3    H137934   1.525   4.470   1.583
 5433TIP3    H237935   1.575   4.337   1.626
 5434TIP3   OH237936   0.287   5.071   1.463
 5434TIP3    H137937   0.304   5.029   1.549
 5434TIP3    H237938   0.203   5.028   1.434
 5435TIP3   OH237939   0.556   3.914   1.054
 5435TIP3    H137940   0.466   3.901   1.018
 5435TIP3    H237941   0.541   3.996   1.104
 5436TIP3   OH237942   1.018   3.880   1.394
 5436TIP3    H137943   1.058   3.838   1.472
 5436TIP3    H237944   0.921   3.868   1.407
 5437TIP3   OH237945   1.318   4.264   1.471
 5437TIP3    H137946   1.290   4.247   1.563
 5437TIP3    H237947   1.335   4.359   1.464
 5438TIP3   OH237948   1.431   4.751   0.075
 5438TIP3    H137949   1.429   4.732  -0.021
 5438TIP3    H237950   1.515   4.795   0.087
 5439TIP3   OH237951   0.979   4.139   0.126
 5439TIP3    H137952   0.952   4.131   0.219
 5439TIP3    H237953   0.959   4.049   0.097
 5440TIP3   OH237954   0.565   4.410   1.182
 5440TIP3    H137955   0.491   4.409   1.245
 5440TIP3    H237956   0.558   4.501   1.144
 5441TIP3   OH237957   0.562   4.421   0.668
 5441TIP3    H137958   0.468   4.397   0.654
 5441TIP3    H237959   0.600   4.393   0.582
 5442TIP3   OH237960   1.114   4.471   0.542
 5442TIP3    H137961   1.073   4.555   0.509
 5442TIP3    H237962   1.182   4.456   0.474
 5443TIP3   OH237963   1.020   4.498   1.690
 5443TIP3    H137964   0.966   4.418   1.715
 5443TIP3    H237965   1.105   4.476   1.729
 5444TIP3   OH237966   1.217   4.421   0.829
 5444TIP3    H137967   1.188   4.477   0.756
 5444TIP3    H237968   1.226   4.336   0.782
 5445TIP3   OH237969   0.329   4.434   1.349
 5445TIP3    H137970   0.333   4.475   1.437
 5445TIP3    H237971   0.282   4.351   1.369
 5446TIP3   OH237972   0.682   4.196   0.064
 5446TIP3    H137973   0.628   4.135   0.119
 5446TIP3    H237974   0.619   4.234   0.004
 5447TIP3   OH237975   0.022   4.169   0.734
 5447TIP3    H137976   0.062   4.139   0.818
 5447TIP3    H237977   0.045   4.101   0.671
 5448TIP3   OH237978   0.123   4.229   0.281
 5448TIP3    H137979   0.176   4.284   0.220
 5448TIP3    H237980   0.051   4.288   0.306
 5449TIP3   OH237981   1.132   4.580   1.283
 5449TIP3    H137982   1.175   4.511   1.227
 5449TIP3    H237983   1.091   4.525   1.352
 5450TIP3   OH237984   0.817   4.178   0.768
 5450TIP3    H137985   0.723   4.177   0.797
 5450TIP3    H237986   0.865   4.160   0.850
 5451TIP3   OH237987   0.305   4.332   0.651
 5451TIP3    H137988   0.215   4.348   0.616
 5451TIP3    H237989   0.326   4.245   0.611
 5452TIP3   OH237990   0.660   4.339   0.417
 5452TIP3    H137991   0.756   4.348   0.434
 5452TIP3    H237992   0.638   4.404   0.349
 5453TIP3   OH237993   1.257   4.101   1.091
 5453TIP3    H137994   1.190   4.106   1.163
 5453TIP3    H237995   1.205   4.075   1.014
 5454TIP3   OH237996   0.534   4.454   0.177
 5454TIP3    H137997   0.478   4.420   0.105
 5454TIP3    H237998   0.615   4.476   0.129
 5455TIP3   OH237999   1.581   5.660   1.724
 5455TIP3    H138000   1.605   5.703   1.640
 5455TIP3    H238001   1.645   5.699   1.784
 5456TIP3   OH238002   0.346   4.913   1.680
 5456TIP3    H138003   0.417   4.936   1.742
 5456TIP3    H238004   0.270   4.923   1.741
 5457TIP3   OH238005   0.944   4.452   0.957
 5457TIP3    H138006   1.004   4.400   0.904
 5457TIP3    H238007   0.930   4.398   1.036
 5458TIP3   OH238008   0.445   4.068   0.601
 5458TIP3    H138009   0.413   3.975   0.599
 5458TIP3    H238010   0.524   4.060   0.546
 5459TIP3   OH238011   0.806   4.285   1.198
 5459TIP3    H138012   0.725   4.338   1.207
 5459TIP3    H238013   0.863   4.320   1.269
 5460TIP3   OH238014   0.868   4.905   0.371
 5460TIP3    H138015   0.787   4.861   0.337
 5460TIP3    H238016   0.844   4.919   0.465
 5461TIP3   OH238017   1.586   4.828   1.248
 5461TIP3    H138018   1.642   4.877   1.184
 5461TIP3    H238019   1.500   4.832   1.202
 5462TIP3   OH238020   1.250   4.188   0.194
 5462TIP3    H138021   1.159   4.203   0.168
 5462TIP3    H238022   1.285   4.275   0.217
 5463TIP3   OH238023   1.016   4.934   1.491
 5463TIP3    H138024   0.978   4.892   1.569
 5463TIP3    H238025   0.991   5.027   1.502
 5464TIP3   OH238026   1.324   4.385   0.356
 5464TIP3    H138027   1.414   4.366   0.388
 5464TIP3    H238028   1.334   4.464   0.300
 5465TIP3   OH238029   0.380   4.849   0.947
 5465TIP3    H138030   0.447   4.838   0.877
 5465TIP3    H238031   0.385   4.764   0.994
 5466TIP3   OH238032   1.077   5.054   0.276
 5466TIP3    H138033   1.040   5.139   0.308
 5466TIP3    H238034   1.003   4.991   0.293
 5467TIP3   OH238035   0.102   4.665   1.448
 5467TIP3    H138036   0.111   4.643   1.543
 5467TIP3    H238037   0.016   4.624   1.428
 5468TIP3   OH238038   0.783   4.646   1.689
 5468TIP3    H138039   0.746   4.612   1.606
 5468TIP3    H238040   0.873   4.610   1.687
 5469TIP3   OH238041   1.248   5.174   1.492
 5469TIP3    H138042   1.157   5.195   1.465
 5469TIP3    H238043   1.244   5.208   1.583
 5470TIP3   OH238044   1.813   4.393   0.327
 5470TIP3    H138045   1.756   4.362   0.255
 5470TIP3    H238046   1.820   4.487   0.301
 5471TIP3   OH238047   1.812   4.980   1.610
 5471TIP3    H138048   1.724   5.002   1.570
 5471TIP3    H238049   1.868   4.974   1.530
 5472TIP3   OH238050   1.643   5.278   0.366
 5472TIP3    H138051   1.606   5.195   0.398
 5472TIP3    H238052   1.672   5.258   0.275
 5473TIP3   OH238053   1.363   4.759   1.077
 5473TIP3    H138054   1.269   4.739   1.066
 5473TIP3    H238055   1.407   4.684   1.033
 5474TIP3   OH238056   0.614   5.193   0.688
 5474TIP3    H138057   0.665   5.273   0.667
 5474TIP3    H238058   0.527   5.216   0.654
 5475TIP3   OH238059   0.178   4.673   0.147
 5475TIP3    H138060   0.247   4.737   0.178
 5475TIP3    H238061   0.097   4.711   0.179
 5476TIP3   OH238062   0.757   4.959   0.639
 5476TIP3    H138063   0.725   5.051   0.647
 5476TIP3    H238064   0.685   4.910   0.683
 5477TIP3   OH238065   0.803   5.378   1.280
 5477TIP3    H138066   0.848   5.459   1.252
 5477TIP3    H238067   0.864   5.344   1.347
 5478TIP3   OH238068   0.625   5.458   0.591
 5478TIP3    H138069   0.529   5.472   0.606
 5478TIP3    H238070   0.661   5.542   0.626
 5479TIP3   OH238071   1.154   4.977   1.240
 5479TIP3    H138072   1.122   4.959   1.331
 5479TIP3    H238073   1.218   4.906   1.225
 5480TIP3   OH238074   1.383   5.080   0.154
 5480TIP3    H138075   1.414   5.036   0.236
 5480TIP3    H238076   1.288   5.065   0.161
 5481TIP3   OH238077   1.436   5.435   1.489
 5481TIP3    H138078   1.366   5.387   1.441
 5481TIP3    H238079   1.453   5.509   1.426
 5482TIP3   OH238080   1.836   5.523   0.176
 5482TIP3    H138081   1.905   5.587   0.150
 5482TIP3    H238082   1.764   5.582   0.206
 5483TIP3   OH238083   0.241   4.161   1.426
 5483TIP3    H138084   0.151   4.197   1.428
 5483TIP3    H238085   0.230   4.076   1.473
 5484TIP3   OH238086   1.466   4.947   0.375
 5484TIP3    H138087   1.442   4.866   0.426
 5484TIP3    H238088   1.560   4.954   0.398
 5485TIP3   OH238089   0.209   5.342   1.268
 5485TIP3    H138090   0.230   5.248   1.272
 5485TIP3    H238091   0.227   5.367   1.359
 5486TIP3   OH238092   0.679   5.148   0.243
 5486TIP3    H138093   0.705   5.092   0.317
 5486TIP3    H238094   0.687   5.239   0.278
 5487TIP3   OH238095   0.325   4.870   0.287
 5487TIP3    H138096   0.263   4.911   0.351
 5487TIP3    H238097   0.383   4.945   0.266
 5488TIP3   OH238098   1.112   4.139   1.324
 5488TIP3    H138099   1.187   4.148   1.385
 5488TIP3    H238100   1.078   4.050   1.346
 5489TIP3   OH238101   1.185   4.100   0.438
 5489TIP3    H138102   1.214   4.139   0.353
 5489TIP3    H238103   1.250   4.139   0.497
 5490TIP3   OH238104   0.958   5.313   0.318
 5490TIP3    H138105   0.876   5.365   0.323
 5490TIP3    H238106   1.013   5.362   0.254
 5491TIP3   OH238107   0.912   4.270   0.516
 5491TIP3    H138108   0.990   4.328   0.518
 5491TIP3    H238109   0.885   4.257   0.609
 5492TIP3   OH238110   0.968   4.374   1.434
 5492TIP3    H138111   0.976   4.431   1.512
 5492TIP3    H238112   1.035   4.305   1.443
 5493TIP3   OH238113   0.997   3.976   0.603
 5493TIP3    H138114   0.965   4.041   0.667
 5493TIP3    H238115   1.067   4.031   0.559
 5494TIP3   OH238116   0.697   5.416   0.320
 5494TIP3    H138117   0.712   5.498   0.268
 5494TIP3    H238118   0.669   5.451   0.408
 5495TIP3   OH238119   0.565   4.086   0.281
 5495TIP3    H138120   0.558   4.177   0.314
 5495TIP3    H238121   0.657   4.063   0.307
 5496TIP3   OH238122   1.578   4.243   1.472
 5496TIP3    H138123   1.496   4.201   1.506
 5496TIP3    H238124   1.615   4.163   1.433
 5497TIP3   OH238125   1.448   4.539   0.922
 5497TIP3    H138126   1.366   4.494   0.894
 5497TIP3    H238127   1.496   4.469   0.973
 5498TIP3   OH238128   0.386   5.132   0.180
 5498TIP3    H138129   0.453   5.194   0.212
 5498TIP3    H238130   0.439   5.083   0.113
 5499TIP3   OH238131   0.234   4.398   0.094
 5499TIP3    H138132   0.228   4.493   0.114
 5499TIP3    H238133   0.143   4.377   0.070
 5500TIP3   OH238134   1.553   5.466   1.088
 5500TIP3    H138135   1.545   5.533   1.018
 5500TIP3    H238136   1.650   5.470   1.106
 5501TIP3   OH238137   0.301   3.877   0.967
 5501TIP3    H138138   0.284   3.877   0.870
 5501TIP3    H238139   0.261   3.791   0.994
 5502TIP3   OH238140   0.202   5.270   0.584
 5502TIP3    H138141   0.115   5.309   0.578
 5502TIP3    H238142   0.247   5.317   0.512
 5503TIP3   OH238143   0.139   5.531   1.710
 5503TIP3    H138144   0.184   5.507   1.790
 5503TIP3    H238145   0.081   5.453   1.695
 5504TIP3   OH238146   0.585   5.424   1.871
 5504TIP3    H138147   0.662   5.377   1.906
 5504TIP3    H238148   0.583   5.396   1.778
 5505TIP3   OH238149   1.038   5.381   0.072
 5505TIP3    H138150   0.954   5.334   0.061
 5505TIP3    H238151   1.088   5.338   0.002
 5506TIP3   OH238152   1.241   5.262   1.745
 5506TIP3    H138153   1.207   5.175   1.775
 5506TIP3    H238154   1.317   5.279   1.805
 5507TIP3   OH238155   1.459   5.354   0.032
 5507TIP3    H138156   1.483   5.273   0.080
 5507TIP3    H238157   1.537   5.374  -0.022
 5508TIP3   OH238158   0.124   4.908   1.807
 5508TIP3    H138159   0.131   4.815   1.782
 5508TIP3    H238160   0.041   4.937   1.765
 5509TIP3   OH238161   0.553   4.953   0.027
 5509TIP3    H138162   0.559   4.869   0.075
 5509TIP3    H238163   0.608   4.929  -0.050
 5510TIP3   OH238164   0.790   4.910   1.748
 5510TIP3    H138165   0.747   4.943   1.666
 5510TIP3    H238166   0.785   4.812   1.738
 5511TIP3   OH238167   1.351   4.897   1.493
 5511TIP3    H138168   1.430   4.954   1.480
 5511TIP3    H238169   1.282   4.965   1.492
 5512TIP3   OH238170   0.190   4.628   1.749
 5512TIP3    H138171   0.247   4.550   1.741
 5512TIP3    H238172   0.184   4.634   1.845
 5513TIP3   OH238173   0.667   4.750   0.255
 5513TIP3    H138174   0.616   4.696   0.318
 5513TIP3    H238175   0.697   4.681   0.192
 5514TIP3   OH238176   0.592   4.528   1.485
 5514TIP3    H138177   0.531   4.599   1.511
 5514TIP3    H238178   0.631   4.565   1.404
 5515TIP3   OH238179   0.772   4.573   0.075
 5515TIP3    H138180   0.763   4.551  -0.018
 5515TIP3    H238181   0.870   4.579   0.086
 5516TIP3   OH238182   1.707   4.814   8.519
 5516TIP3    H138183   1.662   4.770   8.444
 5516TIP3    H238184   1.697   4.909   8.502
 5517TIP3   OH238185   0.635   4.267   1.592
 5517TIP3    H138186   0.643   4.197   1.526
 5517TIP3    H238187   0.627   4.348   1.537
 5518TIP3   OH238188   0.672   4.104   1.346
 5518TIP3    H138189   0.724   4.150   1.275
 5518TIP3    H238190   0.583   4.097   1.305
 5519TIP3   OH238191   0.827   4.654   1.371
 5519TIP3    H138192   0.902   4.635   1.314
 5519TIP3    H238193   0.789   4.736   1.334
 5520TIP3   OH238194   1.396   4.716   1.685
 5520TIP3    H138195   1.377   4.781   1.614
 5520TIP3    H238196   1.492   4.703   1.668
 5521TIP3   OH238197   0.477   4.388   1.779
 5521TIP3    H138198   0.400   4.332   1.762
 5521TIP3    H238199   0.543   4.354   1.716
 5522TIP3   OH238200   0.751   3.847   1.387
 5522TIP3    H138201   0.734   3.943   1.375
 5522TIP3    H238202   0.677   3.810   1.334
 5523TIP3   OH238203   0.882   4.281   1.748
 5523TIP3    H138204   0.848   4.258   1.837
 5523TIP3    H238205   0.802   4.261   1.695
 5524TIP3   OH238206   1.148   4.198   1.662
 5524TIP3    H138207   1.051   4.198   1.669
 5524TIP3    H238208   1.175   4.128   1.722
 5525TIP3   OH238209   0.293   4.184   1.758
 5525TIP3    H138210   0.310   4.110   1.698
 5525TIP3    H238211   0.280   4.139   1.844
 5526TIP3   OH238212   0.770   3.783   1.655
 5526TIP3    H138213   0.842   3.717   1.651
 5526TIP3    H238214   0.760   3.801   1.559
 5527TIP3   OH238215   0.810   3.947   1.865
 5527TIP3    H138216   0.794   3.899   1.781
 5527TIP3    H238217   0.754   4.026   1.855
 5528TIP3   OH238218   0.757   5.638   0.176
 5528TIP3    H138219   0.854   5.650   0.189
 5528TIP3    H238220   0.736   5.706   0.112
 5529TIP3   OH238221   0.115   5.096   0.133
 5529TIP3    H138222   0.211   5.109   0.152
 5529TIP3    H238223   0.117   5.040   0.055
 5530TIP3   OH238224   7.357   5.646   0.616
 5530TIP3    H138225   7.271   5.620   0.580
 5530TIP3    H238226   7.372   5.579   0.688
 5531TIP3   OH238227   0.066   5.454   0.809
 5531TIP3    H138228   0.038   5.363   0.833
 5531TIP3    H238229   0.096   5.483   0.897
 5532TIP3   OH238230   1.825   5.529   1.107
 5532TIP3    H138231   1.828   5.544   1.203
 5532TIP3    H238232   1.896   5.587   1.077
 5533TIP3   OH238233   1.785   5.487   1.400
 5533TIP3    H138234   1.736   5.411   1.364
 5533TIP3    H238235   1.832   5.445   1.474
 5534TIP3   OH238236   1.763   4.890   0.408
 5534TIP3    H138237   1.845   4.935   0.435
 5534TIP3    H238238   1.756   4.824   0.480
 5535TIP3   OH238239   1.794   4.703   0.602
 5535TIP3    H138240   1.720   4.651   0.639
 5535TIP3    H238241   1.854   4.714   0.678
 5536TIP3   OH238242   1.771   4.971   1.098
 5536TIP3    H138243   1.852   4.933   1.061
 5536TIP3    H238244   1.786   5.067   1.083
 5537TIP3   OH238245   1.626   5.261   1.327
 5537TIP3    H138246   1.557   5.296   1.386
 5537TIP3    H238247   1.572   5.221   1.256
 5538TIP3   OH238248   1.828   4.687   0.235
 5538TIP3    H138249   1.759   4.716   0.174
 5538TIP3    H238250   1.816   4.751   0.308
 5539TIP3   OH238251   1.627   4.418   0.104
 5539TIP3    H138252   1.670   4.466   0.033
 5539TIP3    H238253   1.637   4.327   0.063
 5540TIP3   OH238254   1.577   4.548   0.659
 5540TIP3    H138255   1.562   4.453   0.653
 5540TIP3    H238256   1.545   4.569   0.749
 5541TIP3   OH238257   0.075   4.755   1.062
 5541TIP3    H138258   0.094   4.751   0.966
 5541TIP3    H238259   0.164   4.742   1.100
 5542TIP3   OH238260   1.659   4.745   1.624
 5542TIP3    H138261   1.719   4.670   1.643
 5542TIP3    H238262   1.721   4.820   1.629
 5543TIP3   OH238263   1.813   4.535   1.686
 5543TIP3    H138264   1.724   4.495   1.680
 5543TIP3    H238265   1.867   4.454   1.686
 5544TIP3   OH238266   1.597   4.178   0.011
 5544TIP3    H138267   1.647   4.112   0.063
 5544TIP3    H238268   1.513   4.124   0.012
 5545TIP3   OH238269   1.543   4.306   0.505
 5545TIP3    H138270   1.573   4.212   0.515
 5545TIP3    H238271   1.621   4.346   0.465
 5546TIP3   OH238272   1.608   4.359   1.048
 5546TIP3    H138273   1.703   4.384   1.047
 5546TIP3    H238274   1.590   4.374   1.143
 5547TIP3   OH238275   1.612   4.441   1.306
 5547TIP3    H138276   1.531   4.459   1.360
 5547TIP3    H238277   1.660   4.526   1.305
 5548TIP3   OH238278   0.059   4.278   1.679
 5548TIP3    H138279   0.150   4.255   1.706
 5548TIP3    H238280   0.003   4.204   1.709
 5549TIP3   OH238281   1.852   3.837   1.860
 5549TIP3    H138282   1.873   3.768   1.795
 5549TIP3    H238283   1.852   3.918   1.805
 5550TIP3   OH238284   1.610   4.036   0.510
 5550TIP3    H138285   1.632   3.990   0.593
 5550TIP3    H238286   1.551   3.972   0.463
 5551TIP3   OH238287   0.154   4.110   0.968
 5551TIP3    H138288   0.208   4.032   0.990
 5551TIP3    H238289   0.210   4.182   1.004
 5552TIP3   OH238290   0.060   4.467   1.110
 5552TIP3    H138291   0.068   4.433   1.019
 5552TIP3    H238292   0.038   4.558   1.085
 5553TIP3   OH238293   1.823   4.052   1.708
 5553TIP3    H138294   1.727   4.078   1.711
 5553TIP3    H238295   1.813   4.001   1.627
 5554TIP3   OH238296   1.796   4.042   0.168
 5554TIP3    H138297   1.832   3.971   0.113
 5554TIP3    H238298   1.866   4.108   0.165
 5555TIP3   OH238299   7.407   4.043   0.451
 5555TIP3    H138300   7.312   4.059   0.453
 5555TIP3    H238301   7.436   4.107   0.382
 5556TIP3   OH238302   1.498   5.537   0.671
 5556TIP3    H138303   1.566   5.507   0.608
 5556TIP3    H238304   1.549   5.587   0.735
 5557TIP3   OH238305   7.379   3.904   1.317
 5557TIP3    H138306   7.304   3.882   1.374
 5557TIP3    H238307   7.327   3.961   1.256
 5558TIP3   OH238308   0.245   5.236   1.722
 5558TIP3    H138309   0.159   5.249   1.679
 5558TIP3    H238310   0.222   5.215   1.813
 5559TIP3   OH238311   0.534   5.330   1.350
 5559TIP3    H138312   0.497   5.415   1.322
 5559TIP3    H238313   0.626   5.339   1.318
 5560TIP3   OH238314   0.965   5.466   1.636
 5560TIP3    H138315   0.979   5.436   1.729
 5560TIP3    H238316   1.054   5.502   1.614
 5561TIP3   OH238317   1.195   5.596   1.571
 5561TIP3    H138318   1.269   5.538   1.546
 5561TIP3    H238319   1.233   5.641   1.648
 5562TIP3   OH238320   1.721   3.829   1.455
 5562TIP3    H138321   1.634   3.874   1.446
 5562TIP3    H238322   1.708   3.749   1.402
 5563TIP3   OH238323   0.277   5.653   1.351
 5563TIP3    H138324   0.202   5.699   1.310
 5563TIP3    H238325   0.241   5.632   1.438
 5564TIP3   OH238326   0.524   5.610   1.256
 5564TIP3    H138327   0.435   5.626   1.296
 5564TIP3    H238328   0.518   5.669   1.179
 5565TIP3   OH238329   0.994   5.602   1.172
 5565TIP3    H138330   0.947   5.657   1.108
 5565TIP3    H238331   1.006   5.664   1.247
 5566TIP3   OH238332   1.221   5.481   1.278
 5566TIP3    H138333   1.136   5.509   1.239
 5566TIP3    H238334   1.270   5.563   1.266
 5567TIP3   OH238335   1.476   5.640   1.299
 5567TIP3    H138336   1.475   5.736   1.275
 5567TIP3    H238337   1.500   5.603   1.212
 5568TIP3   OH238338   0.220   5.517   1.040
 5568TIP3    H138339   0.215   5.474   1.128
 5568TIP3    H238340   0.301   5.477   1.003
 5569TIP3   OH238341   0.430   5.386   0.906
 5569TIP3    H138342   0.411   5.294   0.932
 5569TIP3    H238343   0.514   5.403   0.953
 5570TIP3   OH238344   0.690   5.437   0.996
 5570TIP3    H138345   0.705   5.344   0.969
 5570TIP3    H238346   0.694   5.431   1.092
 5571TIP3   OH238347   1.035   4.001   0.909
 5571TIP3    H138348   0.967   3.937   0.938
 5571TIP3    H238349   1.090   3.948   0.851
 5572TIP3   OH238350   1.548   3.805   0.916
 5572TIP3    H138351   1.610   3.865   0.867
 5572TIP3    H238352   1.460   3.842   0.892
 5573TIP3   OH238353   1.715   3.931   0.744
 5573TIP3    H138354   1.784   3.873   0.702
 5573TIP3    H238355   1.766   4.014   0.754
 5574TIP3   OH238356   0.270   3.861   0.696
 5574TIP3    H138357   0.194   3.843   0.637
 5574TIP3    H238358   0.320   3.779   0.685
 5575TIP3   OH238359   0.195   3.853   0.284
 5575TIP3    H138360   0.206   3.910   0.206
 5575TIP3    H238361   0.109   3.881   0.320
 5576TIP3   OH238362   0.718   3.856   0.673
 5576TIP3    H138363   0.808   3.892   0.665
 5576TIP3    H238364   0.715   3.835   0.767
 5577TIP3   OH238365   1.291   3.858   0.835
 5577TIP3    H138366   1.285   3.870   0.739
 5577TIP3    H238367   1.252   3.768   0.848
 5578TIP3   OH238368   1.416   3.860   0.410
 5578TIP3    H138369   1.344   3.919   0.382
 5578TIP3    H238370   1.371   3.774   0.424
 5579TIP3   OH238371   0.158   5.441   0.360
 5579TIP3    H138372   0.078   5.433   0.303
 5579TIP3    H238373   0.145   5.535   0.382
 5580TIP3   OH238374   0.330   4.035   0.115
 5580TIP3    H138375   0.383   3.971   0.065
 5580TIP3    H238376   0.393   4.065   0.181
 5581TIP3   OH238377   0.833   4.057   0.358
 5581TIP3    H138378   0.861   4.001   0.432
 5581TIP3    H238379   0.841   4.144   0.404
 5582TIP3   OH238380   1.024   5.595   0.203
 5582TIP3    H138381   1.120   5.592   0.189
 5582TIP3    H238382   1.007   5.520   0.141
 5583TIP3   OH238383   1.697   5.515   0.474
 5583TIP3    H138384   1.677   5.437   0.417
 5583TIP3    H238385   1.688   5.589   0.410
 5584TIP3   OH238386   0.259   3.921   1.645
 5584TIP3    H138387   0.218   3.837   1.677
 5584TIP3    H238388   0.351   3.912   1.671
 5585TIP3   OH238389   0.328   5.535   0.064
 5585TIP3    H138390   0.294   5.560   0.151
 5585TIP3    H238391   0.399   5.476   0.084
 5586TIP3   OH238392   1.620   5.386   1.683
 5586TIP3    H138393   1.541   5.378   1.626
 5586TIP3    H238394   1.614   5.482   1.705
 5587TIP3   OH238395   3.066   4.778   0.680
 5587TIP3    H138396   3.064   4.876   0.676
 5587TIP3    H238397   2.993   4.755   0.620
 5588TIP3   OH238398   2.951   4.703   1.030
 5588TIP3    H138399   2.950   4.638   1.102
 5588TIP3    H238400   2.916   4.652   0.955
 5589TIP3   OH238401   2.187   4.671   1.185
 5589TIP3    H138402   2.195   4.602   1.254
 5589TIP3    H238403   2.262   4.728   1.207
 5590TIP3   OH238404   3.319   4.998   0.858
 5590TIP3    H138405   3.279   4.926   0.908
 5590TIP3    H238406   3.323   5.069   0.925
 5591TIP3   OH238407   2.279   5.116   1.034
 5591TIP3    H138408   2.248   5.029   1.003
 5591TIP3    H238409   2.375   5.098   1.039
 5592TIP3   OH238410   1.943   4.471   0.584
 5592TIP3    H138411   1.900   4.558   0.578
 5592TIP3    H238412   1.887   4.417   0.526
 5593TIP3   OH238413   2.015   4.694   0.800
 5593TIP3    H138414   2.042   4.611   0.844
 5593TIP3    H238415   2.084   4.705   0.733
 5594TIP3   OH238416   3.032   5.514   0.882
 5594TIP3    H138417   3.097   5.445   0.853
 5594TIP3    H238418   3.010   5.480   0.969
 5595TIP3   OH238419   2.789   4.942   1.078
 5595TIP3    H138420   2.823   4.880   1.011
 5595TIP3    H238421   2.870   4.959   1.129
 5596TIP3   OH238422   3.648   4.110   1.149
 5596TIP3    H138423   3.666   4.168   1.226
 5596TIP3    H238424   3.705   4.151   1.083
 5597TIP3   OH238425   3.106   4.390   1.109
 5597TIP3    H138426   3.123   4.294   1.109
 5597TIP3    H238427   3.095   4.404   1.013
 5598TIP3   OH238428   2.417   4.199   0.830
 5598TIP3    H138429   2.428   4.282   0.780
 5598TIP3    H238430   2.377   4.142   0.761
 5599TIP3   OH238431   3.191   4.207   0.667
 5599TIP3    H138432   3.256   4.175   0.734
 5599TIP3    H238433   3.248   4.264   0.613
 5600TIP3   OH238434   2.079   4.440   0.904
 5600TIP3    H138435   2.146   4.386   0.949
 5600TIP3    H238436   2.090   4.408   0.812
 5601TIP3   OH238437   2.595   4.596   0.836
 5601TIP3    H138438   2.663   4.537   0.875
 5601TIP3    H238439   2.544   4.530   0.784
 5602TIP3   OH238440   3.692   4.249   1.379
 5602TIP3    H138441   3.632   4.326   1.364
 5602TIP3    H238442   3.696   4.243   1.475
 5603TIP3   OH238443   2.308   4.089   1.235
 5603TIP3    H138444   2.280   4.146   1.161
 5603TIP3    H238445   2.240   4.112   1.303
 5604TIP3   OH238446   3.036   5.036   0.589
 5604TIP3    H138447   3.009   5.009   0.499
 5604TIP3    H238448   3.006   5.130   0.593
 5605TIP3   OH238449   2.559   4.853   1.257
 5605TIP3    H138450   2.489   4.918   1.280
 5605TIP3    H238451   2.630   4.913   1.228
 5606TIP3   OH238452   3.372   4.141   0.866
 5606TIP3    H138453   3.350   4.065   0.920
 5606TIP3    H238454   3.440   4.185   0.920
 5607TIP3   OH238455   2.265   4.274   1.038
 5607TIP3    H138456   2.327   4.343   1.069
 5607TIP3    H238457   2.316   4.233   0.964
 5608TIP3   OH238458   2.404   5.054   1.340
 5608TIP3    H138459   2.399   5.145   1.306
 5608TIP3    H238460   2.316   5.045   1.384
 5609TIP3   OH238461   2.010   5.015   0.418
 5609TIP3    H138462   1.990   5.051   0.329
 5609TIP3    H238463   2.019   5.096   0.472
 5610TIP3   OH238464   3.373   5.182   1.095
 5610TIP3    H138465   3.276   5.193   1.107
 5610TIP3    H238466   3.400   5.273   1.074
 5611TIP3   OH238467   3.405   4.010   1.234
 5611TIP3    H138468   3.333   4.073   1.224
 5611TIP3    H238469   3.477   4.052   1.182
 5612TIP3   OH238470   2.701   3.822   0.981
 5612TIP3    H138471   2.687   3.726   0.973
 5612TIP3    H238472   2.614   3.853   1.011
 5613TIP3   OH238473   3.199   5.360   0.753
 5613TIP3    H138474   3.242   5.288   0.703
 5613TIP3    H238475   3.244   5.439   0.716
 5614TIP3   OH238476   3.322   5.153   0.603
 5614TIP3    H138477   3.291   5.083   0.543
 5614TIP3    H238478   3.324   5.104   0.688
 5615TIP3   OH238479   3.481   5.013   1.455
 5615TIP3    H138480   3.496   4.947   1.384
 5615TIP3    H238481   3.502   5.097   1.410
 5616TIP3   OH238482   2.932   4.702   0.430
 5616TIP3    H138483   2.863   4.760   0.391
 5616TIP3    H238484   3.003   4.711   0.364
 5617TIP3   OH238485   2.935   4.555   0.140
 5617TIP3    H138486   3.009   4.556   0.203
 5617TIP3    H238487   2.968   4.492   0.076
 5618TIP3   OH238488   3.671   4.644   1.259
 5618TIP3    H138489   3.605   4.716   1.263
 5618TIP3    H238490   3.719   4.666   1.178
 5619TIP3   OH238491   3.276   4.723   0.525
 5619TIP3    H138492   3.201   4.747   0.586
 5619TIP3    H238493   3.323   4.655   0.577
 5620TIP3   OH238494   3.269   4.539   1.436
 5620TIP3    H138495   3.270   4.621   1.488
 5620TIP3    H238496   3.207   4.568   1.367
 5621TIP3   OH238497   2.437   4.788   0.716
 5621TIP3    H138498   2.406   4.749   0.631
 5621TIP3    H238499   2.499   4.719   0.749
 5622TIP3   OH238500   2.569   5.126   0.983
 5622TIP3    H138501   2.569   5.074   0.902
 5622TIP3    H238502   2.648   5.091   1.029
 5623TIP3   OH238503   2.470   4.663   1.082
 5623TIP3    H138504   2.525   4.672   1.001
 5623TIP3    H238505   2.510   4.730   1.142
 5624TIP3   OH238506   3.113   5.220   1.152
 5624TIP3    H138507   3.083   5.284   1.218
 5624TIP3    H238508   3.087   5.135   1.194
 5625TIP3   OH238509   2.566   5.107   1.551
 5625TIP3    H138510   2.524   5.181   1.600
 5625TIP3    H238511   2.499   5.086   1.482
 5626TIP3   OH238512   3.165   4.641   0.290
 5626TIP3    H138513   3.218   4.661   0.371
 5626TIP3    H238514   3.206   4.696   0.221
 5627TIP3   OH238515   2.260   4.722   1.468
 5627TIP3    H138516   2.264   4.788   1.539
 5627TIP3    H238517   2.166   4.730   1.443
 5628TIP3   OH238518   2.934   5.314   0.639
 5628TIP3    H138519   2.978   5.346   0.718
 5628TIP3    H238520   2.880   5.389   0.612
 5629TIP3   OH238521   2.388   5.307   1.623
 5629TIP3    H138522   2.383   5.298   1.527
 5629TIP3    H238523   2.295   5.296   1.652
 5630TIP3   OH238524   3.536   3.815   0.280
 5630TIP3    H138525   3.440   3.826   0.304
 5630TIP3    H238526   3.557   3.901   0.240
 5631TIP3   OH238527   2.334   4.691   0.474
 5631TIP3    H138528   2.305   4.769   0.423
 5631TIP3    H238529   2.269   4.624   0.453
 5632TIP3   OH238530   3.646   5.252   0.108
 5632TIP3    H138531   3.651   5.347   0.134
 5632TIP3    H238532   3.733   5.223   0.135
 5633TIP3   OH238533   1.947   4.934   1.364
 5633TIP3    H138534   1.898   4.925   1.280
 5633TIP3    H238535   1.951   4.839   1.389
 5634TIP3   OH238536   1.920   5.207   1.044
 5634TIP3    H138537   2.016   5.195   1.042
 5634TIP3    H238538   1.911   5.289   1.094
 5635TIP3   OH238539   3.742   5.277   1.611
 5635TIP3    H138540   3.733   5.181   1.609
 5635TIP3    H238541   3.656   5.301   1.653
 5636TIP3   OH238542   2.839   5.232   1.498
 5636TIP3    H138543   2.845   5.316   1.550
 5636TIP3    H238544   2.752   5.195   1.525
 5637TIP3   OH238545   2.882   5.606   0.478
 5637TIP3    H138546   2.875   5.600   0.381
 5637TIP3    H238547   2.886   5.701   0.495
 5638TIP3   OH238548   2.247   5.494   0.661
 5638TIP3    H138549   2.262   5.452   0.750
 5638TIP3    H238550   2.162   5.453   0.638
 5639TIP3   OH238551   3.185   5.526   0.175
 5639TIP3    H138552   3.234   5.451   0.134
 5639TIP3    H238553   3.193   5.503   0.269
 5640TIP3   OH238554   3.157   5.521   0.455
 5640TIP3    H138555   3.061   5.527   0.474
 5640TIP3    H238556   3.182   5.446   0.512
 5641TIP3   OH238557   3.457   4.422   1.660
 5641TIP3    H138558   3.411   4.470   1.589
 5641TIP3    H238559   3.457   4.331   1.626
 5642TIP3   OH238560   2.172   5.064   1.463
 5642TIP3    H138561   2.192   5.027   1.551
 5642TIP3    H238562   2.085   5.025   1.439
 5643TIP3   OH238563   2.440   3.911   1.057
 5643TIP3    H138564   2.350   3.900   1.019
 5643TIP3    H238565   2.427   3.995   1.104
 5644TIP3   OH238566   2.905   3.880   1.394
 5644TIP3    H138567   2.944   3.836   1.472
 5644TIP3    H238568   2.808   3.868   1.407
 5645TIP3   OH238569   3.234   4.265   1.481
 5645TIP3    H138570   3.177   4.243   1.559
 5645TIP3    H238571   3.214   4.358   1.458
 5646TIP3   OH238572   3.316   4.751   0.076
 5646TIP3    H138573   3.317   4.734  -0.020
 5646TIP3    H238574   3.403   4.794   0.086
 5647TIP3   OH238575   2.869   4.137   0.127
 5647TIP3    H138576   2.837   4.132   0.218
 5647TIP3    H238577   2.841   4.049   0.097
 5648TIP3   OH238578   2.450   4.410   1.182
 5648TIP3    H138579   2.375   4.409   1.244
 5648TIP3    H238580   2.446   4.501   1.144
 5649TIP3   OH238581   2.446   4.420   0.668
 5649TIP3    H138582   2.352   4.396   0.654
 5649TIP3    H238583   2.484   4.393   0.582
 5650TIP3   OH238584   2.999   4.471   0.541
 5650TIP3    H138585   2.959   4.555   0.509
 5650TIP3    H238586   3.068   4.456   0.474
 5651TIP3   OH238587   2.906   4.493   1.688
 5651TIP3    H138588   2.852   4.416   1.719
 5651TIP3    H238589   2.989   4.481   1.738
 5652TIP3   OH238590   3.102   4.421   0.829
 5652TIP3    H138591   3.073   4.477   0.756
 5652TIP3    H238592   3.111   4.336   0.782
 5653TIP3   OH238593   2.211   4.435   1.347
 5653TIP3    H138594   2.221   4.478   1.434
 5653TIP3    H238595   2.168   4.351   1.370
 5654TIP3   OH238596   2.568   4.197   0.067
 5654TIP3    H138597   2.512   4.135   0.119
 5654TIP3    H238598   2.508   4.236   0.004
 5655TIP3   OH238599   1.879   4.145   0.749
 5655TIP3    H138600   1.947   4.142   0.818
 5655TIP3    H238601   1.923   4.108   0.670
 5656TIP3   OH238602   2.008   4.218   0.285
 5656TIP3    H138603   2.057   4.277   0.223
 5656TIP3    H238604   1.939   4.280   0.316
 5657TIP3   OH238605   3.021   4.579   1.284
 5657TIP3    H138606   3.060   4.510   1.226
 5657TIP3    H238607   2.975   4.527   1.351
 5658TIP3   OH238608   2.702   4.178   0.768
 5658TIP3    H138609   2.609   4.177   0.797
 5658TIP3    H238610   2.750   4.160   0.850
 5659TIP3   OH238611   2.182   4.332   0.655
 5659TIP3    H138612   2.094   4.348   0.615
 5659TIP3    H238613   2.211   4.249   0.614
 5660TIP3   OH238614   2.546   4.339   0.418
 5660TIP3    H138615   2.642   4.348   0.434
 5660TIP3    H238616   2.524   4.404   0.349
 5661TIP3   OH238617   3.143   4.101   1.092
 5661TIP3    H138618   3.074   4.105   1.162
 5661TIP3    H238619   3.091   4.075   1.014
 5662TIP3   OH238620   2.417   4.454   0.178
 5662TIP3    H138621   2.361   4.420   0.105
 5662TIP3    H238622   2.499   4.476   0.131
 5663TIP3   OH238623   3.462   5.667   1.727
 5663TIP3    H138624   3.492   5.701   1.641
 5663TIP3    H238625   3.536   5.695   1.783
 5664TIP3   OH238626   2.234   4.909   1.682
 5664TIP3    H138627   2.300   4.937   1.748
 5664TIP3    H238628   2.153   4.921   1.738
 5665TIP3   OH238629   2.830   4.453   0.957
 5665TIP3    H138630   2.890   4.399   0.904
 5665TIP3    H238631   2.815   4.398   1.035
 5666TIP3   OH238632   2.331   4.067   0.603
 5666TIP3    H138633   2.300   3.975   0.600
 5666TIP3    H238634   2.409   4.060   0.546
 5667TIP3   OH238635   2.694   4.285   1.199
 5667TIP3    H138636   2.611   4.337   1.207
 5667TIP3    H238637   2.749   4.321   1.270
 5668TIP3   OH238638   2.753   4.905   0.371
 5668TIP3    H138639   2.673   4.861   0.337
 5668TIP3    H238640   2.730   4.919   0.465
 5669TIP3   OH238641   3.472   4.828   1.249
 5669TIP3    H138642   3.528   4.876   1.184
 5669TIP3    H238643   3.386   4.832   1.203
 5670TIP3   OH238644   3.140   4.187   0.187
 5670TIP3    H138645   3.045   4.202   0.169
 5670TIP3    H238646   3.170   4.274   0.218
 5671TIP3   OH238647   2.902   4.935   1.493
 5671TIP3    H138648   2.868   4.891   1.571
 5671TIP3    H238649   2.876   5.027   1.504
 5672TIP3   OH238650   3.210   4.382   0.354
 5672TIP3    H138651   3.299   4.368   0.390
 5672TIP3    H238652   3.219   4.463   0.301
 5673TIP3   OH238653   2.264   4.848   0.949
 5673TIP3    H138654   2.332   4.839   0.879
 5673TIP3    H238655   2.270   4.762   0.994
 5674TIP3   OH238656   2.962   5.054   0.276
 5674TIP3    H138657   2.926   5.139   0.309
 5674TIP3    H238658   2.889   4.991   0.293
 5675TIP3   OH238659   1.962   4.690   1.474
 5675TIP3    H138660   1.979   4.644   1.558
 5675TIP3    H238661   1.900   4.627   1.431
 5676TIP3   OH238662   2.663   4.642   1.691
 5676TIP3    H138663   2.632   4.612   1.604
 5676TIP3    H238664   2.756   4.612   1.689
 5677TIP3   OH238665   3.133   5.178   1.488
 5677TIP3    H138666   3.040   5.195   1.464
 5677TIP3    H238667   3.129   5.206   1.581
 5678TIP3   OH238668   3.699   4.396   0.330
 5678TIP3    H138669   3.644   4.363   0.256
 5678TIP3    H238670   3.707   4.488   0.299
 5679TIP3   OH238671   3.698   4.981   1.608
 5679TIP3    H138672   3.609   5.003   1.571
 5679TIP3    H238673   3.753   4.977   1.526
 5680TIP3   OH238674   3.537   5.272   0.367
 5680TIP3    H138675   3.486   5.196   0.398
 5680TIP3    H238676   3.552   5.257   0.273
 5681TIP3   OH238677   3.249   4.759   1.077
 5681TIP3    H138678   3.155   4.739   1.065
 5681TIP3    H238679   3.292   4.684   1.033
 5682TIP3   OH238680   2.501   5.192   0.687
 5682TIP3    H138681   2.551   5.273   0.666
 5682TIP3    H238682   2.413   5.216   0.654
 5683TIP3   OH238683   2.070   4.693   0.126
 5683TIP3    H138684   2.137   4.736   0.182
 5683TIP3    H238685   1.989   4.701   0.181
 5684TIP3   OH238686   2.643   4.959   0.639
 5684TIP3    H138687   2.611   5.051   0.647
 5684TIP3    H238688   2.571   4.910   0.683
 5685TIP3   OH238689   2.688   5.378   1.280
 5685TIP3    H138690   2.734   5.458   1.251
 5685TIP3    H238691   2.749   5.343   1.347
 5686TIP3   OH238692   2.511   5.459   0.590
 5686TIP3    H138693   2.414   5.472   0.606
 5686TIP3    H238694   2.547   5.542   0.626
 5687TIP3   OH238695   3.038   4.977   1.240
 5687TIP3    H138696   3.008   4.958   1.332
 5687TIP3    H238697   3.104   4.906   1.224
 5688TIP3   OH238698   3.269   5.081   0.155
 5688TIP3    H138699   3.297   5.035   0.236
 5688TIP3    H238700   3.173   5.065   0.160
 5689TIP3   OH238701   3.323   5.435   1.490
 5689TIP3    H138702   3.252   5.386   1.444
 5689TIP3    H238703   3.340   5.505   1.425
 5690TIP3   OH238704   3.721   5.522   0.174
 5690TIP3    H138705   3.789   5.588   0.152
 5690TIP3    H238706   3.649   5.582   0.205
 5691TIP3   OH238707   2.128   4.163   1.434
 5691TIP3    H138708   2.036   4.194   1.425
 5691TIP3    H238709   2.116   4.075   1.474
 5692TIP3   OH238710   3.352   4.947   0.376
 5692TIP3    H138711   3.326   4.866   0.426
 5692TIP3    H238712   3.446   4.954   0.396
 5693TIP3   OH238713   2.089   5.339   1.273
 5693TIP3    H138714   2.119   5.247   1.273
 5693TIP3    H238715   2.115   5.369   1.361
 5694TIP3   OH238716   2.563   5.148   0.244
 5694TIP3    H138717   2.591   5.092   0.317
 5694TIP3    H238718   2.573   5.239   0.278
 5695TIP3   OH238719   2.209   4.871   0.284
 5695TIP3    H138720   2.148   4.911   0.350
 5695TIP3    H238721   2.271   4.945   0.268
 5696TIP3   OH238722   3.001   4.138   1.327
 5696TIP3    H138723   3.073   4.144   1.390
 5696TIP3    H238724   2.962   4.050   1.346
 5697TIP3   OH238725   3.074   4.096   0.436
 5697TIP3    H138726   3.099   4.142   0.353
 5697TIP3    H238727   3.133   4.139   0.499
 5698TIP3   OH238728   2.844   5.313   0.318
 5698TIP3    H138729   2.762   5.365   0.323
 5698TIP3    H238730   2.898   5.362   0.254
 5699TIP3   OH238731   2.798   4.270   0.516
 5699TIP3    H138732   2.876   4.328   0.519
 5699TIP3    H238733   2.771   4.257   0.609
 5700TIP3   OH238734   2.853   4.373   1.435
 5700TIP3    H138735   2.862   4.430   1.513
 5700TIP3    H238736   2.920   4.304   1.443
 5701TIP3   OH238737   2.883   3.976   0.603
 5701TIP3    H138738   2.851   4.041   0.667
 5701TIP3    H238739   2.953   4.030   0.559
 5702TIP3   OH238740   2.582   5.416   0.320
 5702TIP3    H138741   2.599   5.498   0.269
 5702TIP3    H238742   2.556   5.451   0.408
 5703TIP3   OH238743   2.449   4.085   0.281
 5703TIP3    H138744   2.443   4.177   0.313
 5703TIP3    H238745   2.541   4.063   0.306
 5704TIP3   OH238746   3.471   4.159   1.525
 5704TIP3    H138747   3.379   4.190   1.509
 5704TIP3    H238748   3.502   4.157   1.432
 5705TIP3   OH238749   3.334   4.538   0.920
 5705TIP3    H138750   3.251   4.494   0.893
 5705TIP3    H238751   3.381   4.470   0.972
 5706TIP3   OH238752   2.271   5.131   0.178
 5706TIP3    H138753   2.337   5.193   0.212
 5706TIP3    H238754   2.327   5.084   0.112
 5707TIP3   OH238755   2.113   4.400   0.099
 5707TIP3    H138756   2.109   4.495   0.112
 5707TIP3    H238757   2.025   4.378   0.064
 5708TIP3   OH238758   3.439   5.465   1.088
 5708TIP3    H138759   3.430   5.533   1.018
 5708TIP3    H238760   3.536   5.470   1.105
 5709TIP3   OH238761   2.188   3.876   0.969
 5709TIP3    H138762   2.170   3.878   0.872
 5709TIP3    H238763   2.147   3.791   0.994
 5710TIP3   OH238764   2.084   5.269   0.583
 5710TIP3    H138765   1.998   5.313   0.578
 5710TIP3    H238766   2.131   5.315   0.512
 5711TIP3   OH238767   2.011   5.534   1.710
 5711TIP3    H138768   2.066   5.510   1.785
 5711TIP3    H238769   1.964   5.451   1.695
 5712TIP3   OH238770   2.469   5.417   1.871
 5712TIP3    H138771   2.550   5.376   1.903
 5712TIP3    H238772   2.469   5.399   1.776
 5713TIP3   OH238773   2.924   5.382   0.071
 5713TIP3    H138774   2.839   5.334   0.061
 5713TIP3    H238775   2.974   5.338   0.002
 5714TIP3   OH238776   3.122   5.264   1.745
 5714TIP3    H138777   3.091   5.175   1.773
 5714TIP3    H238778   3.199   5.277   1.804
 5715TIP3   OH238779   3.345   5.355   0.032
 5715TIP3    H138780   3.366   5.273   0.080
 5715TIP3    H238781   3.422   5.374  -0.022
 5716TIP3   OH238782   2.000   4.908   1.806
 5716TIP3    H138783   2.012   4.818   1.775
 5716TIP3    H238784   1.922   4.938   1.758
 5717TIP3   OH238785   2.431   4.949   0.023
 5717TIP3    H138786   2.447   4.870   0.075
 5717TIP3    H238787   2.494   4.931  -0.049
 5718TIP3   OH238788   2.668   4.910   1.749
 5718TIP3    H138789   2.634   4.942   1.663
 5718TIP3    H238790   2.674   4.812   1.738
 5719TIP3   OH238791   3.236   4.895   1.488
 5719TIP3    H138792   3.315   4.953   1.483
 5719TIP3    H238793   3.167   4.963   1.492
 5720TIP3   OH238794   2.098   4.638   1.754
 5720TIP3    H138795   2.124   4.548   1.738
 5720TIP3    H238796   2.057   4.636   1.840
 5721TIP3   OH238797   2.552   4.750   0.255
 5721TIP3    H138798   2.501   4.696   0.318
 5721TIP3    H238799   2.583   4.681   0.192
 5722TIP3   OH238800   2.475   4.528   1.485
 5722TIP3    H138801   2.418   4.603   1.510
 5722TIP3    H238802   2.517   4.564   1.405
 5723TIP3   OH238803   2.658   4.573   0.075
 5723TIP3    H138804   2.649   4.551  -0.019
 5723TIP3    H238805   2.756   4.578   0.087
 5724TIP3   OH238806   2.984   4.788   1.824
 5724TIP3    H138807   3.079   4.781   1.809
 5724TIP3    H238808   2.967   4.709   1.876
 5725TIP3   OH238809   3.579   4.815   8.526
 5725TIP3    H138810   3.566   4.764   8.444
 5725TIP3    H238811   3.596   4.905   8.497
 5726TIP3   OH238812   2.515   4.267   1.592
 5726TIP3    H138813   2.530   4.196   1.525
 5726TIP3    H238814   2.514   4.347   1.536
 5727TIP3   OH238815   2.558   4.105   1.346
 5727TIP3    H138816   2.609   4.151   1.276
 5727TIP3    H238817   2.469   4.096   1.305
 5728TIP3   OH238818   2.712   4.653   1.371
 5728TIP3    H138819   2.787   4.637   1.313
 5728TIP3    H238820   2.675   4.736   1.336
 5729TIP3   OH238821   3.150   4.427   1.865
 5729TIP3    H138822   3.173   4.333   1.865
 5729TIP3    H238823   3.236   4.473   1.869
 5730TIP3   OH238824   3.286   4.708   1.680
 5730TIP3    H138825   3.261   4.781   1.619
 5730TIP3    H238826   3.382   4.705   1.663
 5731TIP3   OH238827   2.363   4.382   1.791
 5731TIP3    H138828   2.287   4.336   1.756
 5731TIP3    H238829   2.429   4.356   1.722
 5732TIP3   OH238830   2.636   3.848   1.385
 5732TIP3    H138831   2.618   3.944   1.376
 5732TIP3    H238832   2.562   3.811   1.335
 5733TIP3   OH238833   2.761   4.281   1.745
 5733TIP3    H138834   2.734   4.254   1.834
 5733TIP3    H238835   2.681   4.258   1.694
 5734TIP3   OH238836   3.038   4.195   1.660
 5734TIP3    H138837   2.940   4.200   1.666
 5734TIP3    H238838   3.057   4.128   1.727
 5735TIP3   OH238839   2.658   3.783   1.652
 5735TIP3    H138840   2.729   3.716   1.653
 5735TIP3    H238841   2.647   3.801   1.557
 5736TIP3   OH238842   2.702   3.956   1.856
 5736TIP3    H138843   2.677   3.896   1.783
 5736TIP3    H238844   2.633   4.022   1.859
 5737TIP3   OH238845   2.641   5.639   0.177
 5737TIP3    H138846   2.738   5.649   0.190
 5737TIP3    H238847   2.625   5.707   0.111
 5738TIP3   OH238848   1.999   5.093   0.131
 5738TIP3    H138849   2.094   5.112   0.154
 5738TIP3    H238850   2.012   5.046   0.051
 5739TIP3   OH238851   1.874   5.636   0.627
 5739TIP3    H138852   1.803   5.587   0.581
 5739TIP3    H238853   1.903   5.570   0.693
 5740TIP3   OH238854   1.957   5.449   0.815
 5740TIP3    H138855   1.922   5.362   0.835
 5740TIP3    H238856   1.980   5.483   0.903
 5741TIP3   OH238857   3.711   5.529   1.107
 5741TIP3    H138858   3.714   5.545   1.203
 5741TIP3    H238859   3.782   5.587   1.077
 5742TIP3   OH238860   3.670   5.487   1.402
 5742TIP3    H138861   3.622   5.411   1.364
 5742TIP3    H238862   3.720   5.441   1.472
 5743TIP3   OH238863   3.514   5.060   1.869
 5743TIP3    H138864   3.425   5.054   1.907
 5743TIP3    H238865   3.550   5.140   1.911
 5744TIP3   OH238866   3.648   4.893   0.409
 5744TIP3    H138867   3.729   4.940   0.429
 5744TIP3    H238868   3.638   4.822   0.477
 5745TIP3   OH238869   3.684   4.707   0.603
 5745TIP3    H138870   3.605   4.653   0.633
 5745TIP3    H238871   3.736   4.705   0.685
 5746TIP3   OH238872   3.656   4.971   1.097
 5746TIP3    H138873   3.740   4.934   1.064
 5746TIP3    H238874   3.671   5.067   1.084
 5747TIP3   OH238875   3.512   5.261   1.326
 5747TIP3    H138876   3.443   5.296   1.385
 5747TIP3    H238877   3.457   5.221   1.255
 5748TIP3   OH238878   3.712   4.685   0.237
 5748TIP3    H138879   3.651   4.716   0.167
 5748TIP3    H238880   3.698   4.753   0.304
 5749TIP3   OH238881   3.508   4.409   0.102
 5749TIP3    H138882   3.554   4.468   0.039
 5749TIP3    H238883   3.527   4.325   0.057
 5750TIP3   OH238884   3.466   4.551   0.658
 5750TIP3    H138885   3.449   4.455   0.652
 5750TIP3    H238886   3.429   4.569   0.747
 5751TIP3   OH238887   1.963   4.757   1.064
 5751TIP3    H138888   1.980   4.748   0.968
 5751TIP3    H238889   2.053   4.739   1.099
 5752TIP3   OH238890   3.549   4.746   1.627
 5752TIP3    H138891   3.610   4.670   1.638
 5752TIP3    H238892   3.609   4.823   1.627
 5753TIP3   OH238893   3.698   4.534   1.687
 5753TIP3    H138894   3.609   4.494   1.673
 5753TIP3    H238895   3.755   4.455   1.685
 5754TIP3   OH238896   3.473   4.147   0.001
 5754TIP3    H138897   3.531   4.106   0.069
 5754TIP3    H238898   3.384   4.116   0.022
 5755TIP3   OH238899   3.429   4.307   0.506
 5755TIP3    H138900   3.459   4.213   0.517
 5755TIP3    H238901   3.507   4.346   0.465
 5756TIP3   OH238902   3.493   4.361   1.048
 5756TIP3    H138903   3.589   4.384   1.046
 5756TIP3    H238904   3.475   4.375   1.142
 5757TIP3   OH238905   3.500   4.433   1.326
 5757TIP3    H138906   3.412   4.461   1.358
 5757TIP3    H238907   3.543   4.519   1.304
 5758TIP3   OH238908   1.930   4.290   1.685
 5758TIP3    H138909   2.020   4.262   1.694
 5758TIP3    H238910   1.880   4.208   1.709
 5759TIP3   OH238911   3.497   4.034   0.508
 5759TIP3    H138912   3.518   3.991   0.594
 5759TIP3    H238913   3.436   3.971   0.464
 5760TIP3   OH238914   2.045   4.116   0.964
 5760TIP3    H138915   2.091   4.033   0.990
 5760TIP3    H238916   2.101   4.185   1.003
 5761TIP3   OH238917   1.873   4.416   1.067
 5761TIP3    H138918   1.930   4.391   0.992
 5761TIP3    H238919   1.919   4.496   1.096
 5762TIP3   OH238920   3.677   4.051   1.699
 5762TIP3    H138921   3.584   4.075   1.683
 5762TIP3    H238922   3.689   3.995   1.621
 5763TIP3   OH238923   3.678   4.042   0.164
 5763TIP3    H138924   3.721   3.970   0.115
 5763TIP3    H238925   3.750   4.106   0.166
 5764TIP3   OH238926   1.908   4.042   0.474
 5764TIP3    H138927   1.814   4.060   0.459
 5764TIP3    H238928   1.951   4.092   0.401
 5765TIP3   OH238929   3.384   5.537   0.670
 5765TIP3    H138930   3.452   5.507   0.608
 5765TIP3    H238931   3.435   5.587   0.736
 5766TIP3   OH238932   1.911   3.908   1.303
 5766TIP3    H138933   1.841   3.886   1.370
 5766TIP3    H238934   1.861   3.975   1.251
 5767TIP3   OH238935   2.127   5.235   1.724
 5767TIP3    H138936   2.042   5.245   1.678
 5767TIP3    H238937   2.101   5.218   1.815
 5768TIP3   OH238938   2.417   5.327   1.346
 5768TIP3    H138939   2.386   5.415   1.322
 5768TIP3    H238940   2.511   5.337   1.319
 5769TIP3   OH238941   2.850   5.470   1.641
 5769TIP3    H138942   2.865   5.439   1.733
 5769TIP3    H238943   2.939   5.500   1.615
 5770TIP3   OH238944   3.079   5.598   1.572
 5770TIP3    H138945   3.151   5.540   1.545
 5770TIP3    H238946   3.116   5.639   1.652
 5771TIP3   OH238947   3.579   3.859   1.482
 5771TIP3    H138948   3.498   3.888   1.438
 5771TIP3    H238949   3.598   3.777   1.430
 5772TIP3   OH238950   2.161   5.653   1.346
 5772TIP3    H138951   2.086   5.702   1.309
 5772TIP3    H238952   2.131   5.633   1.437
 5773TIP3   OH238953   2.408   5.610   1.256
 5773TIP3    H138954   2.318   5.625   1.294
 5773TIP3    H238955   2.402   5.668   1.178
 5774TIP3   OH238956   2.878   5.600   1.173
 5774TIP3    H138957   2.832   5.656   1.108
 5774TIP3    H238958   2.891   5.663   1.247
 5775TIP3   OH238959   3.107   5.481   1.276
 5775TIP3    H138960   3.022   5.509   1.238
 5775TIP3    H238961   3.156   5.564   1.267
 5776TIP3   OH238962   3.364   5.638   1.297
 5776TIP3    H138963   3.360   5.734   1.275
 5776TIP3    H238964   3.386   5.601   1.209
 5777TIP3   OH238965   2.108   5.516   1.043
 5777TIP3    H138966   2.100   5.469   1.128
 5777TIP3    H238967   2.189   5.478   1.003
 5778TIP3   OH238968   2.315   5.388   0.908
 5778TIP3    H138969   2.298   5.294   0.931
 5778TIP3    H238970   2.401   5.403   0.952
 5779TIP3   OH238971   2.576   5.437   0.996
 5779TIP3    H138972   2.590   5.344   0.969
 5779TIP3    H238973   2.579   5.431   1.092
 5780TIP3   OH238974   2.920   4.001   0.909
 5780TIP3    H138975   2.853   3.937   0.938
 5780TIP3    H238976   2.975   3.948   0.851
 5781TIP3   OH238977   3.434   3.806   0.915
 5781TIP3    H138978   3.495   3.865   0.865
 5781TIP3    H238979   3.345   3.842   0.893
 5782TIP3   OH238980   3.600   3.931   0.743
 5782TIP3    H138981   3.669   3.873   0.702
 5782TIP3    H238982   3.652   4.014   0.754
 5783TIP3   OH238983   2.157   3.863   0.696
 5783TIP3    H138984   2.078   3.845   0.641
 5783TIP3    H238985   2.203   3.777   0.688
 5784TIP3   OH238986   2.030   3.839   0.265
 5784TIP3    H138987   2.083   3.903   0.212
 5784TIP3    H238988   1.976   3.897   0.321
 5785TIP3   OH238989   2.604   3.856   0.673
 5785TIP3    H138990   2.694   3.892   0.665
 5785TIP3    H238991   2.601   3.834   0.766
 5786TIP3   OH238992   3.176   3.858   0.835
 5786TIP3    H138993   3.171   3.870   0.739
 5786TIP3    H238994   3.138   3.767   0.847
 5787TIP3   OH238995   3.302   3.860   0.400
 5787TIP3    H138996   3.228   3.920   0.386
 5787TIP3    H238997   3.258   3.775   0.424
 5788TIP3   OH238998   2.026   5.436   0.368
 5788TIP3    H138999   1.958   5.435   0.298
 5788TIP3    H239000   2.029   5.531   0.383
 5789TIP3   OH239001   2.216   4.024   0.121
 5789TIP3    H139002   2.271   3.970   0.065
 5789TIP3    H239003   2.282   4.067   0.178
 5790TIP3   OH239004   2.720   4.058   0.358
 5790TIP3    H139005   2.746   4.000   0.432
 5790TIP3    H239006   2.727   4.145   0.404
 5791TIP3   OH239007   2.909   5.595   0.204
 5791TIP3    H139008   3.006   5.592   0.189
 5791TIP3    H239009   2.892   5.520   0.141
 5792TIP3   OH239010   3.582   5.515   0.475
 5792TIP3    H139011   3.562   5.437   0.418
 5792TIP3    H239012   3.574   5.588   0.410
 5793TIP3   OH239013   2.144   3.918   1.637
 5793TIP3    H139014   2.107   3.840   1.682
 5793TIP3    H239015   2.235   3.916   1.674
 5794TIP3   OH239016   2.342   3.852   1.794
 5794TIP3    H139017   2.433   3.820   1.778
 5794TIP3    H239018   2.309   3.777   1.847
 5795TIP3   OH239019   2.209   5.533   0.064
 5795TIP3    H139020   2.178   5.560   0.151
 5795TIP3    H239021   2.285   5.477   0.082
 5796TIP3   OH239022   3.187   3.774   1.807
 5796TIP3    H139023   3.190   3.752   1.902
 5796TIP3    H239024   3.281   3.783   1.785
 5797TIP3   OH239025   3.505   5.388   1.688
 5797TIP3    H139026   3.427   5.376   1.628
 5797TIP3    H239027   3.496   5.484   1.702
 5798TIP3   OH239028   4.954   4.779   0.677
 5798TIP3    H139029   4.949   4.877   0.678
 5798TIP3    H239030   4.877   4.756   0.623
 5799TIP3   OH239031   4.836   4.703   1.030
 5799TIP3    H139032   4.836   4.638   1.102
 5799TIP3    H239033   4.802   4.652   0.955
 5800TIP3   OH239034   4.072   4.671   1.185
 5800TIP3    H139035   4.081   4.602   1.254
 5800TIP3    H239036   4.147   4.729   1.207
 5801TIP3   OH239037   5.205   4.998   0.858
 5801TIP3    H139038   5.164   4.926   0.908
 5801TIP3    H239039   5.208   5.068   0.925
 5802TIP3   OH239040   4.165   5.118   1.025
 5802TIP3    H139041   4.136   5.027   1.008
 5802TIP3    H239042   4.259   5.100   1.044
 5803TIP3   OH239043   3.829   4.472   0.583
 5803TIP3    H139044   3.781   4.556   0.579
 5803TIP3    H239045   3.774   4.416   0.525
 5804TIP3   OH239046   3.902   4.696   0.790
 5804TIP3    H139047   3.923   4.615   0.844
 5804TIP3    H239048   3.980   4.698   0.735
 5805TIP3   OH239049   4.918   5.514   0.882
 5805TIP3    H139050   4.982   5.445   0.853
 5805TIP3    H239051   4.896   5.480   0.969
 5806TIP3   OH239052   4.675   4.943   1.074
 5806TIP3    H139053   4.710   4.879   1.011
 5806TIP3    H239054   4.752   4.961   1.130
 5807TIP3   OH239055   5.534   4.110   1.149
 5807TIP3    H139056   5.552   4.168   1.226
 5807TIP3    H239057   5.591   4.151   1.083
 5808TIP3   OH239058   4.991   4.390   1.109
 5808TIP3    H139059   5.008   4.294   1.109
 5808TIP3    H239060   4.981   4.404   1.012
 5809TIP3   OH239061   4.301   4.198   0.830
 5809TIP3    H139062   4.313   4.282   0.780
 5809TIP3    H239063   4.263   4.141   0.760
 5810TIP3   OH239064   5.077   4.208   0.666
 5810TIP3    H139065   5.139   4.174   0.735
 5810TIP3    H239066   5.136   4.262   0.613
 5811TIP3   OH239067   3.965   4.444   0.902
 5811TIP3    H139068   4.030   4.389   0.949
 5811TIP3    H239069   3.976   4.407   0.813
 5812TIP3   OH239070   4.482   4.595   0.836
 5812TIP3    H139071   4.548   4.537   0.875
 5812TIP3    H239072   4.429   4.531   0.783
 5813TIP3   OH239073   5.577   4.249   1.376
 5813TIP3    H139074   5.518   4.327   1.367
 5813TIP3    H239075   5.582   4.242   1.472
 5814TIP3   OH239076   4.194   4.089   1.233
 5814TIP3    H139077   4.166   4.146   1.159
 5814TIP3    H239078   4.127   4.112   1.302
 5815TIP3   OH239079   4.924   5.036   0.588
 5815TIP3    H139080   4.893   5.010   0.500
 5815TIP3    H239081   4.892   5.129   0.594
 5816TIP3   OH239082   4.440   4.845   1.253
 5816TIP3    H139083   4.374   4.913   1.279
 5816TIP3    H239084   4.510   4.912   1.235
 5817TIP3   OH239085   5.258   4.141   0.866
 5817TIP3    H139086   5.236   4.065   0.920
 5817TIP3    H239087   5.324   4.185   0.922
 5818TIP3   OH239088   4.150   4.275   1.038
 5818TIP3    H139089   4.213   4.344   1.069
 5818TIP3    H239090   4.202   4.234   0.964
 5819TIP3   OH239091   4.227   5.025   1.309
 5819TIP3    H139092   4.280   5.108   1.300
 5819TIP3    H239093   4.183   5.043   1.394
 5820TIP3   OH239094   3.888   5.022   0.420
 5820TIP3    H139095   3.879   5.052   0.327
 5820TIP3    H239096   3.907   5.107   0.467
 5821TIP3   OH239097   5.259   5.183   1.096
 5821TIP3    H139098   5.162   5.194   1.108
 5821TIP3    H239099   5.285   5.273   1.073
 5822TIP3   OH239100   5.291   4.010   1.233
 5822TIP3    H139101   5.218   4.073   1.224
 5822TIP3    H239102   5.362   4.052   1.182
 5823TIP3   OH239103   4.587   3.822   0.980
 5823TIP3    H139104   4.572   3.726   0.973
 5823TIP3    H239105   4.499   3.853   1.011
 5824TIP3   OH239106   5.085   5.360   0.754
 5824TIP3    H139107   5.127   5.288   0.703
 5824TIP3    H239108   5.129   5.439   0.716
 5825TIP3   OH239109   5.206   5.154   0.605
 5825TIP3    H139110   5.175   5.086   0.543
 5825TIP3    H239111   5.209   5.103   0.689
 5826TIP3   OH239112   5.366   5.013   1.455
 5826TIP3    H139113   5.382   4.946   1.384
 5826TIP3    H239114   5.389   5.097   1.410
 5827TIP3   OH239115   4.817   4.698   0.429
 5827TIP3    H139116   4.745   4.757   0.396
 5827TIP3    H239117   4.884   4.714   0.361
 5828TIP3   OH239118   4.820   4.554   0.139
 5828TIP3    H139119   4.893   4.557   0.201
 5828TIP3    H239120   4.851   4.490   0.075
 5829TIP3   OH239121   5.556   4.644   1.259
 5829TIP3    H139122   5.490   4.716   1.262
 5829TIP3    H239123   5.606   4.667   1.179
 5830TIP3   OH239124   5.159   4.720   0.527
 5830TIP3    H139125   5.086   4.752   0.587
 5830TIP3    H239126   5.212   4.668   0.591
 5831TIP3   OH239127   5.155   4.539   1.435
 5831TIP3    H139128   5.155   4.620   1.490
 5831TIP3    H239129   5.092   4.569   1.366
 5832TIP3   OH239130   4.320   4.788   0.719
 5832TIP3    H139131   4.295   4.755   0.629
 5832TIP3    H239132   4.387   4.721   0.747
 5833TIP3   OH239133   4.456   5.129   0.980
 5833TIP3    H139134   4.454   5.073   0.902
 5833TIP3    H239135   4.530   5.092   1.033
 5834TIP3   OH239136   4.356   4.660   1.081
 5834TIP3    H139137   4.411   4.674   1.002
 5834TIP3    H239138   4.393   4.730   1.142
 5835TIP3   OH239139   5.000   5.221   1.154
 5835TIP3    H139140   4.965   5.284   1.217
 5835TIP3    H239141   4.971   5.136   1.194
 5836TIP3   OH239142   4.425   5.090   1.590
 5836TIP3    H139143   4.411   5.186   1.605
 5836TIP3    H239144   4.404   5.085   1.494
 5837TIP3   OH239145   5.048   4.651   0.284
 5837TIP3    H139146   5.085   4.696   0.363
 5837TIP3    H239147   5.086   4.704   0.210
 5838TIP3   OH239148   4.144   4.717   1.471
 5838TIP3    H139149   4.152   4.788   1.538
 5838TIP3    H239150   4.052   4.733   1.443
 5839TIP3   OH239151   4.820   5.314   0.639
 5839TIP3    H139152   4.864   5.346   0.718
 5839TIP3    H239153   4.766   5.389   0.612
 5840TIP3   OH239154   4.274   5.313   1.627
 5840TIP3    H139155   4.271   5.300   1.530
 5840TIP3    H239156   4.181   5.295   1.650
 5841TIP3   OH239157   5.422   3.818   0.283
 5841TIP3    H139158   5.326   3.827   0.305
 5841TIP3    H239159   5.442   3.903   0.240
 5842TIP3   OH239160   4.211   4.688   0.484
 5842TIP3    H139161   4.204   4.769   0.427
 5842TIP3    H239162   4.154   4.622   0.445
 5843TIP3   OH239163   5.531   5.248   0.117
 5843TIP3    H139164   5.545   5.344   0.130
 5843TIP3    H239165   5.624   5.220   0.110
 5844TIP3   OH239166   3.828   4.933   1.367
 5844TIP3    H139167   3.784   4.925   1.281
 5844TIP3    H239168   3.837   4.838   1.388
 5845TIP3   OH239169   3.807   5.206   1.041
 5845TIP3    H139170   3.903   5.196   1.043
 5845TIP3    H239171   3.796   5.286   1.093
 5846TIP3   OH239172   5.627   5.278   1.609
 5846TIP3    H139173   5.618   5.182   1.610
 5846TIP3    H239174   5.543   5.302   1.653
 5847TIP3   OH239175   4.734   5.229   1.510
 5847TIP3    H139176   4.727   5.318   1.550
 5847TIP3    H239177   4.641   5.196   1.515
 5848TIP3   OH239178   4.768   5.605   0.480
 5848TIP3    H139179   4.759   5.600   0.383
 5848TIP3    H239180   4.772   5.701   0.495
 5849TIP3   OH239181   4.131   5.496   0.663
 5849TIP3    H139182   4.148   5.451   0.749
 5849TIP3    H239183   4.049   5.452   0.637
 5850TIP3   OH239184   5.069   5.526   0.174
 5850TIP3    H139185   5.119   5.451   0.134
 5850TIP3    H239186   5.079   5.504   0.268
 5851TIP3   OH239187   5.043   5.521   0.455
 5851TIP3    H139188   4.947   5.528   0.473
 5851TIP3    H239189   5.067   5.446   0.512
 5852TIP3   OH239190   5.347   4.425   1.654
 5852TIP3    H139191   5.294   4.469   1.586
 5852TIP3    H239192   5.342   4.331   1.629
 5853TIP3   OH239193   4.043   5.078   1.480
 5853TIP3    H139194   4.080   5.024   1.554
 5853TIP3    H239195   3.972   5.023   1.441
 5854TIP3   OH239196   4.326   3.913   1.055
 5854TIP3    H139197   4.236   3.900   1.019
 5854TIP3    H239198   4.313   3.995   1.105
 5855TIP3   OH239199   4.790   3.879   1.392
 5855TIP3    H139200   4.829   3.838   1.471
 5855TIP3    H239201   4.693   3.868   1.406
 5856TIP3   OH239202   5.116   4.263   1.478
 5856TIP3    H139203   5.063   4.243   1.559
 5856TIP3    H239204   5.102   4.358   1.461
 5857TIP3   OH239205   5.206   4.745   0.078
 5857TIP3    H139206   5.201   4.735  -0.019
 5857TIP3    H239207   5.289   4.795   0.084
 5858TIP3   OH239208   4.755   4.137   0.127
 5858TIP3    H139209   4.722   4.131   0.218
 5858TIP3    H239210   4.727   4.049   0.097
 5859TIP3   OH239211   4.336   4.410   1.183
 5859TIP3    H139212   4.262   4.409   1.245
 5859TIP3    H239213   4.331   4.500   1.144
 5860TIP3   OH239214   4.333   4.420   0.667
 5860TIP3    H139215   4.239   4.396   0.654
 5860TIP3    H239216   4.370   4.393   0.581
 5861TIP3   OH239217   4.890   4.475   0.546
 5861TIP3    H139218   4.841   4.553   0.512
 5861TIP3    H239219   4.947   4.451   0.472
 5862TIP3   OH239220   4.789   4.494   1.689
 5862TIP3    H139221   4.738   4.416   1.720
 5862TIP3    H239222   4.873   4.484   1.739
 5863TIP3   OH239223   4.990   4.422   0.828
 5863TIP3    H139224   4.957   4.477   0.755
 5863TIP3    H239225   4.996   4.335   0.784
 5864TIP3   OH239226   4.098   4.435   1.348
 5864TIP3    H139227   4.107   4.479   1.434
 5864TIP3    H239228   4.054   4.351   1.371
 5865TIP3   OH239229   4.454   4.197   0.067
 5865TIP3    H139230   4.398   4.135   0.119
 5865TIP3    H239231   4.393   4.236   0.004
 5866TIP3   OH239232   3.764   4.146   0.749
 5866TIP3    H139233   3.833   4.141   0.818
 5866TIP3    H239234   3.809   4.108   0.670
 5867TIP3   OH239235   3.893   4.218   0.284
 5867TIP3    H139236   3.943   4.277   0.224
 5867TIP3    H239237   3.825   4.281   0.315
 5868TIP3   OH239238   4.907   4.579   1.284
 5868TIP3    H139239   4.945   4.510   1.226
 5868TIP3    H239240   4.860   4.526   1.351
 5869TIP3   OH239241   4.588   4.178   0.768
 5869TIP3    H139242   4.495   4.177   0.797
 5869TIP3    H239243   4.636   4.160   0.850
 5870TIP3   OH239244   4.068   4.334   0.654
 5870TIP3    H139245   3.979   4.346   0.615
 5870TIP3    H239246   4.097   4.250   0.614
 5871TIP3   OH239247   4.431   4.339   0.417
 5871TIP3    H139248   4.527   4.348   0.434
 5871TIP3    H239249   4.409   4.405   0.349
 5872TIP3   OH239250   5.028   4.101   1.092
 5872TIP3    H139251   4.960   4.105   1.162
 5872TIP3    H239252   4.977   4.075   1.014
 5873TIP3   OH239253   4.303   4.450   0.177
 5873TIP3    H139254   4.247   4.419   0.104
 5873TIP3    H239255   4.384   4.477   0.131
 5874TIP3   OH239256   5.347   5.665   1.721
 5874TIP3    H139257   5.379   5.706   1.639
 5874TIP3    H239258   5.416   5.697   1.784
 5875TIP3   OH239259   4.115   4.911   1.681
 5875TIP3    H139260   4.187   4.937   1.741
 5875TIP3    H239261   4.038   4.920   1.741
 5876TIP3   OH239262   4.716   4.453   0.957
 5876TIP3    H139263   4.776   4.399   0.904
 5876TIP3    H239264   4.701   4.398   1.035
 5877TIP3   OH239265   4.217   4.066   0.602
 5877TIP3    H139266   4.186   3.974   0.599
 5877TIP3    H239267   4.295   4.060   0.546
 5878TIP3   OH239268   4.579   4.285   1.199
 5878TIP3    H139269   4.497   4.337   1.207
 5878TIP3    H239270   4.635   4.321   1.270
 5879TIP3   OH239271   4.641   4.899   0.373
 5879TIP3    H139272   4.556   4.865   0.338
 5879TIP3    H239273   4.612   4.922   0.464
 5880TIP3   OH239274   5.358   4.827   1.249
 5880TIP3    H139275   5.414   4.876   1.185
 5880TIP3    H239276   5.272   4.832   1.203
 5881TIP3   OH239277   5.023   4.183   0.182
 5881TIP3    H139278   4.928   4.198   0.167
 5881TIP3    H239279   5.053   4.268   0.215
 5882TIP3   OH239280   4.793   4.934   1.495
 5882TIP3    H139281   4.752   4.891   1.571
 5882TIP3    H239282   4.757   5.024   1.499
 5883TIP3   OH239283   5.090   4.365   0.354
 5883TIP3    H139284   5.181   4.340   0.383
 5883TIP3    H239285   5.097   4.431   0.283
 5884TIP3   OH239286   4.143   4.842   0.944
 5884TIP3    H139287   4.219   4.840   0.881
 5884TIP3    H239288   4.159   4.763   0.999
 5885TIP3   OH239289   4.848   5.055   0.277
 5885TIP3    H139290   4.810   5.140   0.309
 5885TIP3    H239291   4.774   4.992   0.293
 5886TIP3   OH239292   3.849   4.688   1.474
 5886TIP3    H139293   3.866   4.644   1.559
 5886TIP3    H239294   3.786   4.626   1.432
 5887TIP3   OH239295   4.549   4.645   1.691
 5887TIP3    H139296   4.518   4.614   1.604
 5887TIP3    H239297   4.641   4.613   1.693
 5888TIP3   OH239298   5.019   5.181   1.490
 5888TIP3    H139299   4.926   5.191   1.461
 5888TIP3    H239300   5.008   5.199   1.582
 5889TIP3   OH239301   5.578   4.395   0.331
 5889TIP3    H139302   5.531   4.362   0.253
 5889TIP3    H239303   5.594   4.487   0.300
 5890TIP3   OH239304   5.584   4.979   1.607
 5890TIP3    H139305   5.496   5.001   1.569
 5890TIP3    H239306   5.639   4.976   1.526
 5891TIP3   OH239307   5.415   5.278   0.365
 5891TIP3    H139308   5.378   5.195   0.399
 5891TIP3    H239309   5.445   5.257   0.274
 5892TIP3   OH239310   5.134   4.760   1.078
 5892TIP3    H139311   5.040   4.738   1.066
 5892TIP3    H239312   5.178   4.685   1.033
 5893TIP3   OH239313   4.385   5.196   0.695
 5893TIP3    H139314   4.437   5.271   0.664
 5893TIP3    H239315   4.301   5.212   0.650
 5894TIP3   OH239316   3.958   4.676   0.136
 5894TIP3    H139317   4.021   4.737   0.180
 5894TIP3    H239318   3.872   4.704   0.172
 5895TIP3   OH239319   4.534   4.960   0.650
 5895TIP3    H139320   4.495   5.049   0.642
 5895TIP3    H239321   4.456   4.910   0.679
 5896TIP3   OH239322   4.572   5.404   1.279
 5896TIP3    H139323   4.632   5.471   1.250
 5896TIP3    H239324   4.627   5.344   1.334
 5897TIP3   OH239325   4.397   5.460   0.590
 5897TIP3    H139326   4.300   5.471   0.605
 5897TIP3    H239327   4.432   5.544   0.627
 5898TIP3   OH239328   4.927   4.979   1.243
 5898TIP3    H139329   4.889   4.958   1.331
 5898TIP3    H239330   4.987   4.906   1.225
 5899TIP3   OH239331   5.154   5.078   0.154
 5899TIP3    H139332   5.185   5.036   0.236
 5899TIP3    H239333   5.058   5.067   0.161
 5900TIP3   OH239334   5.206   5.437   1.493
 5900TIP3    H139335   5.139   5.384   1.444
 5900TIP3    H239336   5.222   5.504   1.424
 5901TIP3   OH239337   5.607   5.523   0.176
 5901TIP3    H139338   5.676   5.587   0.150
 5901TIP3    H239339   5.535   5.583   0.206
 5902TIP3   OH239340   4.014   4.162   1.429
 5902TIP3    H139341   3.923   4.196   1.426
 5902TIP3    H239342   4.003   4.076   1.474
 5903TIP3   OH239343   5.240   4.943   0.373
 5903TIP3    H139344   5.214   4.869   0.430
 5903TIP3    H239345   5.333   4.956   0.396
 5904TIP3   OH239346   3.976   5.338   1.273
 5904TIP3    H139347   4.009   5.247   1.273
 5904TIP3    H239348   4.004   5.367   1.360
 5905TIP3   OH239349   4.470   5.154   0.234
 5905TIP3    H139350   4.460   5.090   0.308
 5905TIP3    H239351   4.454   5.239   0.279
 5906TIP3   OH239352   4.074   4.870   0.273
 5906TIP3    H139353   4.035   4.912   0.350
 5906TIP3    H239354   4.157   4.925   0.272
 5907TIP3   OH239355   4.887   4.138   1.326
 5907TIP3    H139356   4.959   4.144   1.390
 5907TIP3    H239357   4.848   4.051   1.347
 5908TIP3   OH239358   4.959   4.098   0.437
 5908TIP3    H139359   4.985   4.140   0.352
 5908TIP3    H239360   5.019   4.141   0.499
 5909TIP3   OH239361   4.733   5.316   0.320
 5909TIP3    H139362   4.647   5.361   0.322
 5909TIP3    H239363   4.784   5.364   0.252
 5910TIP3   OH239364   4.684   4.270   0.515
 5910TIP3    H139365   4.761   4.329   0.520
 5910TIP3    H239366   4.657   4.257   0.608
 5911TIP3   OH239367   4.740   4.373   1.433
 5911TIP3    H139368   4.747   4.429   1.513
 5911TIP3    H239369   4.806   4.304   1.444
 5912TIP3   OH239370   4.769   3.976   0.603
 5912TIP3    H139371   4.737   4.040   0.668
 5912TIP3    H239372   4.839   4.031   0.559
 5913TIP3   OH239373   4.468   5.419   0.319
 5913TIP3    H139374   4.485   5.501   0.269
 5913TIP3    H239375   4.441   5.449   0.409
 5914TIP3   OH239376   4.335   4.085   0.281
 5914TIP3    H139377   4.329   4.177   0.313
 5914TIP3    H239378   4.427   4.063   0.306
 5915TIP3   OH239379   5.357   4.160   1.521
 5915TIP3    H139380   5.264   4.191   1.507
 5915TIP3    H239381   5.387   4.159   1.429
 5916TIP3   OH239382   5.219   4.537   0.916
 5916TIP3    H139383   5.135   4.493   0.894
 5916TIP3    H239384   5.266   4.471   0.972
 5917TIP3   OH239385   4.154   5.147   0.162
 5917TIP3    H139386   4.224   5.187   0.216
 5917TIP3    H239387   4.210   5.081   0.118
 5918TIP3   OH239388   3.998   4.400   0.100
 5918TIP3    H139389   3.994   4.497   0.111
 5918TIP3    H239390   3.911   4.380   0.063
 5919TIP3   OH239391   5.325   5.475   1.096
 5919TIP3    H139392   5.315   5.530   1.015
 5919TIP3    H239393   5.423   5.466   1.101
 5920TIP3   OH239394   4.074   3.877   0.969
 5920TIP3    H139395   4.055   3.878   0.873
 5920TIP3    H239396   4.033   3.791   0.994
 5921TIP3   OH239397   3.966   5.265   0.581
 5921TIP3    H139398   3.884   5.317   0.578
 5921TIP3    H239399   4.019   5.313   0.516
 5922TIP3   OH239400   3.888   5.533   1.713
 5922TIP3    H139401   3.951   5.513   1.785
 5922TIP3    H239402   3.850   5.445   1.692
 5923TIP3   OH239403   4.355   5.421   1.873
 5923TIP3    H139404   4.436   5.379   1.905
 5923TIP3    H239405   4.357   5.398   1.778
 5924TIP3   OH239406   4.810   5.381   0.071
 5924TIP3    H139407   4.725   5.333   0.061
 5924TIP3    H239408   4.860   5.337   0.002
 5925TIP3   OH239409   5.230   5.355   0.032
 5925TIP3    H139410   5.254   5.273   0.080
 5925TIP3    H239411   5.308   5.373  -0.021
 5926TIP3   OH239412   3.879   4.909   1.813
 5926TIP3    H139413   3.898   4.820   1.779
 5926TIP3    H239414   3.808   4.937   1.753
 5927TIP3   OH239415   4.317   4.953   0.020
 5927TIP3    H139416   4.329   4.875   0.076
 5927TIP3    H239417   4.381   4.930  -0.050
 5928TIP3   OH239418   4.555   4.909   1.752
 5928TIP3    H139419   4.517   4.944   1.668
 5928TIP3    H239420   4.561   4.812   1.737
 5929TIP3   OH239421   5.122   4.896   1.490
 5929TIP3    H139422   5.201   4.954   1.482
 5929TIP3    H239423   5.051   4.961   1.490
 5930TIP3   OH239424   3.975   4.636   1.752
 5930TIP3    H139425   4.014   4.549   1.739
 5930TIP3    H239426   3.947   4.633   1.844
 5931TIP3   OH239427   4.443   4.746   0.251
 5931TIP3    H139428   4.391   4.699   0.317
 5931TIP3    H239429   4.470   4.675   0.189
 5932TIP3   OH239430   4.363   4.530   1.484
 5932TIP3    H139431   4.305   4.603   1.508
 5932TIP3    H239432   4.403   4.567   1.403
 5933TIP3   OH239433   4.545   4.568   0.073
 5933TIP3    H139434   4.537   4.551  -0.022
 5933TIP3    H239435   4.643   4.578   0.086
 5934TIP3   OH239436   4.873   4.789   1.820
 5934TIP3    H139437   4.968   4.783   1.803
 5934TIP3    H239438   4.856   4.712   1.877
 5935TIP3   OH239439   5.461   4.814   8.526
 5935TIP3    H139440   5.453   4.766   8.442
 5935TIP3    H239441   5.484   4.904   8.500
 5936TIP3   OH239442   4.403   4.267   1.593
 5936TIP3    H139443   4.414   4.196   1.527
 5936TIP3    H239444   4.399   4.347   1.536
 5937TIP3   OH239445   4.444   4.104   1.345
 5937TIP3    H139446   4.495   4.151   1.275
 5937TIP3    H239447   4.355   4.096   1.305
 5938TIP3   OH239448   4.598   4.652   1.370
 5938TIP3    H139449   4.673   4.638   1.312
 5938TIP3    H239450   4.561   4.736   1.337
 5939TIP3   OH239451   5.036   4.427   1.867
 5939TIP3    H139452   5.064   4.335   1.859
 5939TIP3    H239453   5.120   4.475   1.867
 5940TIP3   OH239454   5.172   4.708   1.681
 5940TIP3    H139455   5.147   4.780   1.619
 5940TIP3    H239456   5.268   4.705   1.662
 5941TIP3   OH239457   4.248   4.388   1.786
 5941TIP3    H139458   4.171   4.332   1.764
 5941TIP3    H239459   4.313   4.355   1.721
 5942TIP3   OH239460   4.522   3.847   1.386
 5942TIP3    H139461   4.505   3.944   1.375
 5942TIP3    H239462   4.448   3.811   1.334
 5943TIP3   OH239463   4.652   4.278   1.749
 5943TIP3    H139464   4.615   4.260   1.838
 5943TIP3    H239465   4.574   4.262   1.692
 5944TIP3   OH239466   4.922   4.194   1.656
 5944TIP3    H139467   4.825   4.199   1.668
 5944TIP3    H239468   4.950   4.129   1.724
 5945TIP3   OH239469   5.070   4.059   1.846
 5945TIP3    H139470   5.078   3.961   1.849
 5945TIP3    H239471   5.059   4.082   1.941
 5946TIP3   OH239472   4.059   4.186   1.759
 5946TIP3    H139473   4.083   4.114   1.697
 5946TIP3    H239474   4.049   4.137   1.842
 5947TIP3   OH239475   4.542   3.785   1.652
 5947TIP3    H139476   4.612   3.717   1.651
 5947TIP3    H239477   4.533   3.803   1.557
 5948TIP3   OH239478   4.581   3.948   1.863
 5948TIP3    H139479   4.564   3.898   1.780
 5948TIP3    H239480   4.521   4.025   1.855
 5949TIP3   OH239481   4.527   5.639   0.175
 5949TIP3    H139482   4.623   5.649   0.191
 5949TIP3    H239483   4.511   5.709   0.113
 5950TIP3   OH239484   3.891   5.081   0.143
 5950TIP3    H139485   3.988   5.098   0.161
 5950TIP3    H239486   3.898   5.021   0.068
 5951TIP3   OH239487   3.761   5.636   0.626
 5951TIP3    H139488   3.688   5.587   0.581
 5951TIP3    H239489   3.789   5.571   0.693
 5952TIP3   OH239490   3.843   5.450   0.815
 5952TIP3    H139491   3.806   5.363   0.836
 5952TIP3    H239492   3.866   5.483   0.904
 5953TIP3   OH239493   5.588   5.544   1.112
 5953TIP3    H139494   5.610   5.538   1.206
 5953TIP3    H239495   5.669   5.582   1.076
 5954TIP3   OH239496   5.551   5.491   1.398
 5954TIP3    H139497   5.506   5.409   1.365
 5954TIP3    H239498   5.604   5.447   1.468
 5955TIP3   OH239499   5.400   5.069   1.866
 5955TIP3    H139500   5.316   5.052   1.910
 5955TIP3    H239501   5.437   5.140   1.920
 5956TIP3   OH239502   5.531   4.892   0.411
 5956TIP3    H139503   5.616   4.935   0.433
 5956TIP3    H239504   5.530   4.822   0.481
 5957TIP3   OH239505   5.564   4.701   0.601
 5957TIP3    H139506   5.491   4.650   0.642
 5957TIP3    H239507   5.626   4.715   0.676
 5958TIP3   OH239508   5.543   4.970   1.100
 5958TIP3    H139509   5.623   4.931   1.061
 5958TIP3    H239510   5.557   5.066   1.082
 5959TIP3   OH239511   5.397   5.261   1.325
 5959TIP3    H139512   5.327   5.291   1.385
 5959TIP3    H239513   5.344   5.219   1.253
 5960TIP3   OH239514   5.588   4.679   0.240
 5960TIP3    H139515   5.541   4.722   0.166
 5960TIP3    H239516   5.590   4.754   0.304
 5961TIP3   OH239517   5.392   4.410   0.102
 5961TIP3    H139518   5.441   4.467   0.039
 5961TIP3    H239519   5.413   4.325   0.057
 5962TIP3   OH239520   5.338   4.549   0.654
 5962TIP3    H139521   5.337   4.452   0.658
 5962TIP3    H239522   5.319   4.570   0.748
 5963TIP3   OH239523   3.849   4.757   1.062
 5963TIP3    H139524   3.870   4.749   0.968
 5963TIP3    H239525   3.937   4.739   1.101
 5964TIP3   OH239526   5.434   4.746   1.630
 5964TIP3    H139527   5.494   4.669   1.642
 5964TIP3    H239528   5.496   4.821   1.624
 5965TIP3   OH239529   5.585   4.534   1.686
 5965TIP3    H139530   5.496   4.493   1.679
 5965TIP3    H239531   5.640   4.455   1.684
 5966TIP3   OH239532   5.358   4.149   0.005
 5966TIP3    H139533   5.417   4.105   0.069
 5966TIP3    H239534   5.269   4.113   0.022
 5967TIP3   OH239535   5.313   4.312   0.499
 5967TIP3    H139536   5.341   4.218   0.517
 5967TIP3    H239537   5.398   4.344   0.465
 5968TIP3   OH239538   5.379   4.361   1.048
 5968TIP3    H139539   5.475   4.384   1.047
 5968TIP3    H239540   5.360   4.375   1.142
 5969TIP3   OH239541   5.385   4.433   1.323
 5969TIP3    H139542   5.298   4.462   1.359
 5969TIP3    H239543   5.429   4.519   1.304
 5970TIP3   OH239544   3.810   4.288   1.680
 5970TIP3    H139545   3.904   4.267   1.698
 5970TIP3    H239546   3.766   4.204   1.706
 5971TIP3   OH239547   5.620   3.838   1.861
 5971TIP3    H139548   5.648   3.770   1.798
 5971TIP3    H239549   5.621   3.920   1.807
 5972TIP3   OH239550   5.379   4.038   0.509
 5972TIP3    H139551   5.404   3.993   0.593
 5972TIP3    H239552   5.323   3.970   0.464
 5973TIP3   OH239553   3.931   4.117   0.964
 5973TIP3    H139554   3.976   4.034   0.990
 5973TIP3    H239555   3.986   4.185   1.003
 5974TIP3   OH239556   3.759   4.416   1.068
 5974TIP3    H139557   3.815   4.391   0.992
 5974TIP3    H239558   3.806   4.497   1.094
 5975TIP3   OH239559   5.568   4.047   1.697
 5975TIP3    H139560   5.474   4.076   1.694
 5975TIP3    H239561   5.569   3.994   1.616
 5976TIP3   OH239562   5.563   4.041   0.164
 5976TIP3    H139563   5.606   3.970   0.115
 5976TIP3    H239564   5.636   4.106   0.166
 5977TIP3   OH239565   3.795   4.042   0.474
 5977TIP3    H139566   3.701   4.061   0.462
 5977TIP3    H239567   3.836   4.092   0.401
 5978TIP3   OH239568   5.268   5.536   0.671
 5978TIP3    H139569   5.337   5.507   0.607
 5978TIP3    H239570   5.319   5.589   0.732
 5979TIP3   OH239571   3.790   3.907   1.304
 5979TIP3    H139572   3.724   3.888   1.373
 5979TIP3    H239573   3.744   3.975   1.252
 5980TIP3   OH239574   4.014   5.234   1.723
 5980TIP3    H139575   3.931   5.248   1.676
 5980TIP3    H239576   3.985   5.220   1.812
 5981TIP3   OH239577   4.293   5.343   1.358
 5981TIP3    H139578   4.271   5.427   1.316
 5981TIP3    H239579   4.384   5.328   1.323
 5982TIP3   OH239580   4.739   5.469   1.640
 5982TIP3    H139581   4.750   5.436   1.732
 5982TIP3    H239582   4.826   5.503   1.613
 5983TIP3   OH239583   4.965   5.594   1.573
 5983TIP3    H139584   5.040   5.541   1.543
 5983TIP3    H239585   5.002   5.643   1.649
 5984TIP3   OH239586   5.467   3.858   1.481
 5984TIP3    H139587   5.384   3.888   1.440
 5984TIP3    H239588   5.483   3.776   1.430
 5985TIP3   OH239589   4.046   5.651   1.348
 5985TIP3    H139590   3.973   5.701   1.308
 5985TIP3    H239591   4.016   5.632   1.437
 5986TIP3   OH239592   4.294   5.613   1.256
 5986TIP3    H139593   4.204   5.623   1.295
 5986TIP3    H239594   4.287   5.669   1.177
 5987TIP3   OH239595   4.768   5.603   1.170
 5987TIP3    H139596   4.718   5.657   1.107
 5987TIP3    H239597   4.778   5.665   1.246
 5988TIP3   OH239598   4.991   5.480   1.275
 5988TIP3    H139599   4.905   5.507   1.237
 5988TIP3    H239600   5.039   5.564   1.264
 5989TIP3   OH239601   5.236   5.637   1.294
 5989TIP3    H139602   5.220   5.732   1.271
 5989TIP3    H239603   5.254   5.594   1.207
 5990TIP3   OH239604   3.993   5.516   1.043
 5990TIP3    H139605   3.985   5.470   1.128
 5990TIP3    H239606   4.075   5.478   1.004
 5991TIP3   OH239607   4.200   5.387   0.906
 5991TIP3    H139608   4.185   5.294   0.931
 5991TIP3    H239609   4.285   5.402   0.953
 5992TIP3   OH239610   4.462   5.438   0.995
 5992TIP3    H139611   4.476   5.345   0.969
 5992TIP3    H239612   4.464   5.428   1.092
 5993TIP3   OH239613   4.806   4.002   0.909
 5993TIP3    H139614   4.738   3.938   0.938
 5993TIP3    H239615   4.861   3.948   0.851
 5994TIP3   OH239616   5.320   3.805   0.916
 5994TIP3    H139617   5.381   3.865   0.865
 5994TIP3    H239618   5.231   3.842   0.893
 5995TIP3   OH239619   5.486   3.931   0.743
 5995TIP3    H139620   5.555   3.873   0.702
 5995TIP3    H239621   5.537   4.014   0.754
 5996TIP3   OH239622   4.043   3.863   0.695
 5996TIP3    H139623   3.964   3.845   0.641
 5996TIP3    H239624   4.089   3.777   0.688
 5997TIP3   OH239625   3.916   3.840   0.265
 5997TIP3    H139626   3.968   3.903   0.212
 5997TIP3    H239627   3.863   3.898   0.322
 5998TIP3   OH239628   4.489   3.856   0.673
 5998TIP3    H139629   4.579   3.892   0.665
 5998TIP3    H239630   4.487   3.834   0.766
 5999TIP3   OH239631   5.062   3.858   0.835
 5999TIP3    H139632   5.056   3.870   0.739
 5999TIP3    H239633   5.024   3.768   0.847
 6000TIP3   OH239634   5.188   3.862   0.400
 6000TIP3    H139635   5.113   3.921   0.385
 6000TIP3    H239636   5.144   3.777   0.423
 6001TIP3   OH239637   3.909   5.436   0.369
 6001TIP3    H139638   3.840   5.438   0.300
 6001TIP3    H239639   3.915   5.531   0.385
 6002TIP3   OH239640   4.101   4.024   0.121
 6002TIP3    H139641   4.157   3.970   0.064
 6002TIP3    H239642   4.167   4.068   0.178
 6003TIP3   OH239643   4.605   4.058   0.358
 6003TIP3    H139644   4.634   4.002   0.432
 6003TIP3    H239645   4.613   4.145   0.404
 6004TIP3   OH239646   4.794   5.593   0.204
 6004TIP3    H139647   4.891   5.594   0.190
 6004TIP3    H239648   4.778   5.519   0.140
 6005TIP3   OH239649   5.467   5.516   0.474
 6005TIP3    H139650   5.448   5.437   0.417
 6005TIP3    H239651   5.458   5.589   0.410
 6006TIP3   OH239652   4.029   3.917   1.641
 6006TIP3    H139653   3.989   3.837   1.680
 6006TIP3    H239654   4.121   3.911   1.675
 6007TIP3   OH239655   4.231   3.857   1.806
 6007TIP3    H139656   4.318   3.824   1.777
 6007TIP3    H239657   4.194   3.775   1.842
 6008TIP3   OH239658   4.088   5.523   0.065
 6008TIP3    H139659   4.066   5.562   0.150
 6008TIP3    H239660   4.173   5.479   0.080
 6009TIP3   OH239661   5.073   3.786   1.815
 6009TIP3    H139662   5.079   3.742   1.902
 6009TIP3    H239663   5.166   3.783   1.784
 6010TIP3   OH239664   5.391   5.391   1.687
 6010TIP3    H139665   5.314   5.377   1.629
 6010TIP3    H239666   5.384   5.486   1.705
 6011TIP3   OH239667   6.837   4.776   0.679
 6011TIP3    H139668   6.836   4.874   0.676
 6011TIP3    H239669   6.764   4.754   0.619
 6012TIP3   OH239670   6.723   4.703   1.029
 6012TIP3    H139671   6.721   4.639   1.102
 6012TIP3    H239672   6.688   4.651   0.954
 6013TIP3   OH239673   5.958   4.671   1.185
 6013TIP3    H139674   5.966   4.602   1.254
 6013TIP3    H239675   6.033   4.728   1.207
 6014TIP3   OH239676   7.092   4.995   0.860
 6014TIP3    H139677   7.050   4.925   0.910
 6014TIP3    H239678   7.099   5.065   0.928
 6015TIP3   OH239679   6.050   5.116   1.035
 6015TIP3    H139680   6.019   5.029   1.003
 6015TIP3    H239681   6.146   5.098   1.039
 6016TIP3   OH239682   5.714   4.470   0.585
 6016TIP3    H139683   5.674   4.559   0.578
 6016TIP3    H239684   5.659   4.417   0.526
 6017TIP3   OH239685   5.786   4.694   0.799
 6017TIP3    H139686   5.813   4.611   0.844
 6017TIP3    H239687   5.855   4.705   0.732
 6018TIP3   OH239688   6.806   5.515   0.882
 6018TIP3    H139689   6.869   5.444   0.853
 6018TIP3    H239690   6.782   5.480   0.968
 6019TIP3   OH239691   6.560   4.942   1.078
 6019TIP3    H139692   6.594   4.880   1.011
 6019TIP3    H239693   6.642   4.959   1.129
 6020TIP3   OH239694   6.875   4.390   1.108
 6020TIP3    H139695   6.894   4.295   1.109
 6020TIP3    H239696   6.866   4.403   1.012
 6021TIP3   OH239697   6.188   4.199   0.830
 6021TIP3    H139698   6.199   4.282   0.780
 6021TIP3    H239699   6.149   4.141   0.761
 6022TIP3   OH239700   6.962   4.209   0.668
 6022TIP3    H139701   7.028   4.175   0.734
 6022TIP3    H239702   7.019   4.264   0.612
 6023TIP3   OH239703   5.851   4.440   0.903
 6023TIP3    H139704   5.917   4.386   0.949
 6023TIP3    H239705   5.861   4.408   0.812
 6024TIP3   OH239706   6.366   4.596   0.836
 6024TIP3    H139707   6.434   4.537   0.875
 6024TIP3    H239708   6.315   4.531   0.784
 6025TIP3   OH239709   6.080   4.089   1.234
 6025TIP3    H139710   6.051   4.146   1.159
 6025TIP3    H239711   6.012   4.112   1.302
 6026TIP3   OH239712   6.805   5.035   0.589
 6026TIP3    H139713   6.782   5.010   0.498
 6026TIP3    H239714   6.777   5.129   0.593
 6027TIP3   OH239715   6.330   4.853   1.257
 6027TIP3    H139716   6.260   4.917   1.280
 6027TIP3    H239717   6.401   4.913   1.228
 6028TIP3   OH239718   7.124   4.139   0.872
 6028TIP3    H139719   7.117   4.060   0.925
 6028TIP3    H239720   7.197   4.187   0.917
 6029TIP3   OH239721   6.037   4.274   1.038
 6029TIP3    H139722   6.099   4.343   1.069
 6029TIP3    H239723   6.088   4.234   0.964
 6030TIP3   OH239724   6.175   5.053   1.339
 6030TIP3    H139725   6.171   5.145   1.306
 6030TIP3    H239726   6.088   5.046   1.385
 6031TIP3   OH239727   5.781   5.014   0.418
 6031TIP3    H139728   5.761   5.049   0.329
 6031TIP3    H239729   5.790   5.097   0.471
 6032TIP3   OH239730   7.136   5.177   1.102
 6032TIP3    H139731   7.039   5.191   1.108
 6032TIP3    H239732   7.168   5.265   1.076
 6033TIP3   OH239733   7.168   4.021   1.220
 6033TIP3    H139734   7.093   4.083   1.223
 6033TIP3    H239735   7.237   4.070   1.174
 6034TIP3   OH239736   6.473   3.822   0.980
 6034TIP3    H139737   6.459   3.726   0.973
 6034TIP3    H239738   6.385   3.853   1.011
 6035TIP3   OH239739   6.966   5.356   0.754
 6035TIP3    H139740   7.012   5.286   0.704
 6035TIP3    H239741   7.013   5.435   0.719
 6036TIP3   OH239742   7.089   5.150   0.603
 6036TIP3    H139743   7.062   5.080   0.542
 6036TIP3    H239744   7.095   5.101   0.687
 6037TIP3   OH239745   7.231   5.022   1.463
 6037TIP3    H139746   7.262   4.954   1.401
 6037TIP3    H239747   7.272   5.101   1.421
 6038TIP3   OH239748   6.701   4.702   0.429
 6038TIP3    H139749   6.633   4.761   0.390
 6038TIP3    H239750   6.773   4.711   0.364
 6039TIP3   OH239751   6.708   4.555   0.139
 6039TIP3    H139752   6.781   4.556   0.203
 6039TIP3    H239753   6.740   4.491   0.076
 6040TIP3   OH239754   7.047   4.724   0.522
 6040TIP3    H139755   6.974   4.749   0.584
 6040TIP3    H239756   7.094   4.658   0.578
 6041TIP3   OH239757   7.034   4.536   1.434
 6041TIP3    H139758   7.040   4.617   1.487
 6041TIP3    H239759   6.976   4.570   1.363
 6042TIP3   OH239760   6.207   4.788   0.715
 6042TIP3    H139761   6.176   4.749   0.630
 6042TIP3    H239762   6.270   4.719   0.748
 6043TIP3   OH239763   6.339   5.126   0.984
 6043TIP3    H139764   6.340   5.075   0.902
 6043TIP3    H239765   6.418   5.091   1.029
 6044TIP3   OH239766   6.241   4.663   1.082
 6044TIP3    H139767   6.296   4.672   1.001
 6044TIP3    H239768   6.281   4.729   1.142
 6045TIP3   OH239769   6.879   5.221   1.151
 6045TIP3    H139770   6.857   5.284   1.220
 6045TIP3    H239771   6.858   5.135   1.195
 6046TIP3   OH239772   6.338   5.108   1.549
 6046TIP3    H139773   6.293   5.179   1.600
 6046TIP3    H239774   6.269   5.085   1.482
 6047TIP3   OH239775   6.938   4.639   0.288
 6047TIP3    H139776   6.989   4.662   0.370
 6047TIP3    H239777   6.976   4.697   0.219
 6048TIP3   OH239778   6.031   4.722   1.468
 6048TIP3    H139779   6.037   4.789   1.538
 6048TIP3    H239780   5.938   4.731   1.444
 6049TIP3   OH239781   6.705   5.314   0.638
 6049TIP3    H139782   6.749   5.346   0.718
 6049TIP3    H239783   6.650   5.389   0.612
 6050TIP3   OH239784   6.163   5.307   1.626
 6050TIP3    H139785   6.156   5.299   1.529
 6050TIP3    H239786   6.070   5.294   1.653
 6051TIP3   OH239787   7.283   3.807   0.274
 6051TIP3    H139788   7.193   3.830   0.304
 6051TIP3    H239789   7.315   3.888   0.235
 6052TIP3   OH239790   6.104   4.691   0.476
 6052TIP3    H139791   6.077   4.768   0.424
 6052TIP3    H239792   6.040   4.624   0.453
 6053TIP3   OH239793   5.714   4.933   1.368
 6053TIP3    H139794   5.670   4.925   1.281
 6053TIP3    H239795   5.723   4.838   1.388
 6054TIP3   OH239796   5.692   5.206   1.043
 6054TIP3    H139797   5.787   5.194   1.042
 6054TIP3    H239798   5.685   5.287   1.094
 6055TIP3   OH239799   6.610   5.232   1.499
 6055TIP3    H139800   6.616   5.316   1.549
 6055TIP3    H239801   6.523   5.194   1.523
 6056TIP3   OH239802   6.654   5.605   0.478
 6056TIP3    H139803   6.646   5.600   0.381
 6056TIP3    H239804   6.659   5.702   0.495
 6057TIP3   OH239805   6.019   5.494   0.661
 6057TIP3    H139806   6.033   5.452   0.749
 6057TIP3    H239807   5.933   5.453   0.637
 6058TIP3   OH239808   6.962   5.526   0.175
 6058TIP3    H139809   7.005   5.448   0.134
 6058TIP3    H239810   6.963   5.502   0.269
 6059TIP3   OH239811   6.928   5.521   0.455
 6059TIP3    H139812   6.832   5.527   0.474
 6059TIP3    H239813   6.954   5.447   0.512
 6060TIP3   OH239814   7.196   4.433   1.664
 6060TIP3    H139815   7.179   4.472   1.579
 6060TIP3    H239816   7.236   4.347   1.637
 6061TIP3   OH239817   5.943   5.065   1.460
 6061TIP3    H139818   5.965   5.029   1.549
 6061TIP3    H239819   5.856   5.025   1.439
 6062TIP3   OH239820   6.212   3.913   1.055
 6062TIP3    H139821   6.121   3.900   1.019
 6062TIP3    H239822   6.198   3.996   1.104
 6063TIP3   OH239823   6.675   3.879   1.391
 6063TIP3    H139824   6.715   3.837   1.470
 6063TIP3    H239825   6.578   3.868   1.406
 6064TIP3   OH239826   7.001   4.263   1.480
 6064TIP3    H139827   6.946   4.244   1.560
 6064TIP3    H239828   6.985   4.357   1.460
 6065TIP3   OH239829   7.091   4.745   0.075
 6065TIP3    H139830   7.087   4.735  -0.022
 6065TIP3    H239831   7.171   4.798   0.083
 6066TIP3   OH239832   6.640   4.137   0.127
 6066TIP3    H139833   6.607   4.133   0.219
 6066TIP3    H239834   6.616   4.048   0.098
 6067TIP3   OH239835   6.222   4.410   1.182
 6067TIP3    H139836   6.148   4.409   1.245
 6067TIP3    H239837   6.217   4.501   1.144
 6068TIP3   OH239838   6.218   4.420   0.668
 6068TIP3    H139839   6.124   4.396   0.654
 6068TIP3    H239840   6.255   4.393   0.582
 6069TIP3   OH239841   6.771   4.471   0.542
 6069TIP3    H139842   6.730   4.554   0.509
 6069TIP3    H239843   6.840   4.455   0.475
 6070TIP3   OH239844   6.675   4.492   1.688
 6070TIP3    H139845   6.624   4.414   1.719
 6070TIP3    H239846   6.760   4.483   1.736
 6071TIP3   OH239847   6.873   4.423   0.830
 6071TIP3    H139848   6.845   4.478   0.755
 6071TIP3    H239849   6.882   4.338   0.784
 6072TIP3   OH239850   5.984   4.434   1.349
 6072TIP3    H139851   5.993   4.475   1.437
 6072TIP3    H239852   5.939   4.351   1.370
 6073TIP3   OH239853   6.338   4.200   0.068
 6073TIP3    H139854   6.283   4.135   0.116
 6073TIP3    H239855   6.279   4.234   0.000
 6074TIP3   OH239856   5.650   4.145   0.748
 6074TIP3    H139857   5.718   4.141   0.818
 6074TIP3    H239858   5.694   4.108   0.670
 6075TIP3   OH239859   5.777   4.219   0.286
 6075TIP3    H139860   5.828   4.276   0.224
 6075TIP3    H239861   5.710   4.282   0.316
 6076TIP3   OH239862   6.793   4.579   1.283
 6076TIP3    H139863   6.832   4.509   1.225
 6076TIP3    H239864   6.746   4.526   1.351
 6077TIP3   OH239865   6.473   4.178   0.768
 6077TIP3    H139866   6.379   4.177   0.797
 6077TIP3    H239867   6.521   4.160   0.850
 6078TIP3   OH239868   5.954   4.332   0.655
 6078TIP3    H139869   5.865   4.348   0.615
 6078TIP3    H239870   5.982   4.249   0.614
 6079TIP3   OH239871   6.317   4.340   0.419
 6079TIP3    H139872   6.413   4.348   0.434
 6079TIP3    H239873   6.295   4.404   0.349
 6080TIP3   OH239874   6.910   4.098   1.091
 6080TIP3    H139875   6.843   4.105   1.162
 6080TIP3    H239876   6.859   4.077   1.012
 6081TIP3   OH239877   6.189   4.453   0.178
 6081TIP3    H139878   6.133   4.419   0.106
 6081TIP3    H239879   6.270   4.476   0.129
 6082TIP3   OH239880   7.231   5.666   1.729
 6082TIP3    H139881   7.261   5.701   1.644
 6082TIP3    H239882   7.302   5.697   1.787
 6083TIP3   OH239883   6.004   4.914   1.684
 6083TIP3    H139884   6.074   4.938   1.747
 6083TIP3    H239885   5.926   4.922   1.742
 6084TIP3   OH239886   6.601   4.452   0.957
 6084TIP3    H139887   6.663   4.399   0.905
 6084TIP3    H239888   6.586   4.398   1.035
 6085TIP3   OH239889   6.102   4.067   0.602
 6085TIP3    H139890   6.071   3.975   0.600
 6085TIP3    H239891   6.181   4.060   0.546
 6086TIP3   OH239892   6.465   4.285   1.199
 6086TIP3    H139893   6.383   4.337   1.207
 6086TIP3    H239894   6.521   4.321   1.270
 6087TIP3   OH239895   6.524   4.905   0.371
 6087TIP3    H139896   6.444   4.860   0.337
 6087TIP3    H239897   6.501   4.919   0.465
 6088TIP3   OH239898   7.228   4.834   1.249
 6088TIP3    H139899   7.292   4.852   1.177
 6088TIP3    H239900   7.146   4.831   1.197
 6089TIP3   OH239901   6.909   4.186   0.187
 6089TIP3    H139902   6.815   4.201   0.169
 6089TIP3    H239903   6.936   4.275   0.218
 6090TIP3   OH239904   6.673   4.932   1.490
 6090TIP3    H139905   6.639   4.892   1.571
 6090TIP3    H239906   6.651   5.025   1.503
 6091TIP3   OH239907   6.981   4.382   0.346
 6091TIP3    H139908   7.067   4.370   0.391
 6091TIP3    H239909   6.987   4.468   0.302
 6092TIP3   OH239910   6.035   4.848   0.948
 6092TIP3    H139911   6.103   4.839   0.879
 6092TIP3    H239912   6.041   4.762   0.994
 6093TIP3   OH239913   6.733   5.055   0.276
 6093TIP3    H139914   6.695   5.140   0.308
 6093TIP3    H239915   6.660   4.991   0.293
 6094TIP3   OH239916   5.735   4.686   1.475
 6094TIP3    H139917   5.751   4.642   1.560
 6094TIP3    H239918   5.671   4.626   1.432
 6095TIP3   OH239919   6.434   4.642   1.692
 6095TIP3    H139920   6.404   4.613   1.604
 6095TIP3    H239921   6.527   4.613   1.691
 6096TIP3   OH239922   6.902   5.174   1.487
 6096TIP3    H139923   6.811   5.194   1.463
 6096TIP3    H239924   6.902   5.206   1.579
 6097TIP3   OH239925   7.288   5.277   0.366
 6097TIP3    H139926   7.258   5.193   0.401
 6097TIP3    H239927   7.328   5.259   0.281
 6098TIP3   OH239928   7.014   4.757   1.079
 6098TIP3    H139929   6.920   4.736   1.063
 6098TIP3    H239930   7.061   4.684   1.034
 6099TIP3   OH239931   6.272   5.193   0.687
 6099TIP3    H139932   6.322   5.273   0.666
 6099TIP3    H239933   6.184   5.216   0.654
 6100TIP3   OH239934   5.845   4.678   0.139
 6100TIP3    H139935   5.907   4.740   0.182
 6100TIP3    H239936   5.759   4.706   0.173
 6101TIP3   OH239937   6.413   4.959   0.639
 6101TIP3    H139938   6.382   5.051   0.647
 6101TIP3    H239939   6.342   4.910   0.684
 6102TIP3   OH239940   6.458   5.378   1.280
 6102TIP3    H139941   6.504   5.458   1.251
 6102TIP3    H239942   6.520   5.343   1.345
 6103TIP3   OH239943   6.283   5.459   0.591
 6103TIP3    H139944   6.186   5.472   0.606
 6103TIP3    H239945   6.318   5.542   0.626
 6104TIP3   OH239946   6.812   4.976   1.241
 6104TIP3    H139947   6.778   4.958   1.332
 6104TIP3    H239948   6.875   4.905   1.225
 6105TIP3   OH239949   7.041   5.081   0.154
 6105TIP3    H139950   7.069   5.036   0.236
 6105TIP3    H239951   6.945   5.067   0.160
 6106TIP3   OH239952   7.089   5.439   1.491
 6106TIP3    H139953   7.024   5.386   1.441
 6106TIP3    H239954   7.113   5.505   1.423
 6107TIP3   OH239955   5.899   4.161   1.429
 6107TIP3    H139956   5.808   4.196   1.427
 6107TIP3    H239957   5.888   4.076   1.476
 6108TIP3   OH239958   7.123   4.945   0.376
 6108TIP3    H139959   7.097   4.865   0.428
 6108TIP3    H239960   7.217   4.953   0.399
 6109TIP3   OH239961   5.859   5.340   1.272
 6109TIP3    H139962   5.891   5.248   1.272
 6109TIP3    H239963   5.888   5.368   1.360
 6110TIP3   OH239964   6.335   5.149   0.243
 6110TIP3    H139965   6.362   5.092   0.317
 6110TIP3    H239966   6.344   5.239   0.279
 6111TIP3   OH239967   5.983   4.871   0.288
 6111TIP3    H139968   5.918   4.911   0.349
 6111TIP3    H239969   6.041   4.946   0.267
 6112TIP3   OH239970   6.770   4.137   1.327
 6112TIP3    H139971   6.845   4.144   1.388
 6112TIP3    H239972   6.734   4.049   1.348
 6113TIP3   OH239973   6.847   4.095   0.435
 6113TIP3    H139974   6.871   4.141   0.353
 6113TIP3    H239975   6.904   4.138   0.499
 6114TIP3   OH239976   6.615   5.313   0.318
 6114TIP3    H139977   6.533   5.365   0.323
 6114TIP3    H239978   6.669   5.362   0.254
 6115TIP3   OH239979   6.569   4.269   0.516
 6115TIP3    H139980   6.647   4.328   0.518
 6115TIP3    H239981   6.543   4.258   0.609
 6116TIP3   OH239982   6.628   4.373   1.434
 6116TIP3    H139983   6.636   4.429   1.514
 6116TIP3    H239984   6.692   4.302   1.445
 6117TIP3   OH239985   6.651   3.976   0.602
 6117TIP3    H139986   6.623   4.040   0.669
 6117TIP3    H239987   6.722   4.030   0.559
 6118TIP3   OH239988   6.353   5.416   0.320
 6118TIP3    H139989   6.369   5.498   0.269
 6118TIP3    H239990   6.327   5.451   0.409
 6119TIP3   OH239991   6.221   4.086   0.280
 6119TIP3    H139992   6.215   4.178   0.314
 6119TIP3    H239993   6.312   4.063   0.306
 6120TIP3   OH239994   7.239   4.152   1.509
 6120TIP3    H139995   7.150   4.193   1.507
 6120TIP3    H239996   7.271   4.165   1.419
 6121TIP3   OH239997   7.106   4.539   0.926
 6121TIP3    H139998   7.023   4.497   0.894
 6121TIP3    H239999   7.145   4.465   0.974
 6122TIP3   OH240000   6.044   5.132   0.180
 6122TIP3    H140001   6.111   5.193   0.213
 6122TIP3    H240002   6.096   5.084   0.112
 6123TIP3   OH240003   5.882   4.400   0.105
 6123TIP3    H140004   5.882   4.497   0.109
 6123TIP3    H240005   5.799   4.380   0.061
 6124TIP3   OH240006   7.215   5.465   1.088
 6124TIP3    H140007   7.198   5.534   1.021
 6124TIP3    H240008   7.309   5.474   1.106
 6125TIP3   OH240009   5.960   3.877   0.969
 6125TIP3    H140010   5.941   3.878   0.873
 6125TIP3    H240011   5.918   3.791   0.994
 6126TIP3   OH240012   5.855   5.269   0.583
 6126TIP3    H140013   5.769   5.313   0.577
 6126TIP3    H240014   5.902   5.315   0.512
 6127TIP3   OH240015   5.779   5.529   1.705
 6127TIP3    H140016   5.835   5.514   1.784
 6127TIP3    H240017   5.735   5.443   1.695
 6128TIP3   OH240018   6.249   5.428   1.872
 6128TIP3    H140019   6.311   5.363   1.902
 6128TIP3    H240020   6.233   5.397   1.780
 6129TIP3   OH240021   6.695   5.382   0.071
 6129TIP3    H140022   6.611   5.334   0.061
 6129TIP3    H240023   6.745   5.337   0.002
 6130TIP3   OH240024   6.894   5.266   1.748
 6130TIP3    H140025   6.863   5.177   1.773
 6130TIP3    H240026   6.972   5.277   1.805
 6131TIP3   OH240027   7.109   5.350   0.030
 6131TIP3    H140028   7.138   5.272   0.080
 6131TIP3    H240029   7.188   5.380  -0.017
 6132TIP3   OH240030   5.767   4.908   1.812
 6132TIP3    H140031   5.784   4.819   1.775
 6132TIP3    H240032   5.692   4.939   1.757
 6133TIP3   OH240033   6.210   4.953   0.027
 6133TIP3    H140034   6.216   4.869   0.073
 6133TIP3    H240035   6.265   4.930  -0.051
 6134TIP3   OH240036   6.442   4.910   1.750
 6134TIP3    H140037   6.406   4.941   1.665
 6134TIP3    H240038   6.444   4.812   1.740
 6135TIP3   OH240039   7.005   4.893   1.485
 6135TIP3    H140040   7.083   4.952   1.480
 6135TIP3    H240041   6.937   4.962   1.493
 6136TIP3   OH240042   5.853   4.633   1.748
 6136TIP3    H140043   5.901   4.550   1.737
 6136TIP3    H240044   5.834   4.632   1.843
 6137TIP3   OH240045   6.324   4.750   0.256
 6137TIP3    H140046   6.272   4.696   0.318
 6137TIP3    H240047   6.354   4.681   0.192
 6138TIP3   OH240048   6.249   4.527   1.486
 6138TIP3    H140049   6.190   4.599   1.512
 6138TIP3    H240050   6.288   4.564   1.405
 6139TIP3   OH240051   6.432   4.570   0.076
 6139TIP3    H140052   6.419   4.551  -0.019
 6139TIP3    H240053   6.529   4.578   0.085
 6140TIP3   OH240054   6.752   4.786   1.825
 6140TIP3    H140055   6.846   4.782   1.803
 6140TIP3    H240056   6.737   4.706   1.876
 6141TIP3   OH240057   6.290   4.266   1.591
 6141TIP3    H140058   6.301   4.196   1.524
 6141TIP3    H240059   6.284   4.347   1.536
 6142TIP3   OH240060   6.330   4.105   1.346
 6142TIP3    H140061   6.380   4.150   1.275
 6142TIP3    H240062   6.240   4.097   1.307
 6143TIP3   OH240063   6.483   4.653   1.370
 6143TIP3    H140064   6.559   4.636   1.313
 6143TIP3    H240065   6.447   4.737   1.336
 6144TIP3   OH240066   6.921   4.430   1.871
 6144TIP3    H140067   6.945   4.338   1.852
 6144TIP3    H240068   7.008   4.471   1.865
 6145TIP3   OH240069   7.052   4.709   1.681
 6145TIP3    H140070   7.032   4.782   1.619
 6145TIP3    H240071   7.149   4.703   1.664
 6146TIP3   OH240072   6.134   4.390   1.783
 6146TIP3    H140073   6.058   4.333   1.763
 6146TIP3    H240074   6.200   4.354   1.722
 6147TIP3   OH240075   6.408   3.848   1.384
 6147TIP3    H140076   6.390   3.944   1.373
 6147TIP3    H240077   6.333   3.811   1.334
 6148TIP3   OH240078   6.538   4.275   1.744
 6148TIP3    H140079   6.509   4.263   1.836
 6148TIP3    H240080   6.455   4.262   1.694
 6149TIP3   OH240081   6.807   4.195   1.658
 6149TIP3    H140082   6.709   4.199   1.669
 6149TIP3    H240083   6.837   4.130   1.723
 6150TIP3   OH240084   6.961   4.060   1.847
 6150TIP3    H140085   6.962   3.962   1.848
 6150TIP3    H240086   6.941   4.082   1.938
 6151TIP3   OH240087   5.945   4.184   1.755
 6151TIP3    H140088   5.969   4.110   1.695
 6151TIP3    H240089   5.933   4.139   1.838
 6152TIP3   OH240090   6.430   3.787   1.656
 6152TIP3    H140091   6.498   3.717   1.650
 6152TIP3    H240092   6.416   3.803   1.560
 6153TIP3   OH240093   6.462   3.955   1.870
 6153TIP3    H140094   6.451   3.899   1.788
 6153TIP3    H240095   6.401   4.026   1.849
 6154TIP3   OH240096   6.413   5.639   0.177
 6154TIP3    H140097   6.510   5.649   0.190
 6154TIP3    H240098   6.396   5.707   0.111
 6155TIP3   OH240099   5.770   5.098   0.131
 6155TIP3    H140100   5.866   5.108   0.151
 6155TIP3    H240101   5.774   5.041   0.053
 6156TIP3   OH240102   5.646   5.635   0.627
 6156TIP3    H140103   5.574   5.587   0.581
 6156TIP3    H240104   5.674   5.570   0.693
 6157TIP3   OH240105   5.728   5.448   0.814
 6157TIP3    H140106   5.693   5.361   0.835
 6157TIP3    H240107   5.755   5.481   0.901
 6158TIP3   OH240108   7.263   5.084   1.817
 6158TIP3    H140109   7.192   5.053   1.875
 6158TIP3    H240110   7.312   5.130   1.884
 6159TIP3   OH240111   7.282   5.254   1.332
 6159TIP3    H140112   7.215   5.298   1.387
 6159TIP3    H240113   7.228   5.219   1.258
 6160TIP3   OH240114   7.308   4.409   0.095
 6160TIP3    H140115   7.330   4.473   0.025
 6160TIP3    H240116   7.292   4.324   0.049
 6161TIP3   OH240117   7.197   4.554   0.661
 6161TIP3    H140118   7.212   4.459   0.664
 6161TIP3    H240119   7.196   4.576   0.756
 6162TIP3   OH240120   5.733   4.756   1.063
 6162TIP3    H140121   5.753   4.749   0.967
 6162TIP3    H240122   5.823   4.739   1.099
 6163TIP3   OH240123  -0.034   4.749   1.653
 6163TIP3    H140124   0.025   4.671   1.655
 6163TIP3    H240125   0.024   4.820   1.623
 6164TIP3   OH240126   7.233   4.160   0.013
 6164TIP3    H140127   7.298   4.109   0.064
 6164TIP3    H240128   7.153   4.108   0.024
 6165TIP3   OH240129   7.199   4.303   0.492
 6165TIP3    H140130   7.227   4.217   0.528
 6165TIP3    H240131   7.279   4.339   0.454
 6166TIP3   OH240132   7.224   4.309   1.043
 6166TIP3    H140133   7.318   4.322   1.025
 6166TIP3    H240134   7.225   4.360   1.126
 6167TIP3   OH240135   7.269   4.434   1.339
 6167TIP3    H140136   7.179   4.464   1.360
 6167TIP3    H240137   7.310   4.511   1.297
 6168TIP3   OH240138   5.696   4.287   1.680
 6168TIP3    H140139   5.790   4.265   1.696
 6168TIP3    H240140   5.649   4.204   1.706
 6169TIP3   OH240141   7.188   4.017   0.562
 6169TIP3    H140142   7.275   3.989   0.595
 6169TIP3    H240143   7.183   3.962   0.481
 6170TIP3   OH240144   5.816   4.116   0.964
 6170TIP3    H140145   5.862   4.033   0.990
 6170TIP3    H240146   5.872   4.185   1.003
 6171TIP3   OH240147   5.644   4.417   1.068
 6171TIP3    H140148   5.701   4.391   0.992
 6171TIP3    H240149   5.692   4.497   1.095
 6172TIP3   OH240150   5.680   4.042   0.474
 6172TIP3    H140151   5.586   4.061   0.461
 6172TIP3    H240152   5.722   4.091   0.402
 6173TIP3   OH240153   7.142   5.525   0.676
 6173TIP3    H140154   7.207   5.490   0.615
 6173TIP3    H240155   7.197   5.581   0.734
 6174TIP3   OH240156   5.676   3.907   1.304
 6174TIP3    H140157   5.609   3.888   1.373
 6174TIP3    H240158   5.630   3.975   1.250
 6175TIP3   OH240159   5.898   5.227   1.725
 6175TIP3    H140160   5.815   5.250   1.680
 6175TIP3    H240161   5.869   5.222   1.817
 6176TIP3   OH240162   6.188   5.328   1.347
 6176TIP3    H140163   6.157   5.416   1.322
 6176TIP3    H240164   6.282   5.336   1.320
 6177TIP3   OH240165   6.623   5.470   1.646
 6177TIP3    H140166   6.648   5.431   1.730
 6177TIP3    H240167   6.711   5.502   1.613
 6178TIP3   OH240168   6.850   5.596   1.572
 6178TIP3    H140169   6.926   5.540   1.546
 6178TIP3    H240170   6.889   5.642   1.649
 6179TIP3   OH240171   5.931   5.650   1.347
 6179TIP3    H140172   5.860   5.703   1.308
 6179TIP3    H240173   5.903   5.632   1.438
 6180TIP3   OH240174   6.179   5.609   1.256
 6180TIP3    H140175   6.089   5.625   1.294
 6180TIP3    H240176   6.175   5.668   1.178
 6181TIP3   OH240177   6.650   5.601   1.173
 6181TIP3    H140178   6.604   5.656   1.108
 6181TIP3    H240179   6.662   5.664   1.247
 6182TIP3   OH240180   6.880   5.481   1.275
 6182TIP3    H140181   6.794   5.508   1.239
 6182TIP3    H240182   6.925   5.566   1.268
 6183TIP3   OH240183   7.133   5.643   1.299
 6183TIP3    H140184   7.126   5.738   1.275
 6183TIP3    H240185   7.160   5.603   1.214
 6184TIP3   OH240186   5.876   5.516   1.043
 6184TIP3    H140187   5.874   5.468   1.129
 6184TIP3    H240188   5.958   5.480   1.003
 6185TIP3   OH240189   6.085   5.388   0.908
 6185TIP3    H140190   6.070   5.294   0.931
 6185TIP3    H240191   6.171   5.403   0.953
 6186TIP3   OH240192   6.343   5.436   0.995
 6186TIP3    H140193   6.361   5.344   0.969
 6186TIP3    H240194   6.350   5.431   1.092
 6187TIP3   OH240195   6.691   4.001   0.908
 6187TIP3    H140196   6.624   3.937   0.937
 6187TIP3    H240197   6.747   3.948   0.851
 6188TIP3   OH240198   7.207   3.805   0.919
 6188TIP3    H140199   7.261   3.870   0.873
 6188TIP3    H240200   7.117   3.839   0.896
 6189TIP3   OH240201   5.928   3.863   0.697
 6189TIP3    H140202   5.849   3.845   0.642
 6189TIP3    H240203   5.974   3.777   0.688
 6190TIP3   OH240204   5.800   3.840   0.265
 6190TIP3    H140205   5.854   3.903   0.213
 6190TIP3    H240206   5.748   3.898   0.323
 6191TIP3   OH240207   6.373   3.859   0.674
 6191TIP3    H140208   6.465   3.890   0.664
 6191TIP3    H240209   6.372   3.834   0.766
 6192TIP3   OH240210   6.952   3.855   0.832
 6192TIP3    H140211   6.943   3.870   0.737
 6192TIP3    H240212   6.908   3.767   0.847
 6193TIP3   OH240213   7.067   3.857   0.397
 6193TIP3    H140214   6.994   3.919   0.385
 6193TIP3    H240215   7.022   3.772   0.421
 6194TIP3   OH240216   5.797   5.435   0.368
 6194TIP3    H140217   5.729   5.435   0.298
 6194TIP3    H240218   5.800   5.530   0.384
 6195TIP3   OH240219   5.987   4.022   0.123
 6195TIP3    H140220   6.042   3.972   0.062
 6195TIP3    H240221   6.053   4.068   0.177
 6196TIP3   OH240222   6.491   4.058   0.358
 6196TIP3    H140223   6.517   4.000   0.432
 6196TIP3    H240224   6.498   4.144   0.404
 6197TIP3   OH240225   6.682   5.596   0.202
 6197TIP3    H140226   6.779   5.593   0.189
 6197TIP3    H240227   6.663   5.521   0.141
 6198TIP3   OH240228   5.915   3.919   1.642
 6198TIP3    H140229   5.877   3.838   1.681
 6198TIP3    H240230   6.007   3.911   1.675
 6199TIP3   OH240231   6.117   3.855   1.801
 6199TIP3    H140232   6.206   3.822   1.779
 6199TIP3    H240233   6.083   3.776   1.846
 6200TIP3   OH240234   5.981   5.534   0.063
 6200TIP3    H140235   5.949   5.559   0.151
 6200TIP3    H240236   6.055   5.477   0.080
 6201TIP3   OH240237   6.962   3.787   1.817
 6201TIP3    H140238   6.970   3.742   1.904
 6201TIP3    H240239   7.053   3.781   1.781
 6202TIP3   OH240240   7.269   5.387   1.695
 6202TIP3    H140241   7.199   5.373   1.628
 6202TIP3    H240242   7.261   5.485   1.703
 6203TIP3   OH240243   1.179   6.662   0.680
 6203TIP3    H140244   1.179   6.760   0.677
 6203TIP3    H240245   1.107   6.640   0.619
 6204TIP3   OH240246   1.067   6.588   1.031
 6204TIP3    H140247   1.064   6.521   1.100
 6204TIP3    H240248   1.031   6.539   0.954
 6205TIP3   OH240249   0.305   6.556   1.182
 6205TIP3    H140250   0.310   6.487   1.252
 6205TIP3    H240251   0.378   6.614   1.207
 6206TIP3   OH240252   1.434   6.882   0.859
 6206TIP3    H140253   1.391   6.812   0.908
 6206TIP3    H240254   1.438   6.954   0.925
 6207TIP3   OH240255   0.394   7.000   1.038
 6207TIP3    H140256   0.361   6.914   1.004
 6207TIP3    H240257   0.489   6.980   1.041
 6208TIP3   OH240258   0.079   6.360   0.557
 6208TIP3    H140259   0.028   6.439   0.587
 6208TIP3    H240260   0.006   6.302   0.544
 6209TIP3   OH240261   0.127   6.574   0.795
 6209TIP3    H140262   0.154   6.497   0.846
 6209TIP3    H240263   0.200   6.588   0.734
 6210TIP3   OH240264   0.902   6.823   1.082
 6210TIP3    H140265   0.935   6.767   1.010
 6210TIP3    H240266   0.985   6.848   1.125
 6211TIP3   OH240267   1.763   5.994   1.148
 6211TIP3    H140268   1.778   6.053   1.225
 6211TIP3    H240269   1.820   6.037   1.083
 6212TIP3   OH240270   1.216   6.276   1.111
 6212TIP3    H140271   1.239   6.182   1.109
 6212TIP3    H240272   1.209   6.291   1.014
 6213TIP3   OH240273   0.533   6.084   0.830
 6213TIP3    H140274   0.543   6.168   0.781
 6213TIP3    H240275   0.492   6.027   0.761
 6214TIP3   OH240276   1.305   6.092   0.667
 6214TIP3    H140277   1.370   6.061   0.734
 6214TIP3    H240278   1.362   6.150   0.613
 6215TIP3   OH240279   0.196   6.323   0.895
 6215TIP3    H140280   0.263   6.274   0.947
 6215TIP3    H240281   0.212   6.289   0.805
 6216TIP3   OH240282   0.708   6.481   0.836
 6216TIP3    H140283   0.777   6.423   0.874
 6216TIP3    H240284   0.658   6.415   0.784
 6217TIP3   OH240285   1.805   6.134   1.377
 6217TIP3    H140286   1.744   6.210   1.365
 6217TIP3    H240287   1.813   6.126   1.472
 6218TIP3   OH240288   0.423   5.975   1.233
 6218TIP3    H140289   0.395   6.031   1.159
 6218TIP3    H240290   0.354   5.997   1.301
 6219TIP3   OH240291   1.152   6.921   0.588
 6219TIP3    H140292   1.125   6.896   0.499
 6219TIP3    H240293   1.124   7.014   0.593
 6220TIP3   OH240294   0.677   6.737   1.259
 6220TIP3    H140295   0.603   6.799   1.281
 6220TIP3    H240296   0.744   6.800   1.227
 6221TIP3   OH240297   1.484   6.028   0.868
 6221TIP3    H140298   1.466   5.950   0.921
 6221TIP3    H240299   1.554   6.071   0.920
 6222TIP3   OH240300   0.378   6.155   1.036
 6222TIP3    H140301   0.437   6.227   1.070
 6222TIP3    H240302   0.433   6.119   0.963
 6223TIP3   OH240303   0.518   6.937   1.339
 6223TIP3    H140304   0.512   7.029   1.306
 6223TIP3    H240305   0.429   6.931   1.381
 6224TIP3   OH240306   0.128   6.907   0.418
 6224TIP3    H140307   0.106   6.936   0.327
 6224TIP3    H240308   0.137   6.988   0.471
 6225TIP3   OH240309   1.489   7.071   1.099
 6225TIP3    H140310   1.392   7.078   1.105
 6225TIP3    H240311   1.516   7.161   1.073
 6226TIP3   OH240312   1.519   5.896   1.236
 6226TIP3    H140313   1.447   5.959   1.223
 6226TIP3    H240314   1.592   5.939   1.186
 6227TIP3   OH240315   0.817   5.710   0.981
 6227TIP3    H140316   0.803   5.613   0.974
 6227TIP3    H240317   0.728   5.738   1.011
 6228TIP3   OH240318   1.315   7.224   0.745
 6228TIP3    H140319   1.364   7.159   0.692
 6228TIP3    H240320   1.354   7.306   0.714
 6229TIP3   OH240321   1.436   7.035   0.605
 6229TIP3    H140322   1.405   6.968   0.543
 6229TIP3    H240323   1.437   6.987   0.690
 6230TIP3   OH240324   1.586   6.900   1.453
 6230TIP3    H140325   1.611   6.834   1.385
 6230TIP3    H240326   1.621   6.982   1.412
 6231TIP3   OH240327   1.045   6.588   0.430
 6231TIP3    H140328   0.976   6.646   0.390
 6231TIP3    H240329   1.116   6.596   0.364
 6232TIP3   OH240330   1.049   6.441   0.140
 6232TIP3    H140331   1.123   6.441   0.203
 6232TIP3    H240332   1.082   6.377   0.076
 6233TIP3   OH240333   1.787   6.530   1.260
 6233TIP3    H140334   1.719   6.600   1.263
 6233TIP3    H240335   1.835   6.553   1.178
 6234TIP3   OH240336   1.390   6.609   0.526
 6234TIP3    H140337   1.315   6.632   0.586
 6234TIP3    H240338   1.438   6.542   0.576
 6235TIP3   OH240339   1.386   6.427   1.433
 6235TIP3    H140340   1.389   6.506   1.489
 6235TIP3    H240341   1.322   6.452   1.364
 6236TIP3   OH240342   0.554   6.675   0.715
 6236TIP3    H140343   0.518   6.634   0.632
 6236TIP3    H240344   0.614   6.605   0.749
 6237TIP3   OH240345   0.687   7.010   0.981
 6237TIP3    H140346   0.685   6.957   0.902
 6237TIP3    H240347   0.763   6.976   1.030
 6238TIP3   OH240348   0.586   6.549   1.082
 6238TIP3    H140349   0.640   6.559   1.001
 6238TIP3    H240350   0.624   6.616   1.143
 6239TIP3   OH240351   1.227   7.105   1.153
 6239TIP3    H140352   1.193   7.172   1.212
 6239TIP3    H240353   1.199   7.021   1.194
 6240TIP3   OH240354   0.683   6.994   1.550
 6240TIP3    H140355   0.640   7.066   1.602
 6240TIP3    H240356   0.614   6.972   1.482
 6241TIP3   OH240357   1.279   6.525   0.291
 6241TIP3    H140358   1.333   6.546   0.371
 6241TIP3    H240359   1.319   6.581   0.221
 6242TIP3   OH240360   0.379   6.609   1.470
 6242TIP3    H140361   0.379   6.679   1.538
 6242TIP3    H240362   0.285   6.614   1.442
 6243TIP3   OH240363   1.046   7.197   0.642
 6243TIP3    H140364   1.098   7.232   0.715
 6243TIP3    H240365   0.997   7.273   0.610
 6244TIP3   OH240366   0.501   7.199   1.616
 6244TIP3    H140367   0.494   7.184   1.520
 6244TIP3    H240368   0.411   7.181   1.650
 6245TIP3   OH240369   1.650   5.701   0.280
 6245TIP3    H140370   1.555   5.712   0.304
 6245TIP3    H240371   1.672   5.787   0.240
 6246TIP3   OH240372   0.451   6.576   0.474
 6246TIP3    H140373   0.422   6.654   0.423
 6246TIP3    H240374   0.383   6.511   0.453
 6247TIP3   OH240375   1.765   7.131   0.120
 6247TIP3    H140376   1.770   7.227   0.130
 6247TIP3    H240377   1.857   7.105   0.108
 6248TIP3   OH240378   0.101   6.811   1.346
 6248TIP3    H140379   0.029   6.815   1.280
 6248TIP3    H240380   0.074   6.726   1.386
 6249TIP3   OH240381   0.052   7.112   1.026
 6249TIP3    H140382   0.139   7.078   1.048
 6249TIP3    H240383   0.035   7.171   1.100
 6250TIP3   OH240384   1.854   7.161   1.618
 6250TIP3    H140385   1.844   7.066   1.609
 6250TIP3    H240386   1.766   7.189   1.651
 6251TIP3   OH240387   0.952   7.120   1.495
 6251TIP3    H140388   0.962   7.197   1.553
 6251TIP3    H240389   0.868   7.082   1.527
 6252TIP3   OH240390   0.289   6.955   1.464
 6252TIP3    H140391   0.303   6.914   1.552
 6252TIP3    H240392   0.204   6.914   1.434
 6253TIP3   OH240393   0.556   5.799   1.055
 6253TIP3    H140394   0.466   5.787   1.018
 6253TIP3    H240395   0.542   5.881   1.105
 6254TIP3   OH240396   1.018   5.760   1.392
 6254TIP3    H140397   1.058   5.725   1.473
 6254TIP3    H240398   0.921   5.754   1.408
 6255TIP3   OH240399   1.431   6.635   0.076
 6255TIP3    H140400   1.431   6.619  -0.020
 6255TIP3    H240401   1.517   6.679   0.086
 6256TIP3   OH240402   0.984   6.023   0.127
 6256TIP3    H140403   0.951   6.017   0.218
 6256TIP3    H240404   0.956   5.935   0.097
 6257TIP3   OH240405   0.565   6.296   1.180
 6257TIP3    H140406   0.493   6.294   1.246
 6257TIP3    H240407   0.556   6.387   1.144
 6258TIP3   OH240408   0.562   6.307   0.668
 6258TIP3    H140409   0.468   6.282   0.654
 6258TIP3    H240410   0.599   6.278   0.582
 6259TIP3   OH240411   1.114   6.356   0.541
 6259TIP3    H140412   1.073   6.440   0.509
 6259TIP3    H240413   1.182   6.341   0.474
 6260TIP3   OH240414   1.015   6.376   1.690
 6260TIP3    H140415   0.965   6.299   1.721
 6260TIP3    H240416   1.100   6.364   1.736
 6261TIP3   OH240417   1.216   6.305   0.831
 6261TIP3    H140418   1.188   6.363   0.758
 6261TIP3    H240419   1.226   6.222   0.781
 6262TIP3   OH240420   0.329   6.319   1.349
 6262TIP3    H140421   0.334   6.360   1.437
 6262TIP3    H240422   0.282   6.236   1.369
 6263TIP3   OH240423   0.682   6.082   0.066
 6263TIP3    H140424   0.628   6.020   0.119
 6263TIP3    H240425   0.621   6.120   0.003
 6264TIP3   OH240426   0.022   6.055   0.734
 6264TIP3    H140427   0.062   6.025   0.818
 6264TIP3    H240428   0.045   5.986   0.671
 6265TIP3   OH240429   0.123   6.114   0.281
 6265TIP3    H140430   0.176   6.170   0.220
 6265TIP3    H240431   0.051   6.173   0.305
 6266TIP3   OH240432   1.140   6.467   1.293
 6266TIP3    H140433   1.174   6.401   1.227
 6266TIP3    H240434   1.089   6.406   1.351
 6267TIP3   OH240435   0.816   6.063   0.767
 6267TIP3    H140436   0.723   6.063   0.797
 6267TIP3    H240437   0.864   6.046   0.849
 6268TIP3   OH240438   0.305   6.218   0.651
 6268TIP3    H140439   0.215   6.234   0.616
 6268TIP3    H240440   0.326   6.131   0.611
 6269TIP3   OH240441   0.660   6.225   0.418
 6269TIP3    H140442   0.756   6.234   0.434
 6269TIP3    H240443   0.638   6.289   0.349
 6270TIP3   OH240444   1.256   5.988   1.098
 6270TIP3    H140445   1.185   5.988   1.163
 6270TIP3    H240446   1.210   5.961   1.017
 6271TIP3   OH240447   0.534   6.339   0.177
 6271TIP3    H140448   0.478   6.306   0.105
 6271TIP3    H240449   0.615   6.362   0.130
 6272TIP3   OH240450   0.347   6.796   1.681
 6272TIP3    H140451   0.418   6.820   1.742
 6272TIP3    H240452   0.270   6.811   1.739
 6273TIP3   OH240453   0.944   6.338   0.958
 6273TIP3    H140454   1.004   6.285   0.904
 6273TIP3    H240455   0.930   6.283   1.036
 6274TIP3   OH240456   0.445   5.953   0.602
 6274TIP3    H140457   0.413   5.861   0.599
 6274TIP3    H240458   0.524   5.946   0.547
 6275TIP3   OH240459   0.808   6.171   1.198
 6275TIP3    H140460   0.725   6.222   1.207
 6275TIP3    H240461   0.861   6.206   1.271
 6276TIP3   OH240462   0.868   6.792   0.371
 6276TIP3    H140463   0.788   6.746   0.337
 6276TIP3    H240464   0.844   6.806   0.465
 6277TIP3   OH240465   1.586   6.714   1.249
 6277TIP3    H140466   1.643   6.762   1.187
 6277TIP3    H240467   1.502   6.716   1.199
 6278TIP3   OH240468   1.254   6.072   0.187
 6278TIP3    H140469   1.160   6.088   0.169
 6278TIP3    H240470   1.284   6.160   0.218
 6279TIP3   OH240471   0.990   6.830   1.492
 6279TIP3    H140472   0.966   6.793   1.578
 6279TIP3    H240473   0.983   6.926   1.509
 6280TIP3   OH240474   1.324   6.267   0.353
 6280TIP3    H140475   1.413   6.253   0.390
 6280TIP3    H240476   1.333   6.348   0.301
 6281TIP3   OH240477   0.380   6.734   0.948
 6281TIP3    H140478   0.447   6.725   0.878
 6281TIP3    H240479   0.385   6.648   0.994
 6282TIP3   OH240480   1.078   6.941   0.275
 6282TIP3    H140481   1.041   7.025   0.307
 6282TIP3    H240482   1.004   6.880   0.293
 6283TIP3   OH240483   0.102   6.551   1.448
 6283TIP3    H140484   0.111   6.529   1.542
 6283TIP3    H240485   0.017   6.511   1.428
 6284TIP3   OH240486   0.783   6.530   1.689
 6284TIP3    H140487   0.747   6.495   1.606
 6284TIP3    H240488   0.873   6.494   1.692
 6285TIP3   OH240489   1.242   7.058   1.485
 6285TIP3    H140490   1.151   7.083   1.465
 6285TIP3    H240491   1.243   7.090   1.579
 6286TIP3   OH240492   1.813   6.280   0.329
 6286TIP3    H140493   1.757   6.249   0.255
 6286TIP3    H240494   1.821   6.374   0.301
 6287TIP3   OH240495   1.814   6.863   1.607
 6287TIP3    H140496   1.724   6.887   1.575
 6287TIP3    H240497   1.867   6.862   1.525
 6288TIP3   OH240498   1.648   7.148   0.377
 6288TIP3    H140499   1.603   7.068   0.398
 6288TIP3    H240500   1.671   7.145   0.283
 6289TIP3   OH240501   1.363   6.644   1.080
 6289TIP3    H140502   1.269   6.623   1.063
 6289TIP3    H240503   1.407   6.571   1.033
 6290TIP3   OH240504   0.619   7.075   0.682
 6290TIP3    H140505   0.664   7.158   0.665
 6290TIP3    H240506   0.529   7.097   0.657
 6291TIP3   OH240507   0.179   6.558   0.147
 6291TIP3    H140508   0.247   6.622   0.178
 6291TIP3    H240509   0.097   6.597   0.179
 6292TIP3   OH240510   0.759   6.844   0.640
 6292TIP3    H140511   0.727   6.936   0.647
 6292TIP3    H240512   0.686   6.797   0.683
 6293TIP3   OH240513   0.820   7.238   1.257
 6293TIP3    H140514   0.843   7.332   1.248
 6293TIP3    H240515   0.863   7.218   1.342
 6294TIP3   OH240516   0.592  -0.008   0.558
 6294TIP3    H140517   0.509   0.005   0.603
 6294TIP3    H240518   0.646   0.058   0.609
 6295TIP3   OH240519   1.157   6.862   1.241
 6295TIP3    H140520   1.117   6.849   1.328
 6295TIP3    H240521   1.219   6.790   1.221
 6296TIP3   OH240522   1.384   6.959   0.154
 6296TIP3    H140523   1.414   6.922   0.239
 6296TIP3    H240524   1.288   6.950   0.162
 6297TIP3   OH240525   1.433   7.312   1.490
 6297TIP3    H140526   1.361   7.267   1.443
 6297TIP3    H240527   1.449   7.390   1.433
 6298TIP3   OH240528   0.241   6.043   1.421
 6298TIP3    H140529   0.153   6.082   1.431
 6298TIP3    H240530   0.232   5.962   1.475
 6299TIP3   OH240531   1.466   6.831   0.376
 6299TIP3    H140532   1.442   6.751   0.428
 6299TIP3    H240533   1.561   6.839   0.396
 6300TIP3   OH240534   0.214   7.224   1.267
 6300TIP3    H140535   0.233   7.130   1.273
 6300TIP3    H240536   0.220   7.254   1.358
 6301TIP3   OH240537   0.680   7.033   0.242
 6301TIP3    H140538   0.705   6.978   0.317
 6301TIP3    H240539   0.689   7.124   0.277
 6302TIP3   OH240540   0.325   6.755   0.287
 6302TIP3    H140541   0.263   6.795   0.351
 6302TIP3    H240542   0.383   6.831   0.265
 6303TIP3   OH240543   1.188   5.982   0.436
 6303TIP3    H140544   1.214   6.027   0.353
 6303TIP3    H240545   1.248   6.025   0.498
 6304TIP3   OH240546   0.959   7.198   0.319
 6304TIP3    H140547   0.874   7.244   0.323
 6304TIP3    H240548   1.011   7.247   0.252
 6305TIP3   OH240549   0.912   6.155   0.516
 6305TIP3    H140550   0.990   6.214   0.518
 6305TIP3    H240551   0.886   6.144   0.609
 6306TIP3   OH240552   0.969   6.260   1.430
 6306TIP3    H140553   0.974   6.312   1.512
 6306TIP3    H240554   1.032   6.188   1.449
 6307TIP3   OH240555   0.997   5.861   0.603
 6307TIP3    H140556   0.965   5.926   0.669
 6307TIP3    H240557   1.067   5.916   0.559
 6308TIP3   OH240558   0.708  -0.034   0.313
 6308TIP3    H140559   0.707   0.052   0.270
 6308TIP3    H240560   0.671  -0.012   0.401
 6309TIP3   OH240561   0.565   5.971   0.281
 6309TIP3    H140562   0.558   6.063   0.314
 6309TIP3    H240563   0.657   5.949   0.307
 6310TIP3   OH240564   1.448   6.424   0.919
 6310TIP3    H140565   1.365   6.379   0.894
 6310TIP3    H240566   1.496   6.356   0.971
 6311TIP3   OH240567   0.389   7.012   0.183
 6311TIP3    H140568   0.451   7.081   0.209
 6311TIP3    H240569   0.439   6.972   0.110
 6312TIP3   OH240570   0.233   6.284   0.095
 6312TIP3    H140571   0.227   6.379   0.114
 6312TIP3    H240572   0.144   6.263   0.069
 6313TIP3   OH240573   0.301   5.763   0.967
 6313TIP3    H140574   0.284   5.763   0.870
 6313TIP3    H240575   0.261   5.677   0.993
 6314TIP3   OH240576   0.209   7.151   0.593
 6314TIP3    H140577   0.120   7.190   0.583
 6314TIP3    H240578   0.247   7.200   0.519
 6315TIP3   OH240579   0.579   7.238   1.867
 6315TIP3    H140580   0.664   7.266   1.909
 6315TIP3    H240581   0.596   7.269   1.777
 6316TIP3   OH240582   1.031   7.287   0.074
 6316TIP3    H140583   0.952   7.229   0.065
 6316TIP3    H240584   1.085   7.234   0.014
 6317TIP3   OH240585   1.247   7.130   1.735
 6317TIP3    H140586   1.200   7.056   1.780
 6317TIP3    H240587   1.313   7.156   1.800
 6318TIP3   OH240588   1.458   7.238   0.031
 6318TIP3    H140589   1.481   7.158   0.082
 6318TIP3    H240590   1.539   7.253  -0.021
 6319TIP3   OH240591   0.125   6.796   1.806
 6319TIP3    H140592   0.126   6.702   1.781
 6319TIP3    H240593   0.039   6.827   1.769
 6320TIP3   OH240594   0.553   6.836   0.029
 6320TIP3    H140595   0.560   6.753   0.075
 6320TIP3    H240596   0.608   6.815  -0.049
 6321TIP3   OH240597   0.796   6.795   1.743
 6321TIP3    H140598   0.744   6.827   1.667
 6321TIP3    H240599   0.784   6.698   1.742
 6322TIP3   OH240600   1.344   6.785   1.487
 6322TIP3    H140601   1.431   6.834   1.481
 6322TIP3    H240602   1.289   6.865   1.496
 6323TIP3   OH240603   0.193   6.515   1.746
 6323TIP3    H140604   0.247   6.434   1.738
 6323TIP3    H240605   0.185   6.521   1.841
 6324TIP3   OH240606   0.667   6.636   0.256
 6324TIP3    H140607   0.615   6.582   0.318
 6324TIP3    H240608   0.697   6.567   0.192
 6325TIP3   OH240609   0.590   6.415   1.484
 6325TIP3    H140610   0.530   6.487   1.513
 6325TIP3    H240611   0.628   6.452   1.404
 6326TIP3   OH240612   0.772   6.459   0.075
 6326TIP3    H140613   0.763   6.437  -0.019
 6326TIP3    H240614   0.870   6.464   0.087
 6327TIP3   OH240615   1.099   6.664   1.811
 6327TIP3    H140616   1.195   6.672   1.810
 6327TIP3    H240617   1.081   6.594   1.876
 6328TIP3   OH240618   1.691   6.701   8.526
 6328TIP3    H140619   1.681   6.652   8.443
 6328TIP3    H240620   1.713   6.791   8.499
 6329TIP3   OH240621   0.628   6.152   1.590
 6329TIP3    H140622   0.646   6.081   1.526
 6329TIP3    H240623   0.625   6.233   1.537
 6330TIP3   OH240624   0.672   5.989   1.344
 6330TIP3    H140625   0.723   6.036   1.274
 6330TIP3    H240626   0.582   5.982   1.305
 6331TIP3   OH240627   0.833   6.543   1.374
 6331TIP3    H140628   0.899   6.520   1.308
 6331TIP3    H240629   0.787   6.620   1.336
 6332TIP3   OH240630   1.396   6.593   1.680
 6332TIP3    H140631   1.381   6.670   1.623
 6332TIP3    H240632   1.494   6.588   1.667
 6333TIP3   OH240633   0.474   6.279   1.779
 6333TIP3    H140634   0.399   6.217   1.765
 6333TIP3    H240635   0.542   6.240   1.720
 6334TIP3   OH240636   0.753   5.735   1.386
 6334TIP3    H140637   0.734   5.831   1.377
 6334TIP3    H240638   0.678   5.698   1.336
 6335TIP3   OH240639   0.294   6.069   1.759
 6335TIP3    H140640   0.312   5.996   1.698
 6335TIP3    H240641   0.281   6.024   1.845
 6336TIP3   OH240642   0.773   5.672   1.653
 6336TIP3    H140643   0.840   5.602   1.652
 6336TIP3    H240644   0.761   5.687   1.558
 6337TIP3   OH240645   0.810   5.835   1.862
 6337TIP3    H140646   0.791   5.784   1.779
 6337TIP3    H240647   0.750   5.912   1.857
 6338TIP3   OH240648   0.116   6.978   0.135
 6338TIP3    H140649   0.211   6.994   0.152
 6338TIP3    H240650   0.117   6.930   0.053
 6339TIP3   OH240651   0.075   7.331   0.808
 6339TIP3    H140652   0.033   7.246   0.831
 6339TIP3    H240653   0.091   7.364   0.897
 6340TIP3   OH240654   1.626   6.943   1.876
 6340TIP3    H140655   1.535   6.944   1.909
 6340TIP3    H240656   1.665   7.026   1.912
 6341TIP3   OH240657   1.761   6.774   0.410
 6341TIP3    H140658   1.843   6.821   0.433
 6341TIP3    H240659   1.757   6.707   0.481
 6342TIP3   OH240660   1.795   6.587   0.601
 6342TIP3    H140661   1.720   6.536   0.639
 6342TIP3    H240662   1.854   6.600   0.678
 6343TIP3   OH240663   1.771   6.856   1.102
 6343TIP3    H140664   1.851   6.819   1.062
 6343TIP3    H240665   1.784   6.951   1.084
 6344TIP3   OH240666   1.623   7.149   1.330
 6344TIP3    H140667   1.556   7.184   1.389
 6344TIP3    H240668   1.570   7.107   1.258
 6345TIP3   OH240669   1.824   6.568   0.237
 6345TIP3    H140670   1.765   6.605   0.170
 6345TIP3    H240671   1.817   6.638   0.306
 6346TIP3   OH240672   1.622   6.295   0.101
 6346TIP3    H140673   1.669   6.353   0.039
 6346TIP3    H240674   1.641   6.210   0.056
 6347TIP3   OH240675   1.577   6.434   0.659
 6347TIP3    H140676   1.562   6.338   0.653
 6347TIP3    H240677   1.545   6.455   0.748
 6348TIP3   OH240678   0.075   6.641   1.062
 6348TIP3    H140679   0.095   6.637   0.965
 6348TIP3    H240680   0.164   6.627   1.100
 6349TIP3   OH240681   1.660   6.628   1.626
 6349TIP3    H140682   1.724   6.556   1.638
 6349TIP3    H240683   1.719   6.707   1.629
 6350TIP3   OH240684   1.806   6.416   1.688
 6350TIP3    H140685   1.722   6.376   1.668
 6350TIP3    H240686   1.869   6.342   1.685
 6351TIP3   OH240687   1.588   6.033   0.001
 6351TIP3    H140688   1.645   5.991   0.069
 6351TIP3    H240689   1.498   6.001   0.022
 6352TIP3   OH240690   1.544   6.192   0.506
 6352TIP3    H140691   1.574   6.099   0.516
 6352TIP3    H240692   1.621   6.232   0.465
 6353TIP3   OH240693   1.608   6.247   1.047
 6353TIP3    H140694   1.704   6.270   1.046
 6353TIP3    H240695   1.589   6.260   1.141
 6354TIP3   OH240696   1.615   6.319   1.325
 6354TIP3    H140697   1.529   6.348   1.361
 6354TIP3    H240698   1.657   6.406   1.303
 6355TIP3   OH240699   0.063   6.163   1.675
 6355TIP3    H140700   0.151   6.140   1.710
 6355TIP3    H240701   0.003   6.094   1.711
 6356TIP3   OH240702   1.611   5.920   0.508
 6356TIP3    H140703   1.632   5.877   0.594
 6356TIP3    H240704   1.550   5.856   0.464
 6357TIP3   OH240705   0.154   5.996   0.968
 6357TIP3    H140706   0.208   5.917   0.990
 6357TIP3    H240707   0.210   6.067   1.004
 6358TIP3   OH240708   0.060   6.353   1.109
 6358TIP3    H140709   0.068   6.318   1.018
 6358TIP3    H240710   0.037   6.444   1.085
 6359TIP3   OH240711   1.794   5.939   1.690
 6359TIP3    H140712   1.699   5.953   1.690
 6359TIP3    H240713   1.801   5.877   1.616
 6360TIP3   OH240714   1.792   5.927   0.165
 6360TIP3    H140715   1.835   5.856   0.115
 6360TIP3    H240716   1.865   5.992   0.167
 6361TIP3   OH240717   7.407   5.928   0.450
 6361TIP3    H140718   7.312   5.947   0.456
 6361TIP3    H240719   7.436   5.992   0.382
 6362TIP3   OH240720   7.378   5.789   1.317
 6362TIP3    H140721   7.304   5.769   1.375
 6362TIP3    H240722   7.327   5.846   1.256
 6363TIP3   OH240723   0.242   7.120   1.721
 6363TIP3    H140724   0.156   7.133   1.680
 6363TIP3    H240725   0.217   7.105   1.813
 6364TIP3   OH240726   0.539   7.215   1.355
 6364TIP3    H140727   0.491   7.289   1.317
 6364TIP3    H240728   0.626   7.217   1.312
 6365TIP3   OH240729   1.693   5.745   1.481
 6365TIP3    H140730   1.611   5.772   1.436
 6365TIP3    H240731   1.713   5.663   1.430
 6366TIP3   OH240732   0.426   7.259   0.887
 6366TIP3    H140733   0.407   7.173   0.929
 6366TIP3    H240734   0.501   7.285   0.947
 6367TIP3   OH240735   0.643   7.265   1.016
 6367TIP3    H140736   0.705   7.204   0.973
 6367TIP3    H240737   0.689   7.305   1.091
 6368TIP3   OH240738   1.035   5.887   0.909
 6368TIP3    H140739   0.967   5.823   0.938
 6368TIP3    H240740   1.090   5.833   0.851
 6369TIP3   OH240741   1.548   5.691   0.916
 6369TIP3    H140742   1.609   5.750   0.865
 6369TIP3    H240743   1.460   5.727   0.893
 6370TIP3   OH240744   1.714   5.817   0.744
 6370TIP3    H140745   1.782   5.759   0.703
 6370TIP3    H240746   1.766   5.900   0.754
 6371TIP3   OH240747   0.270   5.747   0.696
 6371TIP3    H140748   0.194   5.729   0.637
 6371TIP3    H240749   0.320   5.664   0.685
 6372TIP3   OH240750   0.194   5.738   0.285
 6372TIP3    H140751   0.207   5.792   0.206
 6372TIP3    H240752   0.108   5.769   0.320
 6373TIP3   OH240753   0.718   5.742   0.673
 6373TIP3    H140754   0.808   5.778   0.665
 6373TIP3    H240755   0.716   5.720   0.766
 6374TIP3   OH240756   1.290   5.745   0.836
 6374TIP3    H140757   1.285   5.756   0.740
 6374TIP3    H240758   1.252   5.654   0.848
 6375TIP3   OH240759   1.417   5.746   0.400
 6375TIP3    H140760   1.342   5.806   0.386
 6375TIP3    H240761   1.373   5.661   0.424
 6376TIP3   OH240762   0.138  -0.035   0.409
 6376TIP3    H140763   0.089  -0.044   0.323
 6376TIP3    H240764   0.155   0.058   0.407
 6377TIP3   OH240765   0.331   5.919   0.114
 6377TIP3    H140766   0.383   5.854   0.066
 6377TIP3    H240767   0.393   5.950   0.180
 6378TIP3   OH240768   0.833   5.943   0.358
 6378TIP3    H140769   0.861   5.886   0.432
 6378TIP3    H240770   0.841   6.030   0.404
 6379TIP3   OH240771   0.257   5.808   1.639
 6379TIP3    H140772   0.220   5.726   1.675
 6379TIP3    H240773   0.347   5.800   1.678
 6380TIP3   OH240774   0.459   5.738   1.803
 6380TIP3    H140775   0.549   5.707   1.782
 6380TIP3    H240776   0.425   5.658   1.846
 6381TIP3   OH240777   1.610   7.269   1.699
 6381TIP3    H140778   1.542   7.260   1.629
 6381TIP3    H240779   1.623   7.366   1.700
 6382TIP3   OH240780   3.065   6.662   0.680
 6382TIP3    H140781   3.064   6.760   0.677
 6382TIP3    H240782   2.993   6.639   0.619
 6383TIP3   OH240783   2.951   6.588   1.030
 6383TIP3    H140784   2.950   6.524   1.102
 6383TIP3    H240785   2.916   6.537   0.955
 6384TIP3   OH240786   2.186   6.556   1.185
 6384TIP3    H140787   2.195   6.487   1.254
 6384TIP3    H240788   2.262   6.613   1.207
 6385TIP3   OH240789   3.320   6.882   0.859
 6385TIP3    H140790   3.277   6.811   0.908
 6385TIP3    H240791   3.323   6.954   0.925
 6386TIP3   OH240792   2.284   7.001   1.037
 6386TIP3    H140793   2.250   6.915   1.005
 6386TIP3    H240794   2.378   6.980   1.042
 6387TIP3   OH240795   1.943   6.356   0.584
 6387TIP3    H140796   1.900   6.444   0.578
 6387TIP3    H240797   1.887   6.303   0.526
 6388TIP3   OH240798   2.015   6.580   0.800
 6388TIP3    H140799   2.042   6.497   0.844
 6388TIP3    H240800   2.084   6.590   0.732
 6389TIP3   OH240801   2.788   6.826   1.079
 6389TIP3    H140802   2.822   6.766   1.011
 6389TIP3    H240803   2.870   6.844   1.128
 6390TIP3   OH240804   3.649   5.995   1.148
 6390TIP3    H140805   3.666   6.053   1.225
 6390TIP3    H240806   3.706   6.037   1.083
 6391TIP3   OH240807   3.105   6.275   1.108
 6391TIP3    H140808   3.123   6.180   1.110
 6391TIP3    H240809   3.095   6.289   1.012
 6392TIP3   OH240810   2.417   6.085   0.830
 6392TIP3    H140811   2.428   6.168   0.780
 6392TIP3    H240812   2.377   6.027   0.761
 6393TIP3   OH240813   3.191   6.092   0.667
 6393TIP3    H140814   3.256   6.061   0.734
 6393TIP3    H240815   3.247   6.150   0.613
 6394TIP3   OH240816   2.079   6.326   0.903
 6394TIP3    H140817   2.146   6.271   0.949
 6394TIP3    H240818   2.090   6.294   0.812
 6395TIP3   OH240819   2.595   6.481   0.836
 6395TIP3    H140820   2.662   6.423   0.875
 6395TIP3    H240821   2.544   6.416   0.784
 6396TIP3   OH240822   3.691   6.134   1.376
 6396TIP3    H140823   3.633   6.212   1.365
 6396TIP3    H240824   3.697   6.127   1.472
 6397TIP3   OH240825   2.308   5.975   1.234
 6397TIP3    H140826   2.280   6.032   1.159
 6397TIP3    H240827   2.240   5.998   1.301
 6398TIP3   OH240828   3.038   6.922   0.588
 6398TIP3    H140829   3.010   6.896   0.498
 6398TIP3    H240830   3.009   7.015   0.592
 6399TIP3   OH240831   2.559   6.737   1.257
 6399TIP3    H140832   2.489   6.802   1.281
 6399TIP3    H240833   2.630   6.797   1.228
 6400TIP3   OH240834   3.372   6.027   0.866
 6400TIP3    H140835   3.350   5.951   0.920
 6400TIP3    H240836   3.440   6.071   0.920
 6401TIP3   OH240837   2.265   6.160   1.038
 6401TIP3    H140838   2.328   6.229   1.069
 6401TIP3    H240839   2.316   6.119   0.964
 6402TIP3   OH240840   2.405   6.937   1.342
 6402TIP3    H140841   2.400   7.028   1.306
 6402TIP3    H240842   2.315   6.932   1.382
 6403TIP3   OH240843   2.010   6.906   0.419
 6403TIP3    H140844   1.989   6.937   0.329
 6403TIP3    H240845   2.021   6.988   0.471
 6404TIP3   OH240846   3.374   7.070   1.099
 6404TIP3    H140847   3.276   7.075   1.107
 6404TIP3    H240848   3.400   7.160   1.073
 6405TIP3   OH240849   3.404   5.896   1.232
 6405TIP3    H140850   3.333   5.960   1.225
 6405TIP3    H240851   3.477   5.939   1.183
 6406TIP3   OH240852   2.701   5.708   0.980
 6406TIP3    H140853   2.687   5.612   0.973
 6406TIP3    H240854   2.614   5.739   1.011
 6407TIP3   OH240855   3.200   7.225   0.746
 6407TIP3    H140856   3.250   7.160   0.692
 6407TIP3    H240857   3.240   7.306   0.714
 6408TIP3   OH240858   3.322   7.035   0.605
 6408TIP3    H140859   3.290   6.968   0.543
 6408TIP3    H240860   3.323   6.987   0.690
 6409TIP3   OH240861   3.481   6.901   1.455
 6409TIP3    H140862   3.495   6.833   1.385
 6409TIP3    H240863   3.507   6.983   1.410
 6410TIP3   OH240864   2.930   6.588   0.429
 6410TIP3    H140865   2.862   6.646   0.390
 6410TIP3    H240866   3.002   6.596   0.364
 6411TIP3   OH240867   2.935   6.441   0.140
 6411TIP3    H140868   3.009   6.441   0.203
 6411TIP3    H240869   2.968   6.377   0.076
 6412TIP3   OH240870   3.671   6.530   1.259
 6412TIP3    H140871   3.605   6.601   1.263
 6412TIP3    H240872   3.720   6.554   1.178
 6413TIP3   OH240873   3.276   6.609   0.525
 6413TIP3    H140874   3.201   6.632   0.586
 6413TIP3    H240875   3.324   6.542   0.576
 6414TIP3   OH240876   3.269   6.425   1.434
 6414TIP3    H140877   3.271   6.506   1.488
 6414TIP3    H240878   3.206   6.455   1.365
 6415TIP3   OH240879   2.437   6.674   0.715
 6415TIP3    H140880   2.405   6.635   0.630
 6415TIP3    H240881   2.499   6.605   0.748
 6416TIP3   OH240882   2.571   7.010   0.982
 6416TIP3    H140883   2.571   6.958   0.902
 6416TIP3    H240884   2.648   6.977   1.030
 6417TIP3   OH240885   2.470   6.548   1.081
 6417TIP3    H140886   2.525   6.558   1.001
 6417TIP3    H240887   2.510   6.615   1.142
 6418TIP3   OH240888   3.112   7.104   1.151
 6418TIP3    H140889   3.079   7.169   1.213
 6418TIP3    H240890   3.085   7.020   1.194
 6419TIP3   OH240891   2.566   6.995   1.552
 6419TIP3    H140892   2.521   7.068   1.599
 6419TIP3    H240893   2.500   6.971   1.482
 6420TIP3   OH240894   3.165   6.525   0.291
 6420TIP3    H140895   3.218   6.546   0.371
 6420TIP3    H240896   3.205   6.581   0.221
 6421TIP3   OH240897   2.259   6.606   1.469
 6421TIP3    H140898   2.265   6.674   1.539
 6421TIP3    H240899   2.166   6.617   1.443
 6422TIP3   OH240900   2.931   7.197   0.642
 6422TIP3    H140901   2.983   7.231   0.714
 6422TIP3    H240902   2.882   7.274   0.610
 6423TIP3   OH240903   2.387   7.196   1.621
 6423TIP3    H140904   2.384   7.183   1.525
 6423TIP3    H240905   2.294   7.183   1.648
 6424TIP3   OH240906   3.536   5.701   0.280
 6424TIP3    H140907   3.441   5.712   0.305
 6424TIP3    H240908   3.558   5.786   0.240
 6425TIP3   OH240909   2.333   6.576   0.477
 6425TIP3    H140910   2.306   6.654   0.423
 6425TIP3    H240911   2.269   6.509   0.452
 6426TIP3   OH240912   3.650   7.131   0.120
 6426TIP3    H140913   3.655   7.227   0.130
 6426TIP3    H240914   3.743   7.105   0.109
 6427TIP3   OH240915   1.944   6.819   1.365
 6427TIP3    H140916   1.899   6.810   1.280
 6427TIP3    H240917   1.951   6.725   1.388
 6428TIP3   OH240918   1.924   7.098   1.039
 6428TIP3    H140919   2.019   7.083   1.041
 6428TIP3    H240920   1.913   7.173   1.099
 6429TIP3   OH240921   3.741   7.160   1.616
 6429TIP3    H140922   3.730   7.065   1.610
 6429TIP3    H240923   3.654   7.190   1.650
 6430TIP3   OH240924   2.837   7.123   1.496
 6430TIP3    H140925   2.846   7.200   1.553
 6430TIP3    H240926   2.753   7.080   1.523
 6431TIP3   OH240927   2.172   6.952   1.464
 6431TIP3    H140928   2.194   6.913   1.551
 6431TIP3    H240929   2.087   6.910   1.439
 6432TIP3   OH240930   2.440   5.798   1.055
 6432TIP3    H140931   2.350   5.785   1.019
 6432TIP3    H240932   2.427   5.881   1.104
 6433TIP3   OH240933   2.905   5.765   1.393
 6433TIP3    H140934   2.942   5.721   1.472
 6433TIP3    H240935   2.807   5.754   1.408
 6434TIP3   OH240936   3.230   6.149   1.479
 6434TIP3    H140937   3.174   6.129   1.557
 6434TIP3    H240938   3.218   6.243   1.459
 6435TIP3   OH240939   3.316   6.635   0.076
 6435TIP3    H140940   3.317   6.619  -0.020
 6435TIP3    H240941   3.403   6.679   0.086
 6436TIP3   OH240942   2.869   6.023   0.127
 6436TIP3    H140943   2.837   6.017   0.218
 6436TIP3    H240944   2.841   5.935   0.097
 6437TIP3   OH240945   2.451   6.296   1.182
 6437TIP3    H140946   2.376   6.295   1.245
 6437TIP3    H240947   2.446   6.386   1.144
 6438TIP3   OH240948   2.446   6.306   0.668
 6438TIP3    H140949   2.352   6.282   0.654
 6438TIP3    H240950   2.484   6.278   0.582
 6439TIP3   OH240951   2.999   6.356   0.541
 6439TIP3    H140952   2.959   6.440   0.509
 6439TIP3    H240953   3.068   6.341   0.474
 6440TIP3   OH240954   2.905   6.379   1.688
 6440TIP3    H140955   2.852   6.302   1.719
 6440TIP3    H240956   2.989   6.366   1.733
 6441TIP3   OH240957   3.102   6.307   0.829
 6441TIP3    H140958   3.073   6.363   0.756
 6441TIP3    H240959   3.111   6.222   0.782
 6442TIP3   OH240960   2.212   6.320   1.349
 6442TIP3    H140961   2.222   6.360   1.437
 6442TIP3    H240962   2.167   6.236   1.370
 6443TIP3   OH240963   2.568   6.082   0.067
 6443TIP3    H140964   2.512   6.020   0.119
 6443TIP3    H240965   2.508   6.121   0.004
 6444TIP3   OH240966   1.878   6.031   0.749
 6444TIP3    H140967   1.947   6.027   0.818
 6444TIP3    H240968   1.923   5.994   0.671
 6445TIP3   OH240969   2.008   6.104   0.284
 6445TIP3    H140970   2.057   6.162   0.223
 6445TIP3    H240971   1.939   6.166   0.315
 6446TIP3   OH240972   3.022   6.465   1.284
 6446TIP3    H140973   3.060   6.396   1.226
 6446TIP3    H240974   2.974   6.412   1.351
 6447TIP3   OH240975   2.702   6.063   0.769
 6447TIP3    H140976   2.608   6.063   0.797
 6447TIP3    H240977   2.750   6.045   0.851
 6448TIP3   OH240978   2.182   6.217   0.655
 6448TIP3    H140979   2.094   6.233   0.615
 6448TIP3    H240980   2.211   6.134   0.614
 6449TIP3   OH240981   2.546   6.224   0.417
 6449TIP3    H140982   2.642   6.234   0.434
 6449TIP3    H240983   2.524   6.289   0.349
 6450TIP3   OH240984   3.143   5.986   1.092
 6450TIP3    H140985   3.074   5.991   1.162
 6450TIP3    H240986   3.092   5.960   1.014
 6451TIP3   OH240987   2.417   6.340   0.177
 6451TIP3    H140988   2.361   6.305   0.105
 6451TIP3    H240989   2.499   6.362   0.131
 6452TIP3   OH240990   2.229   6.798   1.681
 6452TIP3    H140991   2.303   6.821   1.738
 6452TIP3    H240992   2.153   6.808   1.743
 6453TIP3   OH240993   2.830   6.338   0.957
 6453TIP3    H140994   2.890   6.285   0.904
 6453TIP3    H240995   2.815   6.283   1.035
 6454TIP3   OH240996   2.331   5.952   0.603
 6454TIP3    H140997   2.300   5.860   0.600
 6454TIP3    H240998   2.409   5.946   0.546
 6455TIP3   OH240999   2.694   6.171   1.199
 6455TIP3    H141000   2.611   6.223   1.207
 6455TIP3    H241001   2.749   6.206   1.271
 6456TIP3   OH241002   2.754   6.791   0.371
 6456TIP3    H141003   2.673   6.746   0.337
 6456TIP3    H241004   2.730   6.806   0.465
 6457TIP3   OH241005   3.473   6.712   1.250
 6457TIP3    H141006   3.528   6.763   1.187
 6457TIP3    H241007   3.386   6.717   1.204
 6458TIP3   OH241008   3.140   6.072   0.187
 6458TIP3    H141009   3.045   6.088   0.169
 6458TIP3    H241010   3.170   6.160   0.218
 6459TIP3   OH241011   2.903   6.823   1.491
 6459TIP3    H141012   2.872   6.777   1.571
 6459TIP3    H241013   2.876   6.914   1.504
 6460TIP3   OH241014   3.210   6.267   0.353
 6460TIP3    H141015   3.299   6.253   0.390
 6460TIP3    H241016   3.219   6.348   0.301
 6461TIP3   OH241017   2.264   6.733   0.949
 6461TIP3    H141018   2.332   6.726   0.879
 6461TIP3    H241019   2.270   6.647   0.994
 6462TIP3   OH241020   2.964   6.941   0.275
 6462TIP3    H141021   2.927   7.025   0.307
 6462TIP3    H241022   2.889   6.880   0.293
 6463TIP3   OH241023   1.961   6.577   1.478
 6463TIP3    H141024   1.984   6.528   1.560
 6463TIP3    H241025   1.903   6.514   1.430
 6464TIP3   OH241026   2.665   6.526   1.693
 6464TIP3    H141027   2.634   6.499   1.605
 6464TIP3    H241028   2.758   6.499   1.691
 6465TIP3   OH241029   3.131   7.069   1.481
 6465TIP3    H141030   3.037   7.077   1.462
 6465TIP3    H241031   3.129   7.089   1.577
 6466TIP3   OH241032   3.699   6.279   0.328
 6466TIP3    H141033   3.643   6.249   0.255
 6466TIP3    H241034   3.707   6.373   0.301
 6467TIP3   OH241035   3.700   6.864   1.608
 6467TIP3    H141036   3.611   6.888   1.572
 6467TIP3    H241037   3.754   6.862   1.527
 6468TIP3   OH241038   3.534   7.148   0.377
 6468TIP3    H141039   3.489   7.068   0.398
 6468TIP3    H241040   3.556   7.145   0.283
 6469TIP3   OH241041   3.249   6.645   1.077
 6469TIP3    H141042   3.155   6.623   1.065
 6469TIP3    H241043   3.293   6.569   1.033
 6470TIP3   OH241044   2.504   7.075   0.682
 6470TIP3    H141045   2.549   7.158   0.664
 6470TIP3    H241046   2.414   7.097   0.656
 6471TIP3   OH241047   2.074   6.564   0.139
 6471TIP3    H141048   2.136   6.626   0.182
 6471TIP3    H241049   1.987   6.591   0.174
 6472TIP3   OH241050   2.645   6.844   0.640
 6472TIP3    H141051   2.613   6.936   0.647
 6472TIP3    H241052   2.572   6.797   0.684
 6473TIP3   OH241053   2.706   7.240   1.255
 6473TIP3    H141054   2.729   7.334   1.249
 6473TIP3    H241055   2.749   7.219   1.340
 6474TIP3   OH241056   2.478  -0.005   0.558
 6474TIP3    H141057   2.395   0.001   0.605
 6474TIP3    H241058   2.533   0.058   0.612
 6475TIP3   OH241059   3.041   6.862   1.241
 6475TIP3    H141060   3.006   6.840   1.331
 6475TIP3    H241061   3.103   6.790   1.224
 6476TIP3   OH241062   3.270   6.959   0.154
 6476TIP3    H141063   3.300   6.922   0.239
 6476TIP3    H241064   3.174   6.950   0.162
 6477TIP3   OH241065   3.314   7.318   1.494
 6477TIP3    H141066   3.250   7.265   1.444
 6477TIP3    H241067   3.335   7.389   1.430
 6478TIP3   OH241068   2.128   6.047   1.427
 6478TIP3    H141069   2.037   6.081   1.425
 6478TIP3    H241070   2.120   5.963   1.474
 6479TIP3   OH241071   3.352   6.831   0.376
 6479TIP3    H141072   3.327   6.751   0.428
 6479TIP3    H241073   3.447   6.839   0.396
 6480TIP3   OH241074   2.089   7.221   1.272
 6480TIP3    H141075   2.121   7.130   1.275
 6480TIP3    H241076   2.109   7.256   1.360
 6481TIP3   OH241077   2.565   7.033   0.242
 6481TIP3    H141078   2.590   6.977   0.317
 6481TIP3    H241079   2.576   7.123   0.276
 6482TIP3   OH241080   2.213   6.756   0.288
 6482TIP3    H141081   2.148   6.796   0.349
 6482TIP3    H241082   2.270   6.832   0.266
 6483TIP3   OH241083   2.998   6.023   1.325
 6483TIP3    H141084   3.072   6.029   1.387
 6483TIP3    H241085   2.962   5.935   1.345
 6484TIP3   OH241086   3.074   5.982   0.436
 6484TIP3    H141087   3.099   6.027   0.353
 6484TIP3    H241088   3.133   6.025   0.499
 6485TIP3   OH241089   2.844   7.197   0.321
 6485TIP3    H141090   2.760   7.245   0.322
 6485TIP3    H241091   2.896   7.246   0.253
 6486TIP3   OH241092   2.797   6.155   0.516
 6486TIP3    H141093   2.876   6.214   0.518
 6486TIP3    H241094   2.771   6.144   0.609
 6487TIP3   OH241095   2.854   6.259   1.432
 6487TIP3    H141096   2.861   6.314   1.513
 6487TIP3    H241097   2.919   6.188   1.443
 6488TIP3   OH241098   2.883   5.861   0.603
 6488TIP3    H141099   2.851   5.926   0.667
 6488TIP3    H241100   2.953   5.916   0.559
 6489TIP3   OH241101   2.590  -0.034   0.312
 6489TIP3    H141102   2.597   0.050   0.268
 6489TIP3    H241103   2.554  -0.010   0.400
 6490TIP3   OH241104   2.449   5.971   0.281
 6490TIP3    H141105   2.443   6.063   0.313
 6490TIP3    H241106   2.541   5.949   0.306
 6491TIP3   OH241107   3.470   6.043   1.524
 6491TIP3    H141108   3.379   6.079   1.508
 6491TIP3    H241109   3.502   6.045   1.432
 6492TIP3   OH241110   3.333   6.424   0.920
 6492TIP3    H141111   3.251   6.379   0.893
 6492TIP3    H241112   3.381   6.356   0.972
 6493TIP3   OH241113   2.275   7.011   0.183
 6493TIP3    H141114   2.337   7.079   0.209
 6493TIP3    H241115   2.324   6.972   0.109
 6494TIP3   OH241116   2.112   6.284   0.100
 6494TIP3    H141117   2.110   6.381   0.111
 6494TIP3    H241118   2.025   6.265   0.063
 6495TIP3   OH241119   2.188   5.762   0.969
 6495TIP3    H141120   2.169   5.764   0.873
 6495TIP3    H241121   2.147   5.677   0.994
 6496TIP3   OH241122   2.094   7.151   0.592
 6496TIP3    H141123   2.004   7.190   0.582
 6496TIP3    H241124   2.130   7.198   0.516
 6497TIP3   OH241125   2.484   7.261   1.884
 6497TIP3    H141126   2.576   7.262   1.909
 6497TIP3    H241127   2.487   7.275   1.787
 6498TIP3   OH241128   2.914   7.282   0.080
 6498TIP3    H141129   2.836   7.226   0.063
 6498TIP3    H241130   2.970   7.237   0.014
 6499TIP3   OH241131   3.121   7.133   1.738
 6499TIP3    H141132   3.091   7.051   1.778
 6499TIP3    H241133   3.191   7.158   1.801
 6500TIP3   OH241134   3.345   7.239   0.030
 6500TIP3    H141135   3.366   7.159   0.082
 6500TIP3    H241136   3.426   7.254  -0.022
 6501TIP3   OH241137   1.994   6.795   1.811
 6501TIP3    H141138   2.012   6.706   1.776
 6501TIP3    H241139   1.922   6.826   1.752
 6502TIP3   OH241140   2.440   6.837   0.029
 6502TIP3    H141141   2.446   6.753   0.075
 6502TIP3    H241142   2.494   6.816  -0.050
 6503TIP3   OH241143   2.670   6.794   1.750
 6503TIP3    H141144   2.633   6.826   1.666
 6503TIP3    H241145   2.674   6.696   1.739
 6504TIP3   OH241146   3.238   6.781   1.490
 6504TIP3    H141147   3.316   6.839   1.479
 6504TIP3    H241148   3.166   6.846   1.492
 6505TIP3   OH241149   2.077   6.518   1.750
 6505TIP3    H141150   2.130   6.438   1.736
 6505TIP3    H241151   2.069   6.521   1.846
 6506TIP3   OH241152   2.552   6.636   0.255
 6506TIP3    H141153   2.501   6.582   0.318
 6506TIP3    H241154   2.583   6.567   0.192
 6507TIP3   OH241155   2.477   6.412   1.485
 6507TIP3    H141156   2.418   6.484   1.512
 6507TIP3    H241157   2.518   6.450   1.405
 6508TIP3   OH241158   2.660   6.458   0.075
 6508TIP3    H141159   2.650   6.437  -0.019
 6508TIP3    H241160   2.757   6.464   0.086
 6509TIP3   OH241161   2.987   6.667   1.814
 6509TIP3    H141162   3.083   6.672   1.813
 6509TIP3    H241163   2.967   6.598   1.878
 6510TIP3   OH241164   3.577   6.702   8.526
 6510TIP3    H141165   3.567   6.652   8.443
 6510TIP3    H241166   3.599   6.791   8.499
 6511TIP3   OH241167   2.519   6.153   1.589
 6511TIP3    H141168   2.529   6.080   1.525
 6511TIP3    H241169   2.512   6.234   1.534
 6512TIP3   OH241170   2.559   5.989   1.347
 6512TIP3    H141171   2.610   6.035   1.277
 6512TIP3    H241172   2.469   5.982   1.307
 6513TIP3   OH241173   2.712   6.538   1.369
 6513TIP3    H141174   2.788   6.522   1.312
 6513TIP3    H241175   2.676   6.622   1.337
 6514TIP3   OH241176   3.287   6.593   1.680
 6514TIP3    H141177   3.261   6.667   1.621
 6514TIP3    H241178   3.383   6.589   1.661
 6515TIP3   OH241179   2.360   6.279   1.784
 6515TIP3    H141180   2.286   6.217   1.769
 6515TIP3    H241181   2.428   6.243   1.726
 6516TIP3   OH241182   2.637   5.733   1.385
 6516TIP3    H141183   2.619   5.829   1.374
 6516TIP3    H241184   2.562   5.696   1.334
 6517TIP3   OH241185   2.764   6.165   1.746
 6517TIP3    H141186   2.736   6.145   1.837
 6517TIP3    H241187   2.683   6.145   1.695
 6518TIP3   OH241188   3.036   6.084   1.661
 6518TIP3    H141189   2.939   6.086   1.665
 6518TIP3    H241190   3.057   6.012   1.721
 6519TIP3   OH241191   2.171   6.070   1.758
 6519TIP3    H141192   2.199   5.999   1.698
 6519TIP3    H241193   2.175   6.024   1.844
 6520TIP3   OH241194   2.660   5.671   1.655
 6520TIP3    H141195   2.728   5.602   1.654
 6520TIP3    H241196   2.647   5.688   1.560
 6521TIP3   OH241197   2.001   6.979   0.131
 6521TIP3    H141198   2.096   6.993   0.152
 6521TIP3    H241199   2.006   6.924   0.054
 6522TIP3   OH241200   1.947   7.333   0.814
 6522TIP3    H141201   1.916   7.244   0.837
 6522TIP3    H241202   1.976   7.368   0.899
 6523TIP3   OH241203   3.515   6.944   1.875
 6523TIP3    H141204   3.423   6.943   1.906
 6523TIP3    H241205   3.551   7.028   1.911
 6524TIP3   OH241206   3.647   6.774   0.410
 6524TIP3    H141207   3.729   6.821   0.433
 6524TIP3    H241208   3.643   6.707   0.481
 6525TIP3   OH241209   3.680   6.587   0.601
 6525TIP3    H141210   3.605   6.536   0.639
 6525TIP3    H241211   3.740   6.600   0.678
 6526TIP3   OH241212   3.656   6.857   1.102
 6526TIP3    H141213   3.737   6.819   1.062
 6526TIP3    H241214   3.670   6.951   1.083
 6527TIP3   OH241215   3.508   7.146   1.327
 6527TIP3    H141216   3.443   7.183   1.387
 6527TIP3    H241217   3.454   7.105   1.256
 6528TIP3   OH241218   3.710   6.568   0.237
 6528TIP3    H141219   3.650   6.605   0.170
 6528TIP3    H241220   3.703   6.638   0.306
 6529TIP3   OH241221   3.508   6.295   0.101
 6529TIP3    H141222   3.554   6.353   0.039
 6529TIP3    H241223   3.527   6.210   0.056
 6530TIP3   OH241224   3.463   6.434   0.658
 6530TIP3    H141225   3.448   6.338   0.653
 6530TIP3    H241226   3.430   6.455   0.748
 6531TIP3   OH241227   1.962   6.643   1.064
 6531TIP3    H141228   1.980   6.634   0.968
 6531TIP3    H241229   2.052   6.625   1.099
 6532TIP3   OH241230   3.547   6.630   1.632
 6532TIP3    H141231   3.611   6.557   1.640
 6532TIP3    H241232   3.607   6.707   1.624
 6533TIP3   OH241233   3.695   6.417   1.685
 6533TIP3    H141234   3.609   6.377   1.674
 6533TIP3    H241235   3.755   6.341   1.684
 6534TIP3   OH241236   3.473   6.033   0.001
 6534TIP3    H141237   3.531   5.991   0.069
 6534TIP3    H241238   3.384   6.001   0.022
 6535TIP3   OH241239   3.429   6.192   0.506
 6535TIP3    H141240   3.460   6.099   0.516
 6535TIP3    H241241   3.507   6.232   0.465
 6536TIP3   OH241242   3.493   6.246   1.046
 6536TIP3    H141243   3.589   6.270   1.047
 6536TIP3    H241244   3.474   6.260   1.141
 6537TIP3   OH241245   3.501   6.319   1.325
 6537TIP3    H141246   3.413   6.347   1.361
 6537TIP3    H241247   3.543   6.405   1.303
 6538TIP3   OH241248   1.926   6.172   1.684
 6538TIP3    H141249   2.020   6.148   1.698
 6538TIP3    H241250   1.882   6.087   1.708
 6539TIP3   OH241251   3.723   5.720   1.858
 6539TIP3    H141252   3.765   5.656   1.799
 6539TIP3    H241253   3.740   5.804   1.813
 6540TIP3   OH241254   3.497   5.920   0.508
 6540TIP3    H141255   3.518   5.877   0.594
 6540TIP3    H241256   3.436   5.857   0.464
 6541TIP3   OH241257   2.044   6.002   0.965
 6541TIP3    H141258   2.091   5.919   0.990
 6541TIP3    H241259   2.100   6.071   1.003
 6542TIP3   OH241260   1.873   6.301   1.069
 6542TIP3    H141261   1.929   6.276   0.993
 6542TIP3    H241262   1.919   6.382   1.095
 6543TIP3   OH241263   3.677   5.936   1.697
 6543TIP3    H141264   3.585   5.961   1.683
 6543TIP3    H241265   3.686   5.879   1.618
 6544TIP3   OH241266   3.678   5.927   0.164
 6544TIP3    H141267   3.721   5.856   0.115
 6544TIP3    H241268   3.750   5.992   0.167
 6545TIP3   OH241269   1.909   5.927   0.474
 6545TIP3    H141270   1.815   5.946   0.462
 6545TIP3    H241271   1.951   5.977   0.402
 6546TIP3   OH241272   1.904   5.793   1.304
 6546TIP3    H141273   1.838   5.774   1.373
 6546TIP3    H241274   1.858   5.861   1.252
 6547TIP3   OH241275   2.127   7.115   1.720
 6547TIP3    H141276   2.041   7.134   1.677
 6547TIP3    H241277   2.102   7.109   1.814
 6548TIP3   OH241278   2.422   7.213   1.354
 6548TIP3    H141279   2.378   7.291   1.317
 6548TIP3    H241280   2.510   7.215   1.314
 6549TIP3   OH241281   3.580   5.743   1.481
 6549TIP3    H141282   3.498   5.772   1.437
 6549TIP3    H241283   3.599   5.661   1.430
 6550TIP3   OH241284   2.311   7.262   0.887
 6550TIP3    H141285   2.294   7.175   0.927
 6550TIP3    H241286   2.386   7.284   0.947
 6551TIP3   OH241287   2.528   7.266   1.016
 6551TIP3    H141288   2.590   7.206   0.973
 6551TIP3    H241289   2.574   7.305   1.091
 6552TIP3   OH241290   2.920   5.887   0.909
 6552TIP3    H141291   2.853   5.823   0.938
 6552TIP3    H241292   2.975   5.833   0.851
 6553TIP3   OH241293   3.434   5.691   0.915
 6553TIP3    H141294   3.495   5.751   0.865
 6553TIP3    H241295   3.345   5.727   0.893
 6554TIP3   OH241296   3.600   5.817   0.743
 6554TIP3    H141297   3.669   5.759   0.702
 6554TIP3    H241298   3.652   5.900   0.754
 6555TIP3   OH241299   2.157   5.749   0.696
 6555TIP3    H141300   2.078   5.730   0.641
 6555TIP3    H241301   2.203   5.663   0.688
 6556TIP3   OH241302   2.031   5.725   0.265
 6556TIP3    H141303   2.083   5.789   0.212
 6556TIP3    H241304   1.978   5.783   0.322
 6557TIP3   OH241305   2.604   5.742   0.673
 6557TIP3    H141306   2.694   5.778   0.665
 6557TIP3    H241307   2.601   5.720   0.766
 6558TIP3   OH241308   3.176   5.743   0.835
 6558TIP3    H141309   3.171   5.756   0.739
 6558TIP3    H241310   3.138   5.653   0.847
 6559TIP3   OH241311   3.303   5.745   0.399
 6559TIP3    H141312   3.229   5.806   0.386
 6559TIP3    H241313   3.258   5.660   0.424
 6560TIP3   OH241314   2.002  -0.043   0.405
 6560TIP3    H141315   1.966  -0.041   0.315
 6560TIP3    H241316   2.035   0.047   0.410
 6561TIP3   OH241317   2.216   5.910   0.121
 6561TIP3    H141318   2.271   5.856   0.064
 6561TIP3    H241319   2.282   5.953   0.178
 6562TIP3   OH241320   2.720   5.943   0.358
 6562TIP3    H141321   2.746   5.886   0.432
 6562TIP3    H241322   2.727   6.030   0.404
 6563TIP3   OH241323   2.150   5.804   1.644
 6563TIP3    H141324   2.111   5.724   1.685
 6563TIP3    H241325   2.242   5.800   1.675
 6564TIP3   OH241326   3.186   5.674   1.820
 6564TIP3    H141327   3.194   5.621   1.900
 6564TIP3    H241328   3.276   5.667   1.782
 6565TIP3   OH241329   3.499   7.269   1.698
 6565TIP3    H141330   3.429   7.259   1.630
 6565TIP3    H241331   3.507   7.365   1.698
 6566TIP3   OH241332   4.951   6.661   0.680
 6566TIP3    H141333   4.950   6.760   0.677
 6566TIP3    H241334   4.878   6.639   0.618
 6567TIP3   OH241335   4.837   6.589   1.030
 6567TIP3    H141336   4.837   6.525   1.101
 6567TIP3    H241337   4.802   6.538   0.955
 6568TIP3   OH241338   4.074   6.555   1.184
 6568TIP3    H141339   4.080   6.488   1.255
 6568TIP3    H241340   4.146   6.615   1.207
 6569TIP3   OH241341   5.206   6.882   0.859
 6569TIP3    H141342   5.162   6.812   0.908
 6569TIP3    H241343   5.209   6.954   0.925
 6570TIP3   OH241344   4.169   7.001   1.037
 6570TIP3    H141345   4.135   6.915   1.005
 6570TIP3    H241346   4.264   6.980   1.042
 6571TIP3   OH241347   3.829   6.356   0.584
 6571TIP3    H141348   3.786   6.444   0.579
 6571TIP3    H241349   3.773   6.303   0.526
 6572TIP3   OH241350   3.900   6.580   0.800
 6572TIP3    H141351   3.928   6.497   0.844
 6572TIP3    H241352   3.969   6.590   0.732
 6573TIP3   OH241353   4.673   6.825   1.079
 6573TIP3    H141354   4.708   6.766   1.011
 6573TIP3    H241355   4.755   6.845   1.128
 6574TIP3   OH241356   5.535   5.991   1.152
 6574TIP3    H141357   5.551   6.055   1.225
 6574TIP3    H241358   5.589   6.035   1.084
 6575TIP3   OH241359   4.987   6.274   1.110
 6575TIP3    H141360   5.010   6.180   1.109
 6575TIP3    H241361   4.980   6.290   1.014
 6576TIP3   OH241362   4.302   6.084   0.830
 6576TIP3    H141363   4.314   6.168   0.780
 6576TIP3    H241364   4.263   6.027   0.761
 6577TIP3   OH241365   5.077   6.096   0.672
 6577TIP3    H141366   5.144   6.061   0.734
 6577TIP3    H241367   5.131   6.149   0.611
 6578TIP3   OH241368   3.965   6.326   0.903
 6578TIP3    H141369   4.032   6.271   0.949
 6578TIP3    H241370   3.976   6.294   0.812
 6579TIP3   OH241371   4.480   6.482   0.835
 6579TIP3    H141372   4.549   6.424   0.873
 6579TIP3    H241373   4.429   6.416   0.784
 6580TIP3   OH241374   5.570   6.129   1.376
 6580TIP3    H141375   5.519   6.213   1.365
 6580TIP3    H241376   5.583   6.130   1.473
 6581TIP3   OH241377   4.197   5.978   1.236
 6581TIP3    H141378   4.165   6.030   1.159
 6581TIP3    H241379   4.125   5.997   1.301
 6582TIP3   OH241380   4.923   6.922   0.588
 6582TIP3    H141381   4.896   6.896   0.498
 6582TIP3    H241382   4.895   7.015   0.592
 6583TIP3   OH241383   4.445   6.736   1.258
 6583TIP3    H141384   4.375   6.801   1.281
 6583TIP3    H241385   4.515   6.797   1.228
 6584TIP3   OH241386   5.258   6.026   0.866
 6584TIP3    H141387   5.236   5.950   0.921
 6584TIP3    H241388   5.325   6.072   0.919
 6585TIP3   OH241389   4.154   6.158   1.040
 6585TIP3    H141390   4.214   6.231   1.066
 6585TIP3    H241391   4.202   6.120   0.962
 6586TIP3   OH241392   4.291   6.938   1.342
 6586TIP3    H141393   4.286   7.028   1.306
 6586TIP3    H241394   4.200   6.932   1.381
 6587TIP3   OH241395   3.895   6.906   0.419
 6587TIP3    H141396   3.875   6.937   0.329
 6587TIP3    H241397   3.906   6.988   0.471
 6588TIP3   OH241398   5.260   7.071   1.099
 6588TIP3    H141399   5.162   7.075   1.107
 6588TIP3    H241400   5.286   7.161   1.073
 6589TIP3   OH241401   5.293   5.894   1.232
 6589TIP3    H141402   5.218   5.955   1.227
 6589TIP3    H241403   5.358   5.946   1.180
 6590TIP3   OH241404   4.587   5.707   0.981
 6590TIP3    H141405   4.572   5.611   0.974
 6590TIP3    H241406   4.499   5.739   1.011
 6591TIP3   OH241407   5.086   7.224   0.745
 6591TIP3    H141408   5.135   7.159   0.692
 6591TIP3    H241409   5.125   7.306   0.714
 6592TIP3   OH241410   5.208   7.035   0.605
 6592TIP3    H141411   5.176   6.968   0.543
 6592TIP3    H241412   5.209   6.987   0.690
 6593TIP3   OH241413   5.367   6.899   1.455
 6593TIP3    H141414   5.381   6.831   1.385
 6593TIP3    H241415   5.392   6.981   1.410
 6594TIP3   OH241416   4.817   6.592   0.432
 6594TIP3    H141417   4.747   6.644   0.389
 6594TIP3    H241418   4.887   6.593   0.364
 6595TIP3   OH241419   4.823   6.447   0.136
 6595TIP3    H141420   4.890   6.436   0.205
 6595TIP3    H241421   4.850   6.373   0.081
 6596TIP3   OH241422   5.559   6.530   1.261
 6596TIP3    H141423   5.492   6.602   1.264
 6596TIP3    H241424   5.606   6.553   1.179
 6597TIP3   OH241425   5.161   6.608   0.525
 6597TIP3    H141426   5.087   6.632   0.585
 6597TIP3    H241427   5.210   6.541   0.576
 6598TIP3   OH241428   5.155   6.424   1.435
 6598TIP3    H141429   5.155   6.505   1.490
 6598TIP3    H241430   5.092   6.454   1.366
 6599TIP3   OH241431   4.322   6.673   0.716
 6599TIP3    H141432   4.291   6.635   0.630
 6599TIP3    H241433   4.385   6.605   0.748
 6600TIP3   OH241434   4.457   7.010   0.982
 6600TIP3    H141435   4.457   6.957   0.902
 6600TIP3    H241436   4.535   6.976   1.030
 6601TIP3   OH241437   4.359   6.544   1.085
 6601TIP3    H141438   4.409   6.558   1.001
 6601TIP3    H241439   4.394   6.617   1.141
 6602TIP3   OH241440   4.997   7.106   1.152
 6602TIP3    H141441   4.964   7.170   1.214
 6602TIP3    H241442   4.971   7.021   1.193
 6603TIP3   OH241443   4.452   6.997   1.552
 6603TIP3    H141444   4.406   7.065   1.603
 6603TIP3    H241445   4.385   6.971   1.483
 6604TIP3   OH241446   5.049   6.528   0.292
 6604TIP3    H141447   5.104   6.545   0.371
 6604TIP3    H241448   5.091   6.580   0.220
 6605TIP3   OH241449   4.146   6.606   1.471
 6605TIP3    H141450   4.150   6.675   1.541
 6605TIP3    H241451   4.053   6.617   1.444
 6606TIP3   OH241452   4.817   7.197   0.642
 6606TIP3    H141453   4.869   7.232   0.715
 6606TIP3    H241454   4.768   7.273   0.610
 6607TIP3   OH241455   4.274   7.201   1.617
 6607TIP3    H141456   4.268   7.184   1.522
 6607TIP3    H241457   4.183   7.182   1.649
 6608TIP3   OH241458   5.421   5.701   0.280
 6608TIP3    H141459   5.326   5.711   0.304
 6608TIP3    H241460   5.443   5.787   0.240
 6609TIP3   OH241461   4.219   6.576   0.477
 6609TIP3    H141462   4.192   6.654   0.423
 6609TIP3    H241463   4.155   6.509   0.453
 6610TIP3   OH241464   5.534   7.133   0.119
 6610TIP3    H141465   5.541   7.228   0.129
 6610TIP3    H241466   5.627   7.105   0.107
 6611TIP3   OH241467   3.828   6.820   1.366
 6611TIP3    H141468   3.785   6.810   1.280
 6611TIP3    H241469   3.836   6.725   1.389
 6612TIP3   OH241470   3.809   7.098   1.039
 6612TIP3    H141471   3.905   7.083   1.042
 6612TIP3    H241472   3.799   7.173   1.099
 6613TIP3   OH241473   5.626   7.162   1.619
 6613TIP3    H141474   5.614   7.067   1.608
 6613TIP3    H241475   5.538   7.189   1.653
 6614TIP3   OH241476   4.722   7.123   1.494
 6614TIP3    H141477   4.734   7.199   1.551
 6614TIP3    H241478   4.640   7.079   1.524
 6615TIP3   OH241479   5.350   6.311   1.651
 6615TIP3    H141480   5.293   6.355   1.587
 6615TIP3    H241481   5.341   6.217   1.629
 6616TIP3   OH241482   4.059   6.949   1.461
 6616TIP3    H141483   4.079   6.914   1.551
 6616TIP3    H241484   3.972   6.910   1.438
 6617TIP3   OH241485   4.326   5.799   1.056
 6617TIP3    H141486   4.236   5.786   1.019
 6617TIP3    H241487   4.311   5.881   1.105
 6618TIP3   OH241488   4.788   5.769   1.391
 6618TIP3    H141489   4.829   5.725   1.468
 6618TIP3    H241490   4.692   5.751   1.406
 6619TIP3   OH241491   5.119   6.147   1.478
 6619TIP3    H141492   5.065   6.127   1.559
 6619TIP3    H241493   5.104   6.242   1.460
 6620TIP3   OH241494   5.201   6.636   0.076
 6620TIP3    H141495   5.202   6.617  -0.019
 6620TIP3    H241496   5.288   6.679   0.086
 6621TIP3   OH241497   4.701   5.988   0.080
 6621TIP3    H141498   4.716   6.025   0.172
 6621TIP3    H241499   4.738   5.902   0.093
 6622TIP3   OH241500   4.339   6.297   1.189
 6622TIP3    H141501   4.256   6.295   1.241
 6622TIP3    H241502   4.330   6.384   1.142
 6623TIP3   OH241503   4.333   6.306   0.667
 6623TIP3    H141504   4.239   6.282   0.653
 6623TIP3    H241505   4.372   6.278   0.580
 6624TIP3   OH241506   4.888   6.361   0.545
 6624TIP3    H141507   4.844   6.440   0.508
 6624TIP3    H241508   4.948   6.336   0.471
 6625TIP3   OH241509   4.792   6.376   1.684
 6625TIP3    H141510   4.739   6.303   1.723
 6625TIP3    H241511   4.874   6.369   1.739
 6626TIP3   OH241512   4.988   6.307   0.830
 6626TIP3    H141513   4.959   6.362   0.755
 6626TIP3    H241514   4.997   6.222   0.781
 6627TIP3   OH241515   4.103   6.317   1.349
 6627TIP3    H141516   4.102   6.364   1.435
 6627TIP3    H241517   4.052   6.237   1.370
 6628TIP3   OH241518   4.449   6.088   0.069
 6628TIP3    H141519   4.400   6.020   0.119
 6628TIP3    H241520   4.391   6.121   0.002
 6629TIP3   OH241521   3.764   6.031   0.748
 6629TIP3    H141522   3.833   6.027   0.818
 6629TIP3    H241523   3.809   5.994   0.670
 6630TIP3   OH241524   3.892   6.103   0.284
 6630TIP3    H141525   3.942   6.162   0.224
 6630TIP3    H241526   3.824   6.167   0.316
 6631TIP3   OH241527   4.903   6.465   1.283
 6631TIP3    H141528   4.946   6.398   1.225
 6631TIP3    H241529   4.864   6.412   1.353
 6632TIP3   OH241530   4.585   6.062   0.772
 6632TIP3    H141531   4.491   6.063   0.800
 6632TIP3    H241532   4.634   6.045   0.854
 6633TIP3   OH241533   4.069   6.217   0.656
 6633TIP3    H141534   3.981   6.233   0.616
 6633TIP3    H241535   4.098   6.135   0.613
 6634TIP3   OH241536   4.429   6.227   0.420
 6634TIP3    H141537   4.526   6.230   0.435
 6634TIP3    H241538   4.412   6.288   0.347
 6635TIP3   OH241539   5.029   5.984   1.093
 6635TIP3    H141540   4.959   5.991   1.161
 6635TIP3    H241541   4.978   5.962   1.013
 6636TIP3   OH241542   4.298   6.345   0.176
 6636TIP3    H141543   4.246   6.305   0.104
 6636TIP3    H241544   4.385   6.360   0.133
 6637TIP3   OH241545   4.115   6.799   1.683
 6637TIP3    H141546   4.187   6.822   1.744
 6637TIP3    H241547   4.038   6.810   1.744
 6638TIP3   OH241548   4.715   6.338   0.959
 6638TIP3    H141549   4.775   6.287   0.903
 6638TIP3    H241550   4.703   6.281   1.035
 6639TIP3   OH241551   4.217   5.952   0.603
 6639TIP3    H141552   4.185   5.860   0.600
 6639TIP3    H241553   4.295   5.946   0.546
 6640TIP3   OH241554   4.578   6.168   1.201
 6640TIP3    H141555   4.499   6.226   1.194
 6640TIP3    H241556   4.645   6.210   1.257
 6641TIP3   OH241557   4.639   6.791   0.371
 6641TIP3    H141558   4.559   6.746   0.337
 6641TIP3    H241559   4.615   6.806   0.465
 6642TIP3   OH241560   5.358   6.713   1.248
 6642TIP3    H141561   5.413   6.764   1.186
 6642TIP3    H241562   5.272   6.718   1.203
 6643TIP3   OH241563   5.075   6.078   0.161
 6643TIP3    H141564   4.978   6.082   0.146
 6643TIP3    H241565   5.069   6.154   0.223
 6644TIP3   OH241566   4.789   6.825   1.491
 6644TIP3    H141567   4.754   6.777   1.568
 6644TIP3    H241568   4.762   6.915   1.505
 6645TIP3   OH241569   5.100   6.268   0.356
 6645TIP3    H141570   5.190   6.255   0.390
 6645TIP3    H241571   5.103   6.346   0.299
 6646TIP3   OH241572   4.150   6.733   0.949
 6646TIP3    H141573   4.218   6.726   0.879
 6646TIP3    H241574   4.155   6.647   0.994
 6647TIP3   OH241575   4.850   6.941   0.275
 6647TIP3    H141576   4.813   7.025   0.307
 6647TIP3    H241577   4.775   6.880   0.293
 6648TIP3   OH241578   3.849   6.573   1.473
 6648TIP3    H141579   3.865   6.530   1.559
 6648TIP3    H241580   3.785   6.512   1.431
 6649TIP3   OH241581   4.550   6.528   1.691
 6649TIP3    H141582   4.520   6.500   1.605
 6649TIP3    H241583   4.643   6.497   1.697
 6650TIP3   OH241584   5.017   7.072   1.482
 6650TIP3    H141585   4.922   7.078   1.465
 6650TIP3    H241586   5.014   7.090   1.579
 6651TIP3   OH241587   5.586   6.281   0.327
 6651TIP3    H141588   5.529   6.250   0.255
 6651TIP3    H241589   5.593   6.375   0.301
 6652TIP3   OH241590   5.584   6.862   1.608
 6652TIP3    H141591   5.495   6.888   1.574
 6652TIP3    H241592   5.638   6.862   1.526
 6653TIP3   OH241593   5.421   7.147   0.377
 6653TIP3    H141594   5.373   7.068   0.398
 6653TIP3    H241595   5.442   7.144   0.282
 6654TIP3   OH241596   5.135   6.645   1.077
 6654TIP3    H141597   5.041   6.625   1.064
 6654TIP3    H241598   5.178   6.569   1.033
 6655TIP3   OH241599   4.390   7.075   0.682
 6655TIP3    H141600   4.435   7.158   0.664
 6655TIP3    H241601   4.300   7.097   0.656
 6656TIP3   OH241602   3.959   6.564   0.139
 6656TIP3    H141603   4.022   6.626   0.182
 6656TIP3    H241604   3.872   6.591   0.174
 6657TIP3   OH241605   4.530   6.844   0.640
 6657TIP3    H141606   4.499   6.937   0.646
 6657TIP3    H241607   4.457   6.797   0.684
 6658TIP3   OH241608   4.590   7.239   1.256
 6658TIP3    H141609   4.614   7.332   1.248
 6658TIP3    H241610   4.634   7.218   1.341
 6659TIP3   OH241611   4.363  -0.008   0.559
 6659TIP3    H141612   4.280   0.005   0.604
 6659TIP3    H241613   4.417   0.058   0.609
 6660TIP3   OH241614   4.926   6.862   1.242
 6660TIP3    H141615   4.892   6.841   1.331
 6660TIP3    H241616   4.989   6.790   1.224
 6661TIP3   OH241617   5.155   6.959   0.154
 6661TIP3    H141618   5.186   6.922   0.239
 6661TIP3    H241619   5.059   6.950   0.162
 6662TIP3   OH241620   5.204   7.314   1.491
 6662TIP3    H141621   5.134   7.266   1.444
 6662TIP3    H241622   5.220   7.389   1.431
 6663TIP3   OH241623   4.016   6.046   1.430
 6663TIP3    H141624   3.925   6.082   1.426
 6663TIP3    H241625   4.001   5.961   1.475
 6664TIP3   OH241626   5.237   6.831   0.376
 6664TIP3    H141627   5.213   6.751   0.428
 6664TIP3    H241628   5.332   6.839   0.396
 6665TIP3   OH241629   3.975   7.220   1.270
 6665TIP3    H141630   4.006   7.129   1.275
 6665TIP3    H241631   3.994   7.255   1.358
 6666TIP3   OH241632   4.451   7.033   0.242
 6666TIP3    H141633   4.475   6.977   0.317
 6666TIP3    H241634   4.461   7.123   0.277
 6667TIP3   OH241635   4.099   6.756   0.288
 6667TIP3    H141636   4.033   6.796   0.349
 6667TIP3    H241637   4.155   6.832   0.266
 6668TIP3   OH241638   4.880   6.026   1.329
 6668TIP3    H141639   4.956   6.031   1.390
 6668TIP3    H241640   4.850   5.934   1.346
 6669TIP3   OH241641   4.997   5.960   0.445
 6669TIP3    H141642   4.974   6.018   0.369
 6669TIP3    H241643   5.019   6.031   0.508
 6670TIP3   OH241644   4.730   7.197   0.321
 6670TIP3    H141645   4.645   7.244   0.322
 6670TIP3    H241646   4.782   7.246   0.253
 6671TIP3   OH241647   4.667   6.164   0.529
 6671TIP3    H141648   4.755   6.207   0.512
 6671TIP3    H241649   4.659   6.143   0.623
 6672TIP3   OH241650   4.735   6.255   1.438
 6672TIP3    H141651   4.754   6.315   1.514
 6672TIP3    H241652   4.808   6.191   1.445
 6673TIP3   OH241653   4.770   5.861   0.605
 6673TIP3    H141654   4.736   5.927   0.668
 6673TIP3    H241655   4.838   5.915   0.559
 6674TIP3   OH241656   4.475  -0.034   0.312
 6674TIP3    H141657   4.483   0.051   0.269
 6674TIP3    H241658   4.440  -0.011   0.401
 6675TIP3   OH241659   4.334   5.970   0.282
 6675TIP3    H141660   4.331   6.062   0.313
 6675TIP3    H241661   4.427   5.949   0.305
 6676TIP3   OH241662   5.354   6.040   1.519
 6676TIP3    H141663   5.263   6.079   1.507
 6676TIP3    H241664   5.389   6.051   1.429
 6677TIP3   OH241665   5.219   6.425   0.923
 6677TIP3    H141666   5.137   6.380   0.893
 6677TIP3    H241667   5.267   6.355   0.972
 6678TIP3   OH241668   4.161   7.010   0.184
 6678TIP3    H141669   4.223   7.080   0.209
 6678TIP3    H241670   4.210   6.972   0.109
 6679TIP3   OH241671   3.998   6.284   0.100
 6679TIP3    H141672   3.995   6.381   0.111
 6679TIP3    H241673   3.911   6.265   0.063
 6680TIP3   OH241674   4.074   5.762   0.969
 6680TIP3    H141675   4.055   5.764   0.873
 6680TIP3    H241676   4.033   5.677   0.994
 6681TIP3   OH241677   3.979   7.151   0.592
 6681TIP3    H141678   3.890   7.190   0.582
 6681TIP3    H241679   4.016   7.198   0.516
 6682TIP3   OH241680   4.357   7.263   1.874
 6682TIP3    H141681   4.445   7.235   1.895
 6682TIP3    H241682   4.361   7.268   1.776
 6683TIP3   OH241683   4.801   7.281   0.080
 6683TIP3    H141684   4.723   7.225   0.063
 6683TIP3    H241685   4.857   7.239   0.012
 6684TIP3   OH241686   5.008   7.134   1.739
 6684TIP3    H141687   4.973   7.052   1.779
 6684TIP3    H241688   5.083   7.155   1.799
 6685TIP3   OH241689   5.231   7.238   0.031
 6685TIP3    H141690   5.252   7.158   0.082
 6685TIP3    H241691   5.312   7.253  -0.021
 6686TIP3   OH241692   3.879   6.795   1.809
 6686TIP3    H141693   3.897   6.705   1.777
 6686TIP3    H241694   3.806   6.826   1.753
 6687TIP3   OH241695   4.325   6.837   0.029
 6687TIP3    H141696   4.331   6.753   0.075
 6687TIP3    H241697   4.379   6.816  -0.050
 6688TIP3   OH241698   4.562   6.796   1.747
 6688TIP3    H141699   4.517   6.824   1.665
 6688TIP3    H241700   4.559   6.697   1.741
 6689TIP3   OH241701   5.121   6.780   1.488
 6689TIP3    H141702   5.201   6.838   1.482
 6689TIP3    H241703   5.052   6.847   1.493
 6690TIP3   OH241704   3.964   6.517   1.749
 6690TIP3    H141705   4.018   6.438   1.740
 6690TIP3    H241706   3.950   6.521   1.844
 6691TIP3   OH241707   4.440   6.635   0.256
 6691TIP3    H141708   4.386   6.582   0.318
 6691TIP3    H241709   4.470   6.566   0.192
 6692TIP3   OH241710   4.366   6.410   1.479
 6692TIP3    H141711   4.308   6.479   1.515
 6692TIP3    H241712   4.399   6.460   1.401
 6693TIP3   OH241713   4.545   6.462   0.074
 6693TIP3    H141714   4.536   6.434  -0.018
 6693TIP3    H241715   4.643   6.462   0.088
 6694TIP3   OH241716   4.871   6.672   1.824
 6694TIP3    H141717   4.967   6.665   1.811
 6694TIP3    H241718   4.854   6.593   1.877
 6695TIP3   OH241719   5.462   6.702   8.526
 6695TIP3    H141720   5.451   6.652   8.443
 6695TIP3    H241721   5.485   6.791   8.499
 6696TIP3   OH241722   4.412   6.152   1.591
 6696TIP3    H141723   4.405   6.075   1.529
 6696TIP3    H241724   4.377   6.232   1.547
 6697TIP3   OH241725   4.442   6.003   1.349
 6697TIP3    H141726   4.495   6.028   1.269
 6697TIP3    H241727   4.355   5.979   1.307
 6698TIP3   OH241728   4.594   6.531   1.364
 6698TIP3    H141729   4.676   6.526   1.312
 6698TIP3    H241730   4.562   6.620   1.340
 6699TIP3   OH241731   5.036   6.314   1.857
 6699TIP3    H141732   5.061   6.222   1.867
 6699TIP3    H241733   5.121   6.358   1.874
 6700TIP3   OH241734   5.170   6.592   1.677
 6700TIP3    H141735   5.147   6.668   1.618
 6700TIP3    H241736   5.267   6.589   1.663
 6701TIP3   OH241737   4.247   6.278   1.783
 6701TIP3    H141738   4.170   6.219   1.768
 6701TIP3    H241739   4.314   6.240   1.724
 6702TIP3   OH241740   4.521   5.733   1.386
 6702TIP3    H141741   4.503   5.828   1.373
 6702TIP3    H241742   4.449   5.691   1.335
 6703TIP3   OH241743   4.650   6.162   1.744
 6703TIP3    H141744   4.624   6.145   1.836
 6703TIP3    H241745   4.567   6.144   1.697
 6704TIP3   OH241746   4.920   6.075   1.649
 6704TIP3    H141747   4.826   6.086   1.670
 6704TIP3    H241748   4.951   6.019   1.724
 6705TIP3   OH241749   5.067   5.944   1.843
 6705TIP3    H141750   5.079   5.848   1.852
 6705TIP3    H241751   5.061   5.975   1.936
 6706TIP3   OH241752   4.064   6.071   1.757
 6706TIP3    H141753   4.081   5.995   1.699
 6706TIP3    H241754   4.052   6.026   1.843
 6707TIP3   OH241755   4.545   5.673   1.654
 6707TIP3    H141756   4.611   5.601   1.651
 6707TIP3    H241757   4.534   5.688   1.558
 6708TIP3   OH241758   4.581   5.835   1.865
 6708TIP3    H141759   4.564   5.782   1.784
 6708TIP3    H241760   4.520   5.911   1.857
 6709TIP3   OH241761   3.886   6.979   0.132
 6709TIP3    H141762   3.981   6.993   0.152
 6709TIP3    H241763   3.892   6.924   0.054
 6710TIP3   OH241764   3.831   7.334   0.814
 6710TIP3    H141765   3.802   7.244   0.837
 6710TIP3    H241766   3.862   7.368   0.899
 6711TIP3   OH241767   5.397   6.946   1.867
 6711TIP3    H141768   5.310   6.942   1.910
 6711TIP3    H241769   5.437   7.025   1.911
 6712TIP3   OH241770   5.532   6.774   0.410
 6712TIP3    H141771   5.614   6.821   0.433
 6712TIP3    H241772   5.529   6.706   0.481
 6713TIP3   OH241773   5.566   6.587   0.601
 6713TIP3    H141774   5.490   6.536   0.639
 6713TIP3    H241775   5.625   6.600   0.678
 6714TIP3   OH241776   5.542   6.857   1.102
 6714TIP3    H141777   5.622   6.819   1.062
 6714TIP3    H241778   5.556   6.952   1.083
 6715TIP3   OH241779   5.394   7.149   1.330
 6715TIP3    H141780   5.327   7.184   1.389
 6715TIP3    H241781   5.341   7.107   1.258
 6716TIP3   OH241782   5.590   6.565   0.239
 6716TIP3    H141783   5.537   6.606   0.169
 6716TIP3    H241784   5.590   6.638   0.305
 6717TIP3   OH241785   5.394   6.294   0.102
 6717TIP3    H141786   5.440   6.353   0.039
 6717TIP3    H241787   5.412   6.210   0.056
 6718TIP3   OH241788   5.348   6.434   0.659
 6718TIP3    H141789   5.333   6.338   0.653
 6718TIP3    H241790   5.316   6.455   0.748
 6719TIP3   OH241791   3.849   6.643   1.064
 6719TIP3    H141792   3.866   6.634   0.968
 6719TIP3    H241793   3.938   6.625   1.099
 6720TIP3   OH241794   5.435   6.629   1.623
 6720TIP3    H141795   5.495   6.554   1.642
 6720TIP3    H241796   5.494   6.708   1.626
 6721TIP3   OH241797   5.590   6.420   1.689
 6721TIP3    H141798   5.499   6.381   1.681
 6721TIP3    H241799   5.642   6.337   1.686
 6722TIP3   OH241800   5.359   6.032   0.000
 6722TIP3    H141801   5.415   5.992   0.069
 6722TIP3    H241802   5.268   6.005   0.025
 6723TIP3   OH241803   5.318   6.193   0.510
 6723TIP3    H141804   5.344   6.099   0.515
 6723TIP3    H241805   5.392   6.232   0.463
 6724TIP3   OH241806   5.379   6.243   1.049
 6724TIP3    H141807   5.474   6.271   1.046
 6724TIP3    H241808   5.360   6.263   1.142
 6725TIP3   OH241809   5.385   6.318   1.322
 6725TIP3    H141810   5.299   6.347   1.359
 6725TIP3    H241811   5.429   6.404   1.304
 6726TIP3   OH241812   3.813   6.172   1.680
 6726TIP3    H141813   3.906   6.150   1.698
 6726TIP3    H241814   3.767   6.090   1.707
 6727TIP3   OH241815   5.612   5.717   1.856
 6727TIP3    H141816   5.653   5.657   1.794
 6727TIP3    H241817   5.622   5.805   1.816
 6728TIP3   OH241818   5.382   5.920   0.508
 6728TIP3    H141819   5.403   5.877   0.593
 6728TIP3    H241820   5.319   5.858   0.464
 6729TIP3   OH241821   3.931   6.002   0.964
 6729TIP3    H141822   3.976   5.919   0.989
 6729TIP3    H241823   3.986   6.071   1.003
 6730TIP3   OH241824   3.759   6.302   1.068
 6730TIP3    H141825   3.815   6.277   0.992
 6730TIP3    H241826   3.806   6.382   1.095
 6731TIP3   OH241827   5.566   5.934   1.693
 6731TIP3    H141828   5.473   5.961   1.689
 6731TIP3    H241829   5.569   5.878   1.615
 6732TIP3   OH241830   5.562   5.927   0.166
 6732TIP3    H141831   5.604   5.856   0.115
 6732TIP3    H241832   5.635   5.992   0.166
 6733TIP3   OH241833   3.795   5.927   0.474
 6733TIP3    H141834   3.701   5.946   0.462
 6733TIP3    H241835   3.836   5.978   0.401
 6734TIP3   OH241836   3.790   5.793   1.305
 6734TIP3    H141837   3.723   5.775   1.373
 6734TIP3    H241838   3.744   5.861   1.251
 6735TIP3   OH241839   4.011   7.123   1.723
 6735TIP3    H141840   3.925   7.135   1.676
 6735TIP3    H241841   3.988   7.102   1.814
 6736TIP3   OH241842   4.307   7.213   1.354
 6736TIP3    H141843   4.263   7.291   1.318
 6736TIP3    H241844   4.396   7.216   1.313
 6737TIP3   OH241845   5.474   5.748   1.485
 6737TIP3    H141846   5.382   5.775   1.464
 6737TIP3    H241847   5.487   5.657   1.451
 6738TIP3   OH241848   4.195   7.260   0.888
 6738TIP3    H141849   4.180   7.173   0.928
 6738TIP3    H241850   4.272   7.285   0.946
 6739TIP3   OH241851   4.414   7.264   1.016
 6739TIP3    H141852   4.476   7.204   0.973
 6739TIP3    H241853   4.459   7.304   1.091
 6740TIP3   OH241854   4.806   5.888   0.907
 6740TIP3    H141855   4.739   5.824   0.937
 6740TIP3    H241856   4.861   5.833   0.850
 6741TIP3   OH241857   5.320   5.696   0.921
 6741TIP3    H141858   5.381   5.750   0.863
 6741TIP3    H241859   5.231   5.726   0.892
 6742TIP3   OH241860   5.489   5.814   0.748
 6742TIP3    H141861   5.555   5.758   0.701
 6742TIP3    H241862   5.537   5.900   0.752
 6743TIP3   OH241863   4.043   5.749   0.696
 6743TIP3    H141864   3.964   5.730   0.641
 6743TIP3    H241865   4.088   5.663   0.688
 6744TIP3   OH241866   3.916   5.724   0.263
 6744TIP3    H141867   3.968   5.789   0.212
 6744TIP3    H241868   3.864   5.782   0.322
 6745TIP3   OH241869   4.489   5.741   0.673
 6745TIP3    H141870   4.579   5.778   0.664
 6745TIP3    H241871   4.487   5.720   0.766
 6746TIP3   OH241872   5.065   5.742   0.838
 6746TIP3    H141873   5.059   5.755   0.742
 6746TIP3    H241874   5.023   5.653   0.847
 6747TIP3   OH241875   5.187   5.745   0.398
 6747TIP3    H141876   5.114   5.809   0.388
 6747TIP3    H241877   5.141   5.662   0.424
 6748TIP3   OH241878   3.888  -0.043   0.404
 6748TIP3    H141879   3.851  -0.041   0.314
 6748TIP3    H241880   3.920   0.047   0.409
 6749TIP3   OH241881   4.102   5.909   0.120
 6749TIP3    H141882   4.159   5.856   0.064
 6749TIP3    H241883   4.168   5.953   0.178
 6750TIP3   OH241884   4.593   5.941   0.365
 6750TIP3    H141885   4.634   5.887   0.434
 6750TIP3    H241886   4.617   6.030   0.398
 6751TIP3   OH241887   4.030   5.803   1.640
 6751TIP3    H141888   3.992   5.722   1.679
 6751TIP3    H241889   4.121   5.797   1.676
 6752TIP3   OH241890   4.234   5.741   1.803
 6752TIP3    H141891   4.322   5.707   1.780
 6752TIP3    H241892   4.196   5.660   1.844
 6753TIP3   OH241893   5.073   5.661   1.814
 6753TIP3    H141894   5.085   5.637   1.906
 6753TIP3    H241895   5.166   5.672   1.784
 6754TIP3   OH241896   5.381   7.268   1.698
 6754TIP3    H141897   5.314   7.259   1.627
 6754TIP3    H241898   5.394   7.363   1.697
 6755TIP3   OH241899   6.836   6.661   0.680
 6755TIP3    H141900   6.837   6.760   0.677
 6755TIP3    H241901   6.764   6.640   0.619
 6756TIP3   OH241902   6.723   6.588   1.029
 6756TIP3    H141903   6.721   6.524   1.102
 6756TIP3    H241904   6.688   6.537   0.954
 6757TIP3   OH241905   5.956   6.557   1.187
 6757TIP3    H141906   5.967   6.486   1.254
 6757TIP3    H241907   6.033   6.613   1.206
 6758TIP3   OH241908   7.093   6.880   0.861
 6758TIP3    H141909   7.049   6.810   0.910
 6758TIP3    H241910   7.100   6.950   0.927
 6759TIP3   OH241911   6.055   7.001   1.037
 6759TIP3    H141912   6.021   6.915   1.005
 6759TIP3    H241913   6.150   6.980   1.042
 6760TIP3   OH241914   5.714   6.357   0.584
 6760TIP3    H141915   5.671   6.444   0.579
 6760TIP3    H241916   5.659   6.305   0.525
 6761TIP3   OH241917   5.786   6.579   0.800
 6761TIP3    H141918   5.814   6.497   0.844
 6761TIP3    H241919   5.854   6.590   0.732
 6762TIP3   OH241920   6.559   6.825   1.080
 6762TIP3    H141921   6.593   6.766   1.011
 6762TIP3    H241922   6.641   6.845   1.128
 6763TIP3   OH241923   6.875   6.276   1.108
 6763TIP3    H141924   6.894   6.180   1.109
 6763TIP3    H241925   6.866   6.289   1.012
 6764TIP3   OH241926   6.188   6.085   0.830
 6764TIP3    H141927   6.199   6.168   0.780
 6764TIP3    H241928   6.149   6.027   0.761
 6765TIP3   OH241929   6.962   6.095   0.668
 6765TIP3    H141930   7.028   6.061   0.734
 6765TIP3    H241931   7.019   6.150   0.612
 6766TIP3   OH241932   5.851   6.326   0.903
 6766TIP3    H141933   5.918   6.271   0.949
 6766TIP3    H241934   5.861   6.294   0.812
 6767TIP3   OH241935   6.365   6.480   0.839
 6767TIP3    H141936   6.434   6.422   0.875
 6767TIP3    H241937   6.315   6.416   0.785
 6768TIP3   OH241938   6.080   5.975   1.234
 6768TIP3    H141939   6.051   6.031   1.159
 6768TIP3    H241940   6.012   5.998   1.302
 6769TIP3   OH241941   6.807   6.920   0.588
 6769TIP3    H141942   6.781   6.895   0.498
 6769TIP3    H241943   6.780   7.014   0.592
 6770TIP3   OH241944   6.330   6.737   1.257
 6770TIP3    H141945   6.261   6.802   1.281
 6770TIP3    H241946   6.401   6.797   1.229
 6771TIP3   OH241947   7.124   6.024   0.872
 6771TIP3    H141948   7.117   5.945   0.925
 6771TIP3    H241949   7.197   6.073   0.917
 6772TIP3   OH241950   6.037   6.160   1.038
 6772TIP3    H141951   6.099   6.229   1.069
 6772TIP3    H241952   6.088   6.119   0.963
 6773TIP3   OH241953   6.176   6.938   1.341
 6773TIP3    H141954   6.171   7.029   1.307
 6773TIP3    H241955   6.086   6.932   1.380
 6774TIP3   OH241956   5.771   6.912   0.423
 6774TIP3    H141957   5.761   6.938   0.329
 6774TIP3    H241958   5.792   6.994   0.471
 6775TIP3   OH241959   7.138   7.065   1.104
 6775TIP3    H141960   7.041   7.075   1.109
 6775TIP3    H241961   7.168   7.152   1.074
 6776TIP3   OH241962   7.169   5.906   1.220
 6776TIP3    H141963   7.093   5.968   1.223
 6776TIP3    H241964   7.238   5.956   1.175
 6777TIP3   OH241965   6.473   5.708   0.980
 6777TIP3    H141966   6.459   5.612   0.973
 6777TIP3    H241967   6.385   5.738   1.011
 6778TIP3   OH241968   6.974   7.223   0.745
 6778TIP3    H141969   7.023   7.158   0.690
 6778TIP3    H241970   7.012   7.306   0.715
 6779TIP3   OH241971   7.093   7.034   0.604
 6779TIP3    H141972   7.062   6.966   0.542
 6779TIP3    H241973   7.097   6.985   0.689
 6780TIP3   OH241974   7.229   6.909   1.460
 6780TIP3    H141975   7.261   6.838   1.402
 6780TIP3    H241976   7.275   6.985   1.419
 6781TIP3   OH241977   6.700   6.588   0.429
 6781TIP3    H141978   6.629   6.643   0.389
 6781TIP3    H241979   6.772   6.597   0.364
 6782TIP3   OH241980   6.708   6.441   0.139
 6782TIP3    H141981   6.780   6.441   0.203
 6782TIP3    H241982   6.740   6.376   0.076
 6783TIP3   OH241983   7.046   6.611   0.522
 6783TIP3    H141984   6.974   6.634   0.584
 6783TIP3    H241985   7.094   6.544   0.577
 6784TIP3   OH241986   7.033   6.421   1.435
 6784TIP3    H141987   7.040   6.503   1.488
 6784TIP3    H241988   6.975   6.456   1.365
 6785TIP3   OH241989   6.209   6.674   0.717
 6785TIP3    H141990   6.177   6.636   0.631
 6785TIP3    H241991   6.270   6.605   0.749
 6786TIP3   OH241992   6.342   7.010   0.983
 6786TIP3    H141993   6.342   6.958   0.902
 6786TIP3    H241994   6.420   6.977   1.030
 6787TIP3   OH241995   6.241   6.549   1.082
 6787TIP3    H141996   6.296   6.558   1.001
 6787TIP3    H241997   6.281   6.615   1.142
 6788TIP3   OH241998   6.879   7.107   1.152
 6788TIP3    H141999   6.851   7.169   1.218
 6788TIP3    H242000   6.857   7.021   1.193
 6789TIP3   OH242001   6.336   6.994   1.554
 6789TIP3    H142002   6.295   7.068   1.603
 6789TIP3    H242003   6.271   6.973   1.484
 6790TIP3   OH242004   6.941   6.523   0.288
 6790TIP3    H142005   6.989   6.548   0.371
 6790TIP3    H242006   6.976   6.582   0.219
 6791TIP3   OH242007   6.029   6.605   1.470
 6791TIP3    H142008   6.039   6.675   1.538
 6791TIP3    H242009   5.937   6.618   1.442
 6792TIP3   OH242010   6.703   7.197   0.642
 6792TIP3    H142011   6.755   7.232   0.714
 6792TIP3    H242012   6.654   7.273   0.610
 6793TIP3   OH242013   6.155   7.197   1.622
 6793TIP3    H142014   6.157   7.183   1.525
 6793TIP3    H242015   6.062   7.180   1.646
 6794TIP3   OH242016   7.282   5.692   0.271
 6794TIP3    H142017   7.195   5.718   0.306
 6794TIP3    H242018   7.316   5.775   0.237
 6795TIP3   OH242019   6.101   6.578   0.483
 6795TIP3    H142020   6.079   6.652   0.421
 6795TIP3    H242021   6.043   6.510   0.450
 6796TIP3   OH242022   5.713   6.820   1.366
 6796TIP3    H142023   5.670   6.812   1.279
 6796TIP3    H242024   5.722   6.725   1.387
 6797TIP3   OH242025   5.696   7.098   1.039
 6797TIP3    H142026   5.791   7.083   1.041
 6797TIP3    H242027   5.685   7.173   1.099
 6798TIP3   OH242028   6.606   7.125   1.492
 6798TIP3    H142029   6.620   7.196   1.555
 6798TIP3    H242030   6.527   7.081   1.529
 6799TIP3   OH242031   7.200   6.319   1.665
 6799TIP3    H142032   7.178   6.357   1.579
 6799TIP3    H242033   7.237   6.232   1.638
 6800TIP3   OH242034   5.943   6.952   1.462
 6800TIP3    H142035   5.966   6.912   1.549
 6800TIP3    H242036   5.858   6.910   1.437
 6801TIP3   OH242037   6.212   5.798   1.055
 6801TIP3    H142038   6.122   5.786   1.018
 6801TIP3    H242039   6.198   5.881   1.104
 6802TIP3   OH242040   6.675   5.764   1.391
 6802TIP3    H142041   6.714   5.724   1.471
 6802TIP3    H242042   6.578   5.754   1.407
 6803TIP3   OH242043   7.000   6.149   1.481
 6803TIP3    H142044   6.949   6.131   1.563
 6803TIP3    H242045   6.986   6.244   1.462
 6804TIP3   OH242046   7.091   6.631   0.074
 6804TIP3    H142047   7.087   6.620  -0.022
 6804TIP3    H242048   7.171   6.683   0.083
 6805TIP3   OH242049   6.641   6.023   0.127
 6805TIP3    H142050   6.608   6.017   0.218
 6805TIP3    H242051   6.613   5.935   0.097
 6806TIP3   OH242052   6.222   6.296   1.183
 6806TIP3    H142053   6.148   6.295   1.246
 6806TIP3    H242054   6.217   6.386   1.144
 6807TIP3   OH242055   6.218   6.307   0.667
 6807TIP3    H142056   6.124   6.282   0.654
 6807TIP3    H242057   6.255   6.280   0.580
 6808TIP3   OH242058   6.772   6.357   0.543
 6808TIP3    H142059   6.730   6.439   0.510
 6808TIP3    H242060   6.839   6.341   0.474
 6809TIP3   OH242061   6.681   6.374   1.681
 6809TIP3    H142062   6.625   6.302   1.718
 6809TIP3    H242063   6.759   6.371   1.740
 6810TIP3   OH242064   6.873   6.309   0.830
 6810TIP3    H142065   6.845   6.364   0.755
 6810TIP3    H242066   6.882   6.223   0.784
 6811TIP3   OH242067   5.983   6.320   1.349
 6811TIP3    H142068   5.994   6.359   1.438
 6811TIP3    H242069   5.940   6.236   1.370
 6812TIP3   OH242070   6.341   6.078   0.066
 6812TIP3    H142071   6.283   6.021   0.120
 6812TIP3    H242072   6.280   6.125   0.008
 6813TIP3   OH242073   5.650   6.031   0.748
 6813TIP3    H142074   5.718   6.027   0.818
 6813TIP3    H242075   5.695   5.994   0.670
 6814TIP3   OH242076   5.781   6.106   0.287
 6814TIP3    H142077   5.830   6.164   0.224
 6814TIP3    H242078   5.710   6.168   0.314
 6815TIP3   OH242079   6.793   6.464   1.283
 6815TIP3    H142080   6.832   6.395   1.226
 6815TIP3    H242081   6.746   6.412   1.351
 6816TIP3   OH242082   6.473   6.063   0.769
 6816TIP3    H142083   6.379   6.063   0.797
 6816TIP3    H242084   6.521   6.045   0.850
 6817TIP3   OH242085   5.954   6.217   0.655
 6817TIP3    H142086   5.865   6.233   0.615
 6817TIP3    H242087   5.982   6.134   0.614
 6818TIP3   OH242088   6.318   6.223   0.418
 6818TIP3    H142089   6.413   6.236   0.433
 6818TIP3    H242090   6.294   6.289   0.349
 6819TIP3   OH242091   6.910   5.984   1.091
 6819TIP3    H142092   6.843   5.990   1.162
 6819TIP3    H242093   6.859   5.962   1.012
 6820TIP3   OH242094   6.196   6.320   0.179
 6820TIP3    H142095   6.132   6.312   0.107
 6820TIP3    H242096   6.268   6.368   0.134
 6821TIP3   OH242097   6.001   6.800   1.683
 6821TIP3    H142098   6.075   6.818   1.743
 6821TIP3    H242099   5.924   6.810   1.743
 6822TIP3   OH242100   6.601   6.338   0.957
 6822TIP3    H142101   6.663   6.285   0.905
 6822TIP3    H242102   6.586   6.283   1.035
 6823TIP3   OH242103   6.102   5.952   0.602
 6823TIP3    H142104   6.071   5.860   0.600
 6823TIP3    H242105   6.181   5.946   0.546
 6824TIP3   OH242106   6.465   6.171   1.198
 6824TIP3    H142107   6.383   6.223   1.207
 6824TIP3    H242108   6.521   6.206   1.271
 6825TIP3   OH242109   6.524   6.799   0.372
 6825TIP3    H142110   6.450   6.743   0.337
 6825TIP3    H242111   6.499   6.805   0.466
 6826TIP3   OH242112   7.228   6.719   1.249
 6826TIP3    H142113   7.292   6.737   1.177
 6826TIP3    H242114   7.145   6.716   1.197
 6827TIP3   OH242115   6.909   6.072   0.187
 6827TIP3    H142116   6.815   6.087   0.169
 6827TIP3    H242117   6.936   6.160   0.218
 6828TIP3   OH242118   6.672   6.823   1.489
 6828TIP3    H142119   6.640   6.777   1.568
 6828TIP3    H242120   6.648   6.914   1.505
 6829TIP3   OH242121   6.981   6.267   0.346
 6829TIP3    H142122   7.067   6.256   0.391
 6829TIP3    H242123   6.987   6.354   0.302
 6830TIP3   OH242124   6.035   6.733   0.948
 6830TIP3    H142125   6.102   6.726   0.877
 6830TIP3    H242126   6.041   6.647   0.993
 6831TIP3   OH242127   6.733   6.941   0.275
 6831TIP3    H142128   6.697   7.026   0.308
 6831TIP3    H242129   6.660   6.880   0.293
 6832TIP3   OH242130   5.735   6.573   1.477
 6832TIP3    H142131   5.749   6.523   1.558
 6832TIP3    H242132   5.672   6.514   1.429
 6833TIP3   OH242133   6.434   6.530   1.690
 6833TIP3    H142134   6.405   6.497   1.604
 6833TIP3    H242135   6.526   6.500   1.694
 6834TIP3   OH242136   6.901   7.074   1.481
 6834TIP3    H142137   6.806   7.078   1.465
 6834TIP3    H242138   6.900   7.088   1.579
 6835TIP3   OH242139   7.275   7.150   0.369
 6835TIP3    H142140   7.258   7.063   0.402
 6835TIP3    H242141   7.323   7.143   0.286
 6836TIP3   OH242142   7.014   6.642   1.079
 6836TIP3    H142143   6.920   6.621   1.063
 6836TIP3    H242144   7.061   6.570   1.034
 6837TIP3   OH242145   6.276   7.075   0.682
 6837TIP3    H142146   6.320   7.158   0.664
 6837TIP3    H242147   6.185   7.097   0.656
 6838TIP3   OH242148   5.837   6.563   0.136
 6838TIP3    H142149   5.910   6.617   0.176
 6838TIP3    H242150   5.756   6.596   0.177
 6839TIP3   OH242151   6.416   6.845   0.640
 6839TIP3    H142152   6.384   6.936   0.647
 6839TIP3    H242153   6.343   6.797   0.683
 6840TIP3   OH242154   6.475   7.239   1.255
 6840TIP3    H142155   6.500   7.332   1.248
 6840TIP3    H242156   6.517   7.218   1.341
 6841TIP3   OH242157   6.249  -0.008   0.558
 6841TIP3    H142158   6.166   0.005   0.604
 6841TIP3    H242159   6.303   0.058   0.609
 6842TIP3   OH242160   6.813   6.862   1.242
 6842TIP3    H142161   6.778   6.841   1.331
 6842TIP3    H242162   6.875   6.789   1.224
 6843TIP3   OH242163   7.042   6.959   0.155
 6843TIP3    H142164   7.070   6.921   0.240
 6843TIP3    H242165   6.946   6.952   0.161
 6844TIP3   OH242166   7.091   7.320   1.492
 6844TIP3    H142167   7.022   7.270   1.445
 6844TIP3    H242168   7.109   7.393   1.430
 6845TIP3   OH242169   5.898   6.045   1.426
 6845TIP3    H142170   5.808   6.083   1.429
 6845TIP3    H242171   5.890   5.965   1.479
 6846TIP3   OH242172   7.123   6.826   0.374
 6846TIP3    H142173   7.097   6.749   0.431
 6846TIP3    H242174   7.215   6.839   0.400
 6847TIP3   OH242175   5.860   7.221   1.272
 6847TIP3    H142176   5.891   7.130   1.275
 6847TIP3    H242177   5.881   7.256   1.360
 6848TIP3   OH242178   6.334   7.034   0.244
 6848TIP3    H142179   6.362   6.977   0.317
 6848TIP3    H242180   6.346   7.124   0.278
 6849TIP3   OH242181   5.961   6.764   0.324
 6849TIP3    H142182   5.900   6.823   0.371
 6849TIP3    H242183   6.025   6.820   0.276
 6850TIP3   OH242184   6.770   6.022   1.325
 6850TIP3    H142185   6.844   6.030   1.388
 6850TIP3    H242186   6.734   5.935   1.347
 6851TIP3   OH242187   6.847   5.980   0.435
 6851TIP3    H142188   6.871   6.027   0.353
 6851TIP3    H242189   6.904   6.024   0.499
 6852TIP3   OH242190   6.615   7.198   0.321
 6852TIP3    H142191   6.530   7.244   0.321
 6852TIP3    H242192   6.667   7.246   0.253
 6853TIP3   OH242193   6.569   6.155   0.515
 6853TIP3    H142194   6.647   6.214   0.518
 6853TIP3    H242195   6.542   6.145   0.608
 6854TIP3   OH242196   6.627   6.259   1.432
 6854TIP3    H142197   6.636   6.316   1.511
 6854TIP3    H242198   6.692   6.189   1.443
 6855TIP3   OH242199   6.651   5.862   0.602
 6855TIP3    H142200   6.623   5.926   0.669
 6855TIP3    H242201   6.722   5.915   0.559
 6856TIP3   OH242202   6.361  -0.034   0.312
 6856TIP3    H142203   6.368   0.051   0.270
 6856TIP3    H242204   6.325  -0.012   0.401
 6857TIP3   OH242205   6.220   5.970   0.281
 6857TIP3    H142206   6.215   6.063   0.313
 6857TIP3    H242207   6.312   5.949   0.306
 6858TIP3   OH242208   7.238   6.038   1.511
 6858TIP3    H142209   7.149   6.078   1.506
 6858TIP3    H242210   7.271   6.050   1.422
 6859TIP3   OH242211   7.106   6.425   0.926
 6859TIP3    H142212   7.023   6.383   0.894
 6859TIP3    H242213   7.145   6.351   0.974
 6860TIP3   OH242214   6.044   7.015   0.181
 6860TIP3    H142215   6.110   7.079   0.209
 6860TIP3    H242216   6.095   6.970   0.111
 6861TIP3   OH242217   5.885   6.284   0.099
 6861TIP3    H142218   5.885   6.381   0.112
 6861TIP3    H242219   5.797   6.268   0.064
 6862TIP3   OH242220   5.959   5.762   0.969
 6862TIP3    H142221   5.940   5.764   0.873
 6862TIP3    H242222   5.920   5.676   0.993
 6863TIP3   OH242223   5.865   7.151   0.592
 6863TIP3    H142224   5.775   7.190   0.582
 6863TIP3    H242225   5.901   7.198   0.516
 6864TIP3   OH242226   6.687   7.281   0.080
 6864TIP3    H142227   6.609   7.225   0.063
 6864TIP3    H242228   6.744   7.238   0.013
 6865TIP3   OH242229   6.908   7.127   1.735
 6865TIP3    H142230   6.856   7.058   1.779
 6865TIP3    H242231   6.966   7.156   1.807
 6866TIP3   OH242232   7.110   7.237   0.029
 6866TIP3    H142233   7.136   7.160   0.081
 6866TIP3    H242234   7.190   7.259  -0.022
 6867TIP3   OH242235   5.769   6.799   1.811
 6867TIP3    H142236   5.782   6.708   1.779
 6867TIP3    H242237   5.694   6.828   1.755
 6868TIP3   OH242238   6.223   6.858   0.006
 6868TIP3    H142239   6.210   6.777   0.061
 6868TIP3    H242240   6.275   6.814  -0.064
 6869TIP3   OH242241   6.449   6.797   1.746
 6869TIP3    H142242   6.400   6.824   1.666
 6869TIP3    H242243   6.443   6.699   1.744
 6870TIP3   OH242244   7.004   6.779   1.484
 6870TIP3    H142245   7.084   6.837   1.480
 6870TIP3    H242246   6.937   6.847   1.494
 6871TIP3   OH242247   6.374   6.602   0.290
 6871TIP3    H142248   6.280   6.587   0.314
 6871TIP3    H242249   6.360   6.570   0.197
 6872TIP3   OH242250   6.249   6.411   1.484
 6872TIP3    H142251   6.192   6.484   1.515
 6872TIP3    H242252   6.289   6.450   1.404
 6873TIP3   OH242253   6.429   6.453   0.072
 6873TIP3    H142254   6.419   6.440  -0.023
 6873TIP3    H242255   6.525   6.465   0.086
 6874TIP3   OH242256   6.753   6.671   1.821
 6874TIP3    H142257   6.849   6.671   1.811
 6874TIP3    H242258   6.737   6.595   1.878
 6875TIP3   OH242259   6.293   6.150   1.589
 6875TIP3    H142260   6.298   6.080   1.522
 6875TIP3    H242261   6.284   6.231   1.535
 6876TIP3   OH242262   6.331   5.990   1.347
 6876TIP3    H142263   6.381   6.036   1.276
 6876TIP3    H242264   6.241   5.982   1.308
 6877TIP3   OH242265   6.483   6.538   1.368
 6877TIP3    H142266   6.560   6.523   1.312
 6877TIP3    H242267   6.448   6.623   1.338
 6878TIP3   OH242268   6.921   6.315   1.865
 6878TIP3    H142269   6.950   6.223   1.864
 6878TIP3    H242270   7.008   6.357   1.866
 6879TIP3   OH242271   7.050   6.592   1.679
 6879TIP3    H142272   7.031   6.668   1.622
 6879TIP3    H242273   7.148   6.592   1.671
 6880TIP3   OH242274   6.131   6.278   1.776
 6880TIP3    H142275   6.058   6.216   1.764
 6880TIP3    H242276   6.201   6.239   1.721
 6881TIP3   OH242277   6.409   5.733   1.383
 6881TIP3    H142278   6.390   5.830   1.374
 6881TIP3    H242279   6.333   5.696   1.334
 6882TIP3   OH242280   6.539   6.155   1.745
 6882TIP3    H142281   6.503   6.157   1.833
 6882TIP3    H242282   6.457   6.149   1.691
 6883TIP3   OH242283   6.804   6.077   1.655
 6883TIP3    H142284   6.709   6.085   1.671
 6883TIP3    H242285   6.837   6.016   1.724
 6884TIP3   OH242286   6.966   5.943   1.851
 6884TIP3    H142287   6.961   5.845   1.850
 6884TIP3    H242288   6.943   5.969   1.941
 6885TIP3   OH242289   5.944   6.069   1.756
 6885TIP3    H142290   5.966   5.995   1.697
 6885TIP3    H242291   5.940   6.026   1.844
 6886TIP3   OH242292   6.432   5.670   1.658
 6886TIP3    H142293   6.500   5.602   1.648
 6886TIP3    H242294   6.417   5.690   1.563
 6887TIP3   OH242295   5.770   6.982   0.131
 6887TIP3    H142296   5.866   6.993   0.152
 6887TIP3    H242297   5.778   6.922   0.056
 6888TIP3   OH242298   5.718   7.333   0.814
 6888TIP3    H142299   5.688   7.244   0.837
 6888TIP3    H242300   5.747   7.367   0.899
 6889TIP3   OH242301   7.263   6.963   1.855
 6889TIP3    H142302   7.188   6.940   1.912
 6889TIP3    H242303   7.318   7.018   1.914
 6890TIP3   OH242304   7.279   7.143   1.335
 6890TIP3    H142305   7.212   7.183   1.392
 6890TIP3    H242306   7.227   7.105   1.260
 6891TIP3   OH242307   7.308   6.294   0.095
 6891TIP3    H142308   7.330   6.358   0.025
 6891TIP3    H242309   7.292   6.210   0.049
 6892TIP3   OH242310   7.197   6.440   0.661
 6892TIP3    H142311   7.212   6.344   0.664
 6892TIP3    H242312   7.196   6.461   0.756
 6893TIP3   OH242313   5.735   6.643   1.064
 6893TIP3    H142314   5.752   6.634   0.967
 6893TIP3    H242315   5.824   6.625   1.099
 6894TIP3   OH242316  -0.033   6.634   1.652
 6894TIP3    H142317   0.026   6.557   1.655
 6894TIP3    H242318   0.024   6.707   1.623
 6895TIP3   OH242319   7.233   6.041   0.009
 6895TIP3    H142320   7.298   5.995   0.065
 6895TIP3    H242321   7.152   5.992   0.025
 6896TIP3   OH242322   7.198   6.189   0.493
 6896TIP3    H142323   7.227   6.103   0.528
 6896TIP3    H242324   7.278   6.225   0.454
 6897TIP3   OH242325   7.224   6.195   1.043
 6897TIP3    H142326   7.318   6.207   1.025
 6897TIP3    H242327   7.225   6.245   1.126
 6898TIP3   OH242328   7.268   6.320   1.340
 6898TIP3    H142329   7.179   6.351   1.362
 6898TIP3    H242330   7.309   6.397   1.296
 6899TIP3   OH242331   5.694   6.172   1.678
 6899TIP3    H142332   5.787   6.151   1.699
 6899TIP3    H242333   5.650   6.090   1.708
 6900TIP3   OH242334   7.187   5.901   0.562
 6900TIP3    H142335   7.275   5.874   0.595
 6900TIP3    H242336   7.183   5.847   0.480
 6901TIP3   OH242337   5.815   6.001   0.967
 6901TIP3    H142338   5.865   5.919   0.988
 6901TIP3    H242339   5.871   6.070   1.003
 6902TIP3   OH242340   5.644   6.302   1.068
 6902TIP3    H142341   5.701   6.277   0.992
 6902TIP3    H242342   5.692   6.382   1.095
 6903TIP3   OH242343   5.680   5.927   0.473
 6903TIP3    H142344   5.585   5.947   0.462
 6903TIP3    H242345   5.722   5.978   0.401
 6904TIP3   OH242346   5.667   5.788   1.299
 6904TIP3    H142347   5.618   5.783   1.383
 6904TIP3    H242348   5.636   5.868   1.253
 6905TIP3   OH242349   5.895   7.117   1.722
 6905TIP3    H142350   5.811   7.136   1.675
 6905TIP3    H242351   5.865   7.106   1.813
 6906TIP3   OH242352   6.193   7.213   1.355
 6906TIP3    H142353   6.149   7.290   1.317
 6906TIP3    H242354   6.281   7.216   1.314
 6907TIP3   OH242355   6.080   7.260   0.888
 6907TIP3    H142356   6.066   7.173   0.928
 6907TIP3    H242357   6.157   7.285   0.946
 6908TIP3   OH242358   6.299   7.265   1.016
 6908TIP3    H142359   6.362   7.204   0.973
 6908TIP3    H242360   6.345   7.304   1.091
 6909TIP3   OH242361   6.691   5.887   0.909
 6909TIP3    H142362   6.624   5.823   0.937
 6909TIP3    H242363   6.747   5.833   0.851
 6910TIP3   OH242364   7.207   5.690   0.918
 6910TIP3    H142365   7.261   5.755   0.873
 6910TIP3    H242366   7.117   5.724   0.896
 6911TIP3   OH242367   5.929   5.749   0.694
 6911TIP3    H142368   5.849   5.730   0.641
 6911TIP3    H242369   5.974   5.663   0.688
 6912TIP3   OH242370   5.802   5.725   0.265
 6912TIP3    H142371   5.854   5.789   0.212
 6912TIP3    H242372   5.749   5.783   0.322
 6913TIP3   OH242373   6.375   5.742   0.673
 6913TIP3    H142374   6.465   5.778   0.665
 6913TIP3    H242375   6.372   5.720   0.766
 6914TIP3   OH242376   6.952   5.740   0.833
 6914TIP3    H142377   6.943   5.756   0.738
 6914TIP3    H242378   6.908   5.653   0.847
 6915TIP3   OH242379   7.065   5.741   0.393
 6915TIP3    H142380   6.994   5.806   0.388
 6915TIP3    H242381   7.021   5.658   0.424
 6916TIP3   OH242382   5.774  -0.043   0.405
 6916TIP3    H142383   5.737  -0.043   0.314
 6916TIP3    H242384   5.805   0.047   0.409
 6917TIP3   OH242385   5.987   5.912   0.117
 6917TIP3    H142386   6.043   5.854   0.066
 6917TIP3    H242387   6.052   5.953   0.177
 6918TIP3   OH242388   6.491   5.944   0.358
 6918TIP3    H142389   6.518   5.887   0.432
 6918TIP3    H242390   6.498   6.031   0.404
 6919TIP3   OH242391   5.916   5.804   1.640
 6919TIP3    H142392   5.880   5.724   1.684
 6919TIP3    H242393   6.008   5.799   1.674
 6920TIP3   OH242394   6.119   5.741   1.805
 6920TIP3    H142395   6.207   5.709   1.776
 6920TIP3    H242396   6.081   5.659   1.843
 6921TIP3   OH242397   6.959   5.671   1.814
 6921TIP3    H142398   6.969   5.630   1.903
 6921TIP3    H242399   7.051   5.668   1.780
 6922TIP3   OH242400   7.275   7.274   1.697
 6922TIP3    H142401   7.205   7.255   1.630
 6922TIP3    H242402   7.274   7.370   1.699
 6923TIP3   OH242403   0.662   0.420   1.929
 6923TIP3    H142404   0.628   0.355   1.993
 6923TIP3    H242405   0.592   0.433   1.865
 6924TIP3   OH242406   0.110   0.441   2.165
 6924TIP3    H142407   0.168   0.507   2.123
 6924TIP3    H242408   0.048   0.501   2.208
 6925TIP3   OH242409   0.528   0.684   2.058
 6925TIP3    H142410   0.483   0.640   1.988
 6925TIP3    H242411   0.613   0.700   2.018
 6926TIP3   OH242412   1.073   1.288   2.152
 6926TIP3    H142413   1.045   1.369   2.196
 6926TIP3    H242414   1.007   1.225   2.181
 6927TIP3   OH242415   0.188   0.911   2.019
 6927TIP3    H142416   0.250   0.968   2.072
 6927TIP3    H242417   0.106   0.937   2.063
 6928TIP3   OH242418   0.319   1.095   2.167
 6928TIP3    H142419   0.264   1.131   2.238
 6928TIP3    H242420   0.384   1.168   2.158
 6929TIP3   OH242421   0.381   1.367   2.049
 6929TIP3    H142422   0.448   1.417   2.100
 6929TIP3    H242423   0.441   1.308   2.000
 6930TIP3   OH242424   0.197   0.644   2.040
 6930TIP3    H142425   0.209   0.740   2.025
 6930TIP3    H242426   0.119   0.619   1.986
 6931TIP3   OH242427   1.001   1.604   1.894
 6931TIP3    H142428   0.933   1.545   1.929
 6931TIP3    H242429   1.074   1.545   1.873
 6932TIP3   OH242430   1.459   1.586   1.916
 6932TIP3    H142431   1.484   1.506   1.963
 6932TIP3    H242432   1.533   1.600   1.856
 6933TIP3   OH242433   1.091   1.286   1.876
 6933TIP3    H142434   1.063   1.297   1.969
 6933TIP3    H242435   1.071   1.191   1.862
 6934TIP3   OH242436   0.116   1.337   2.000
 6934TIP3    H142437   0.207   1.339   2.038
 6934TIP3    H242438   0.125   1.258   1.945
 6935TIP3   OH242439   1.590   0.375   1.890
 6935TIP3    H142440   1.645   0.339   1.959
 6935TIP3    H242441   1.500   0.343   1.904
 6936TIP3   OH242442   0.189   0.076   2.157
 6936TIP3    H142443   0.202   0.145   2.094
 6936TIP3    H242444   0.115   0.109   2.212
 6937TIP3   OH242445   0.342   0.277   1.991
 6937TIP3    H142446   0.385   0.198   1.950
 6937TIP3    H242447   0.392   0.287   2.073
 6938TIP3   OH242448   3.185   1.755   2.065
 6938TIP3    H142449   3.237   1.686   2.021
 6938TIP3    H242450   3.195   1.732   2.158
 6939TIP3   OH242451   3.297   0.987   1.946
 6939TIP3    H142452   3.310   0.951   1.855
 6939TIP3    H242453   3.391   1.004   1.965
 6940TIP3   OH242454   2.552   0.402   1.918
 6940TIP3    H142455   2.514   0.365   1.998
 6940TIP3    H242456   2.482   0.451   1.875
 6941TIP3   OH242457   2.070   0.898   2.041
 6941TIP3    H142458   2.139   0.960   2.069
 6941TIP3    H242459   1.989   0.949   2.051
 6942TIP3   OH242460   3.271   1.307   2.036
 6942TIP3    H142461   3.308   1.265   2.115
 6942TIP3    H242462   3.176   1.293   2.046
 6943TIP3   OH242463   2.579   1.648   2.200
 6943TIP3    H142464   2.593   1.729   2.153
 6943TIP3    H242465   2.561   1.676   2.291
 6944TIP3   OH242466   2.878   1.604   1.891
 6944TIP3    H142467   2.820   1.540   1.936
 6944TIP3    H242468   2.956   1.550   1.876
 6945TIP3   OH242469   2.431   1.171   1.895
 6945TIP3    H142470   2.448   1.098   1.956
 6945TIP3    H242471   2.511   1.163   1.840
 6946TIP3   OH242472   2.660   0.803   1.961
 6946TIP3    H142473   2.636   0.781   1.869
 6946TIP3    H242474   2.754   0.802   1.961
 6947TIP3   OH242475   2.033   0.072   2.153
 6947TIP3    H142476   2.083   0.135   2.100
 6947TIP3    H242477   1.968   0.125   2.200
 6948TIP3   OH242478   2.219   0.267   2.005
 6948TIP3    H142479   2.269   0.204   1.948
 6948TIP3    H242480   2.287   0.293   2.069
 6949TIP3   OH242481   2.202   1.755   1.944
 6949TIP3    H142482   2.181   1.785   2.034
 6949TIP3    H242483   2.284   1.704   1.962
 6950TIP3   OH242484   5.385   0.038   2.125
 6950TIP3    H142485   5.324   0.055   2.196
 6950TIP3    H242486   5.445   0.113   2.127
 6951TIP3   OH242487   5.534   1.496   1.985
 6951TIP3    H142488   5.549   1.582   2.024
 6951TIP3    H242489   5.621   1.456   2.002
 6952TIP3   OH242490   4.760   0.362   2.006
 6952TIP3    H142491   4.716   0.369   2.093
 6952TIP3    H242492   4.720   0.279   1.977
 6953TIP3   OH242493   5.159   1.304   2.033
 6953TIP3    H142494   5.188   1.272   2.118
 6953TIP3    H242495   5.063   1.303   2.044
 6954TIP3   OH242496   4.569   1.421   1.887
 6954TIP3    H142497   4.581   1.348   1.823
 6954TIP3    H242498   4.535   1.368   1.959
 6955TIP3   OH242499   3.993   0.627   1.966
 6955TIP3    H142500   3.998   0.713   2.012
 6955TIP3    H242501   3.900   0.613   1.958
 6956TIP3   OH242502   5.232   1.590   1.915
 6956TIP3    H142503   5.252   1.509   1.964
 6956TIP3    H242504   5.309   1.598   1.857
 6957TIP3   OH242505   4.327   1.180   1.908
 6957TIP3    H142506   4.321   1.094   1.953
 6957TIP3    H242507   4.390   1.162   1.836
 6958TIP3   OH242508   4.867   1.279   1.880
 6958TIP3    H142509   4.830   1.301   1.965
 6958TIP3    H242510   4.839   1.187   1.863
 6959TIP3   OH242511   3.887   1.316   2.014
 6959TIP3    H142512   3.979   1.342   2.033
 6959TIP3    H242513   3.893   1.261   1.933
 6960TIP3   OH242514   6.705   0.780   2.015
 6960TIP3    H142515   6.775   0.786   2.083
 6960TIP3    H242516   6.743   0.713   1.957
 6961TIP3   OH242517   6.935   0.864   2.181
 6961TIP3    H142518   6.994   0.885   2.255
 6961TIP3    H242519   6.974   0.913   2.106
 6962TIP3   OH242520   7.271   0.042   2.138
 6962TIP3    H142521   7.200   0.059   2.203
 6962TIP3    H242522   7.317   0.125   2.127
 6963TIP3   OH242523   7.076   0.979   1.949
 6963TIP3    H142524   7.079   0.947   1.856
 6963TIP3    H242525   7.167   1.007   1.959
 6964TIP3   OH242526   6.630   0.364   1.999
 6964TIP3    H142527   6.614   0.367   2.094
 6964TIP3    H242528   6.606   0.273   1.975
 6965TIP3   OH242529   6.323   0.407   1.922
 6965TIP3    H142530   6.278   0.362   1.993
 6965TIP3    H242531   6.252   0.445   1.869
 6966TIP3   OH242532   6.181   0.681   2.063
 6966TIP3    H142533   6.140   0.644   1.984
 6966TIP3    H242534   6.268   0.703   2.025
 6967TIP3   OH242535   6.911   0.429   2.066
 6967TIP3    H142536   6.815   0.437   2.056
 6967TIP3    H242537   6.938   0.512   2.104
 6968TIP3   OH242538   6.733   1.288   2.149
 6968TIP3    H142539   6.705   1.366   2.198
 6968TIP3    H242540   6.667   1.222   2.177
 6969TIP3   OH242541   7.111   1.580   1.919
 6969TIP3    H142542   7.150   1.510   1.971
 6969TIP3    H242543   7.184   1.602   1.858
 6970TIP3   OH242544   6.206   1.175   1.894
 6970TIP3    H142545   6.217   1.104   1.959
 6970TIP3    H242546   6.283   1.161   1.837
 6971TIP3   OH242547   6.757   1.282   1.878
 6971TIP3    H142548   6.711   1.291   1.964
 6971TIP3    H242549   6.722   1.191   1.857
 6972TIP3   OH242550   6.321   0.974   2.137
 6972TIP3    H142551   6.276   0.919   2.200
 6972TIP3    H242552   6.356   0.909   2.073
 6973TIP3   OH242553   6.424   0.793   1.961
 6973TIP3    H142554   6.412   0.787   1.864
 6973TIP3    H242555   6.521   0.803   1.968
 6974TIP3   OH242556   7.286   0.638   1.973
 6974TIP3    H142557   7.316   0.700   1.907
 6974TIP3    H242558   7.287   0.551   1.927
 6975TIP3   OH242559   7.250   0.381   1.893
 6975TIP3    H142560   7.296   0.334   1.963
 6975TIP3    H242561   7.160   0.341   1.901
 6976TIP3   OH242562   5.992   0.258   1.985
 6976TIP3    H142563   6.050   0.198   1.936
 6976TIP3    H242564   6.046   0.286   2.061
 6977TIP3   OH242565   5.984   1.758   1.946
 6977TIP3    H142566   5.952   1.790   2.032
 6977TIP3    H242567   6.059   1.702   1.969
 6978TIP3   OH242568   1.054   2.665   2.016
 6978TIP3    H142569   1.127   2.672   2.080
 6978TIP3    H242570   1.093   2.605   1.951
 6979TIP3   OH242571   1.774   3.366   1.974
 6979TIP3    H142572   1.766   3.452   2.022
 6979TIP3    H242573   1.860   3.337   2.008
 6980TIP3   OH242574   0.669   2.285   1.917
 6980TIP3    H142575   0.624   2.251   1.996
 6980TIP3    H242576   0.597   2.334   1.874
 6981TIP3   OH242577   1.379   3.186   2.029
 6981TIP3    H142578   1.420   3.163   2.114
 6981TIP3    H242579   1.287   3.183   2.051
 6982TIP3   OH242580   1.832   3.636   2.057
 6982TIP3    H142581   1.906   3.696   2.045
 6982TIP3    H242582   1.762   3.691   2.093
 6983TIP3   OH242583   0.799   3.305   1.886
 6983TIP3    H142584   0.807   3.232   1.822
 6983TIP3    H242585   0.758   3.257   1.958
 6984TIP3   OH242586   0.564   2.205   2.160
 6984TIP3    H142587   0.556   2.295   2.194
 6984TIP3    H242588   0.652   2.176   2.188
 6985TIP3   OH242589   0.386   3.248   2.058
 6985TIP3    H142590   0.451   3.306   2.099
 6985TIP3    H242591   0.442   3.194   2.000
 6986TIP3   OH242592   0.545   3.059   1.903
 6986TIP3    H142593   0.564   2.982   1.959
 6986TIP3    H242594   0.618   3.048   1.838
 6987TIP3   OH242595   0.774   2.683   1.962
 6987TIP3    H142596   0.752   2.676   1.868
 6987TIP3    H242597   0.870   2.691   1.965
 6988TIP3   OH242598   0.124   3.218   2.017
 6988TIP3    H142599   0.219   3.225   2.039
 6988TIP3    H242600   0.122   3.151   1.947
 6989TIP3   OH242601   0.334   2.151   2.001
 6989TIP3    H142602   0.392   2.093   1.949
 6989TIP3    H242603   0.399   2.185   2.066
 6990TIP3   OH242604   1.019   3.662   2.085
 6990TIP3    H142605   1.105   3.706   2.075
 6990TIP3    H242606   0.998   3.637   1.997
 6991TIP3   OH242607   3.305   2.865   1.945
 6991TIP3    H142608   3.310   2.836   1.852
 6991TIP3    H242609   3.395   2.895   1.964
 6992TIP3   OH242610   3.707   2.510   2.206
 6992TIP3    H142611   3.642   2.479   2.140
 6992TIP3    H242612   3.703   2.604   2.185
 6993TIP3   OH242613   2.071   2.792   2.033
 6993TIP3    H142614   2.137   2.853   2.070
 6993TIP3    H242615   1.986   2.829   2.057
 6994TIP3   OH242616   3.271   3.197   2.034
 6994TIP3    H142617   3.307   3.149   2.109
 6994TIP3    H242618   3.177   3.177   2.036
 6995TIP3   OH242619   2.692   3.304   1.887
 6995TIP3    H142620   2.694   3.229   1.825
 6995TIP3    H242621   2.644   3.263   1.962
 6996TIP3   OH242622   2.574   3.260   2.130
 6996TIP3    H142623   2.587   3.205   2.209
 6996TIP3    H242624   2.574   3.351   2.166
 6997TIP3   OH242625   2.583   3.527   2.200
 6997TIP3    H142626   2.596   3.610   2.150
 6997TIP3    H242627   2.562   3.564   2.287
 6998TIP3   OH242628   2.271   3.252   2.056
 6998TIP3    H142629   2.339   3.306   2.098
 6998TIP3    H242630   2.328   3.196   2.002
 6999TIP3   OH242631   2.106   2.510   1.972
 6999TIP3    H142632   2.101   2.603   2.001
 6999TIP3    H242633   2.015   2.490   1.952
 7000TIP3   OH242634   2.886   3.489   1.896
 7000TIP3    H142635   2.818   3.424   1.921
 7000TIP3    H242636   2.961   3.432   1.871
 7001TIP3   OH242637   3.340   3.463   1.916
 7001TIP3    H142638   3.372   3.390   1.970
 7001TIP3    H242639   3.415   3.489   1.861
 7002TIP3   OH242640   2.980   3.168   1.885
 7002TIP3    H142641   2.933   3.179   1.967
 7002TIP3    H242642   2.955   3.075   1.862
 7003TIP3   OH242643   2.660   2.664   1.960
 7003TIP3    H142644   2.634   2.678   1.866
 7003TIP3    H242645   2.749   2.697   1.961
 7004TIP3   OH242646   3.593   2.912   1.902
 7004TIP3    H142647   3.573   2.878   1.815
 7004TIP3    H242648   3.602   3.009   1.889
 7005TIP3   OH242649   1.997   3.212   2.008
 7005TIP3    H142650   2.091   3.225   2.036
 7005TIP3    H242651   2.006   3.144   1.940
 7006TIP3   OH242652   3.563   2.520   1.973
 7006TIP3    H142653   3.553   2.591   1.909
 7006TIP3    H242654   3.527   2.442   1.928
 7007TIP3   OH242655   3.470   2.269   1.894
 7007TIP3    H142656   3.532   2.223   1.955
 7007TIP3    H242657   3.388   2.221   1.907
 7008TIP3   OH242658   3.676   2.158   2.042
 7008TIP3    H142659   3.715   2.077   2.001
 7008TIP3    H242660   3.752   2.215   2.053
 7009TIP3   OH242661   2.917   3.669   2.089
 7009TIP3    H142662   2.997   3.718   2.066
 7009TIP3    H242663   2.890   3.630   2.004
 7010TIP3   OH242664   2.203   3.647   1.945
 7010TIP3    H142665   2.180   3.670   2.036
 7010TIP3    H242666   2.283   3.593   1.961
 7011TIP3   OH242667   5.195   2.856   1.946
 7011TIP3    H142668   5.194   2.836   1.850
 7011TIP3    H242669   5.275   2.902   1.961
 7012TIP3   OH242670   4.301   2.571   2.061
 7012TIP3    H142671   4.243   2.532   1.993
 7012TIP3    H242672   4.379   2.592   2.012
 7013TIP3   OH242673   5.099   2.486   2.224
 7013TIP3    H142674   5.182   2.482   2.275
 7013TIP3    H242675   5.102   2.576   2.189
 7014TIP3   OH242676   4.838   3.174   2.142
 7014TIP3    H142677   4.816   3.255   2.190
 7014TIP3    H242678   4.785   3.108   2.187
 7015TIP3   OH242679   3.960   2.789   2.037
 7015TIP3    H142680   4.020   2.857   2.070
 7015TIP3    H242681   3.872   2.826   2.050
 7016TIP3   OH242682   5.162   3.193   2.037
 7016TIP3    H142683   5.185   3.149   2.120
 7016TIP3    H242684   5.065   3.182   2.043
 7017TIP3   OH242685   4.335   2.204   2.156
 7017TIP3    H142686   4.322   2.289   2.201
 7017TIP3    H242687   4.419   2.174   2.192
 7018TIP3   OH242688   4.164   3.245   2.068
 7018TIP3    H142689   4.225   3.314   2.096
 7018TIP3    H242690   4.209   3.203   1.994
 7019TIP3   OH242691   3.997   2.514   1.977
 7019TIP3    H142692   3.990   2.608   2.004
 7019TIP3    H242693   3.906   2.489   1.957
 7020TIP3   OH242694   5.228   3.467   1.916
 7020TIP3    H142695   5.254   3.388   1.964
 7020TIP3    H242696   5.302   3.489   1.859
 7021TIP3   OH242697   4.860   3.169   1.874
 7021TIP3    H142698   4.836   3.181   1.969
 7021TIP3    H242699   4.839   3.074   1.861
 7022TIP3   OH242700   4.528   3.758   2.069
 7022TIP3    H142701   4.626   3.761   2.074
 7022TIP3    H242702   4.515   3.813   1.991
 7023TIP3   OH242703   5.440   2.526   1.977
 7023TIP3    H142704   5.437   2.588   1.906
 7023TIP3    H242705   5.416   2.441   1.934
 7024TIP3   OH242706   5.342   2.283   1.911
 7024TIP3    H142707   5.417   2.232   1.945
 7024TIP3    H242708   5.269   2.220   1.908
 7025TIP3   OH242709   3.920   1.961   2.154
 7025TIP3    H142710   3.967   2.022   2.098
 7025TIP3    H242711   3.855   2.011   2.202
 7026TIP3   OH242712   4.105   2.147   2.006
 7026TIP3    H142713   4.158   2.090   1.947
 7026TIP3    H242714   4.173   2.182   2.067
 7027TIP3   OH242715   4.092   3.648   1.945
 7027TIP3    H142716   4.060   3.670   2.032
 7027TIP3    H242717   4.168   3.589   1.958
 7028TIP3   OH242718   6.706   2.666   2.010
 7028TIP3    H142719   6.768   2.670   2.085
 7028TIP3    H242720   6.751   2.601   1.955
 7029TIP3   OH242721   6.953   3.636   2.068
 7029TIP3    H142722   7.007   3.569   2.020
 7029TIP3    H242723   6.971   3.617   2.161
 7030TIP3   OH242724   7.081   2.859   1.951
 7030TIP3    H142725   7.081   2.836   1.855
 7030TIP3    H242726   7.165   2.903   1.959
 7031TIP3   OH242727   6.636   2.249   2.007
 7031TIP3    H142728   6.611   2.247   2.101
 7031TIP3    H242729   6.615   2.159   1.980
 7032TIP3   OH242730   5.770   2.335   2.164
 7032TIP3    H142731   5.827   2.397   2.117
 7032TIP3    H242732   5.703   2.388   2.209
 7033TIP3   OH242733   6.184   2.575   2.058
 7033TIP3    H142734   6.133   2.528   1.991
 7033TIP3    H242735   6.268   2.597   2.016
 7034TIP3   OH242736   6.907   2.296   2.066
 7034TIP3    H142737   6.813   2.318   2.061
 7034TIP3    H242738   6.939   2.379   2.112
 7035TIP3   OH242739   6.980   2.490   2.216
 7035TIP3    H142740   7.059   2.489   2.274
 7035TIP3    H242741   6.991   2.581   2.190
 7036TIP3   OH242742   7.046   3.188   2.037
 7036TIP3    H142743   7.074   3.156   2.124
 7036TIP3    H242744   6.950   3.183   2.047
 7037TIP3   OH242745   6.041   3.242   2.064
 7037TIP3    H142746   6.101   3.312   2.096
 7037TIP3    H242747   6.098   3.199   1.997
 7038TIP3   OH242748   5.881   2.517   1.964
 7038TIP3    H142749   5.875   2.603   2.008
 7038TIP3    H242750   5.789   2.489   1.954
 7039TIP3   OH242751   7.108   3.467   1.914
 7039TIP3    H142752   7.142   3.395   1.969
 7039TIP3    H242753   7.187   3.488   1.861
 7040TIP3   OH242754   6.206   3.063   1.902
 7040TIP3    H142755   6.214   2.983   1.955
 7040TIP3    H242756   6.278   3.048   1.837
 7041TIP3   OH242757   6.750   3.166   1.882
 7041TIP3    H142758   6.714   3.177   1.969
 7041TIP3    H242759   6.725   3.073   1.861
 7042TIP3   OH242760   6.427   2.665   1.959
 7042TIP3    H142761   6.412   2.681   1.864
 7042TIP3    H242762   6.521   2.691   1.972
 7043TIP3   OH242763   6.416   3.749   2.059
 7043TIP3    H142764   6.507   3.770   2.084
 7043TIP3    H242765   6.399   3.818   1.995
 7044TIP3   OH242766   5.766   3.208   2.016
 7044TIP3    H142767   5.860   3.228   2.035
 7044TIP3    H242768   5.779   3.149   1.939
 7045TIP3   OH242769   7.305   2.524   1.977
 7045TIP3    H142770   7.326   2.583   1.906
 7045TIP3    H242771   7.301   2.439   1.931
 7046TIP3   OH242772   7.246   2.258   1.884
 7046TIP3    H142773   7.299   2.227   1.956
 7046TIP3    H242774   7.157   2.227   1.908
 7047TIP3   OH242775   1.301   5.531   2.068
 7047TIP3    H142776   1.345   5.460   2.017
 7047TIP3    H242777   1.302   5.499   2.158
 7048TIP3   OH242778   0.666   4.173   1.924
 7048TIP3    H142779   0.621   4.133   1.998
 7048TIP3    H242780   0.597   4.219   1.875
 7049TIP3   OH242781   0.138   4.250   2.189
 7049TIP3    H142782   0.160   4.285   2.101
 7049TIP3    H242783   0.043   4.273   2.193
 7050TIP3   OH242784   1.072   5.052   2.154
 7050TIP3    H142785   1.049   5.138   2.192
 7050TIP3    H242786   0.997   4.997   2.178
 7051TIP3   OH242787   1.825   5.521   2.051
 7051TIP3    H142788   1.908   5.569   2.046
 7051TIP3    H242789   1.758   5.578   2.089
 7052TIP3   OH242790   0.803   5.190   1.885
 7052TIP3    H142791   0.808   5.115   1.825
 7052TIP3    H242792   0.756   5.149   1.960
 7053TIP3   OH242793   0.702   5.144   2.129
 7053TIP3    H142794   0.696   5.093   2.209
 7053TIP3    H242795   0.674   5.232   2.159
 7054TIP3   OH242796   0.999   5.377   1.895
 7054TIP3    H142797   0.930   5.313   1.923
 7054TIP3    H242798   1.074   5.320   1.872
 7055TIP3   OH242799   1.453   5.348   1.915
 7055TIP3    H142800   1.494   5.278   1.968
 7055TIP3    H242801   1.530   5.377   1.861
 7056TIP3   OH242802   0.551   4.949   1.900
 7056TIP3    H142803   0.553   4.870   1.956
 7056TIP3    H242804   0.622   4.932   1.837
 7057TIP3   OH242805   1.100   5.052   1.878
 7057TIP3    H142806   1.058   5.072   1.964
 7057TIP3    H242807   1.060   4.966   1.859
 7058TIP3   OH242808   0.674   4.744   2.140
 7058TIP3    H142809   0.615   4.697   2.200
 7058TIP3    H242810   0.688   4.676   2.070
 7059TIP3   OH242811   0.774   4.569   1.963
 7059TIP3    H142812   0.751   4.555   1.869
 7059TIP3    H242813   0.868   4.575   1.959
 7060TIP3   OH242814   0.758   5.635   2.061
 7060TIP3    H142815   0.853   5.646   2.079
 7060TIP3    H242816   0.745   5.704   1.996
 7061TIP3   OH242817   1.592   4.148   1.890
 7061TIP3    H142818   1.651   4.118   1.960
 7061TIP3    H242819   1.510   4.106   1.911
 7062TIP3   OH242820   1.799   4.031   2.051
 7062TIP3    H142821   1.836   3.964   1.991
 7062TIP3    H242822   1.853   4.110   2.045
 7063TIP3   OH242823   0.180   3.843   2.046
 7063TIP3    H142824   0.214   3.927   2.078
 7063TIP3    H242825   0.122   3.837   2.129
 7064TIP3   OH242826   0.346   4.060   1.988
 7064TIP3    H142827   0.378   3.977   1.952
 7064TIP3    H242828   0.392   4.067   2.072
 7065TIP3   OH242829   1.026   5.577   2.080
 7065TIP3    H142830   1.121   5.588   2.065
 7065TIP3    H242831   1.004   5.511   2.011
 7066TIP3   OH242832   2.944   4.563   2.011
 7066TIP3    H142833   3.010   4.554   2.082
 7066TIP3    H242834   2.975   4.490   1.954
 7067TIP3   OH242835   3.647   5.253   1.994
 7067TIP3    H142836   3.660   5.345   2.015
 7067TIP3    H242837   3.739   5.219   1.997
 7068TIP3   OH242838   3.308   4.748   1.950
 7068TIP3    H142839   3.307   4.726   1.854
 7068TIP3    H242840   3.396   4.786   1.961
 7069TIP3   OH242841   2.547   4.169   1.910
 7069TIP3    H142842   2.512   4.130   1.992
 7069TIP3    H242843   2.475   4.216   1.867
 7070TIP3   OH242844   2.423   4.451   2.062
 7070TIP3    H142845   2.372   4.419   1.986
 7070TIP3    H242846   2.503   4.479   2.015
 7071TIP3   OH242847   3.704   4.397   2.206
 7071TIP3    H142848   3.646   4.373   2.133
 7071TIP3    H242849   3.712   4.492   2.186
 7072TIP3   OH242850   3.276   5.079   2.037
 7072TIP3    H142851   3.304   5.037   2.118
 7072TIP3    H242852   3.180   5.064   2.042
 7073TIP3   OH242853   2.689   5.187   1.885
 7073TIP3    H142854   2.694   5.110   1.826
 7073TIP3    H242855   2.642   5.150   1.963
 7074TIP3   OH242856   2.572   5.141   2.127
 7074TIP3    H142857   2.581   5.092   2.209
 7074TIP3    H242858   2.573   5.234   2.161
 7075TIP3   OH242859   2.217   4.868   2.184
 7075TIP3    H142860   2.145   4.909   2.232
 7075TIP3    H242861   2.265   4.946   2.151
 7076TIP3   OH242862   2.847   5.308   2.203
 7076TIP3    H142863   2.764   5.359   2.211
 7076TIP3    H242864   2.896   5.364   2.141
 7077TIP3   OH242865   2.589   5.415   2.201
 7077TIP3    H142866   2.580   5.496   2.146
 7077TIP3    H242867   2.557   5.451   2.285
 7078TIP3   OH242868   2.278   5.129   2.066
 7078TIP3    H142869   2.342   5.195   2.094
 7078TIP3    H242870   2.327   5.085   1.995
 7079TIP3   OH242871   2.889   5.375   1.899
 7079TIP3    H142872   2.816   5.312   1.921
 7079TIP3    H242873   2.960   5.317   1.871
 7080TIP3   OH242874   3.343   5.354   1.920
 7080TIP3    H142875   3.372   5.274   1.966
 7080TIP3    H242876   3.417   5.373   1.860
 7081TIP3   OH242877   2.433   4.947   1.898
 7081TIP3    H142878   2.441   4.869   1.954
 7081TIP3    H242879   2.507   4.934   1.837
 7082TIP3   OH242880   2.982   5.056   1.883
 7082TIP3    H142881   2.938   5.070   1.966
 7082TIP3    H242882   2.957   4.962   1.862
 7083TIP3   OH242883   2.657   4.564   1.962
 7083TIP3    H142884   2.642   4.560   1.865
 7083TIP3    H242885   2.754   4.576   1.964
 7084TIP3   OH242886   3.593   4.802   1.906
 7084TIP3    H142887   3.572   4.763   1.819
 7084TIP3    H242888   3.601   4.898   1.884
 7085TIP3   OH242889   3.709   4.677   2.125
 7085TIP3    H142890   3.659   4.720   2.052
 7085TIP3    H242891   3.709   4.747   2.192
 7086TIP3   OH242892   3.547   4.406   1.979
 7086TIP3    H142893   3.556   4.475   1.912
 7086TIP3    H242894   3.530   4.329   1.924
 7087TIP3   OH242895   2.035   3.840   2.150
 7087TIP3    H142896   2.085   3.901   2.096
 7087TIP3    H242897   1.977   3.894   2.204
 7088TIP3   OH242898   5.195   4.742   1.952
 7088TIP3    H142899   5.194   4.722   1.856
 7088TIP3    H242900   5.280   4.786   1.963
 7089TIP3   OH242901   4.441   4.175   1.917
 7089TIP3    H142902   4.395   4.139   1.995
 7089TIP3    H242903   4.369   4.220   1.869
 7090TIP3   OH242904   4.311   4.439   2.063
 7090TIP3    H142905   4.248   4.422   1.991
 7090TIP3    H242906   4.387   4.477   2.016
 7091TIP3   OH242907   5.018   4.188   2.080
 7091TIP3    H142908   4.928   4.208   2.055
 7091TIP3    H242909   5.059   4.273   2.101
 7092TIP3   OH242910   4.573   5.191   1.890
 7092TIP3    H142911   4.581   5.117   1.826
 7092TIP3    H242912   4.533   5.144   1.965
 7093TIP3   OH242913   4.095   4.873   2.176
 7093TIP3    H142914   4.034   4.908   2.239
 7093TIP3    H242915   4.156   4.944   2.152
 7094TIP3   OH242916   4.160   5.128   2.066
 7094TIP3    H142917   4.223   5.197   2.092
 7094TIP3    H242918   4.211   5.082   1.996
 7095TIP3   OH242919   4.776   5.376   1.894
 7095TIP3    H142920   4.702   5.318   1.924
 7095TIP3    H242921   4.839   5.308   1.874
 7096TIP3   OH242922   4.318   4.951   1.898
 7096TIP3    H142923   4.327   4.873   1.955
 7096TIP3    H242924   4.391   4.934   1.835
 7097TIP3   OH242925   4.864   5.058   1.880
 7097TIP3    H142926   4.827   5.065   1.969
 7097TIP3    H242927   4.842   4.963   1.862
 7098TIP3   OH242928   4.425   4.745   2.130
 7098TIP3    H142929   4.394   4.691   2.203
 7098TIP3    H242930   4.467   4.677   2.076
 7099TIP3   OH242931   4.543   4.557   1.958
 7099TIP3    H142932   4.525   4.561   1.862
 7099TIP3    H242933   4.637   4.579   1.966
 7100TIP3   OH242934   5.481   4.800   1.905
 7100TIP3    H142935   5.458   4.763   1.819
 7100TIP3    H242936   5.488   4.896   1.886
 7101TIP3   OH242937   4.531   5.634   2.063
 7101TIP3    H142938   4.625   5.648   2.082
 7101TIP3    H242939   4.513   5.701   1.997
 7102TIP3   OH242940   3.884   5.100   2.012
 7102TIP3    H142941   3.980   5.105   2.034
 7102TIP3    H242942   3.888   5.029   1.942
 7103TIP3   OH242943   5.356   4.151   1.889
 7103TIP3    H142944   5.415   4.113   1.957
 7103TIP3    H242945   5.272   4.108   1.911
 7104TIP3   OH242946   5.566   4.039   2.047
 7104TIP3    H142947   5.602   3.962   1.997
 7104TIP3    H242948   5.633   4.105   2.053
 7105TIP3   OH242949   4.106   4.033   2.004
 7105TIP3    H142950   4.156   3.974   1.944
 7105TIP3    H242951   4.170   4.069   2.065
 7106TIP3   OH242952   4.800   5.562   2.089
 7106TIP3    H142953   4.882   5.600   2.062
 7106TIP3    H242954   4.770   5.512   2.011
 7107TIP3   OH242955   4.090   5.530   1.948
 7107TIP3    H142956   4.068   5.560   2.037
 7107TIP3    H242957   4.170   5.475   1.961
 7108TIP3   OH242958   6.709   4.553   2.014
 7108TIP3    H142959   6.776   4.555   2.083
 7108TIP3    H242960   6.744   4.484   1.957
 7109TIP3   OH242961   6.966   5.529   2.064
 7109TIP3    H142962   7.007   5.453   2.018
 7109TIP3    H242963   6.963   5.503   2.157
 7110TIP3   OH242964   7.084   4.745   1.952
 7110TIP3    H142965   7.078   4.722   1.856
 7110TIP3    H242966   7.171   4.782   1.957
 7111TIP3   OH242967   6.639   4.133   2.007
 7111TIP3    H142968   6.606   4.137   2.099
 7111TIP3    H242969   6.606   4.046   1.980
 7112TIP3   OH242970   6.170   4.464   2.046
 7112TIP3    H142971   6.135   4.413   1.973
 7112TIP3    H242972   6.263   4.476   2.018
 7113TIP3   OH242973   6.723   5.059   2.143
 7113TIP3    H142974   6.708   5.132   2.205
 7113TIP3    H242975   6.664   4.992   2.182
 7114TIP3   OH242976   5.843   4.670   2.040
 7114TIP3    H142977   5.905   4.740   2.066
 7114TIP3    H242978   5.757   4.713   2.054
 7115TIP3   OH242979   6.972   5.098   2.033
 7115TIP3    H142980   7.032   5.061   2.099
 7115TIP3    H242981   6.888   5.054   2.055
 7116TIP3   OH242982   6.357   5.149   2.130
 7116TIP3    H142983   6.354   5.091   2.206
 7116TIP3    H242984   6.334   5.234   2.168
 7117TIP3   OH242985   5.878   4.392   1.983
 7117TIP3    H142986   5.881   4.489   2.000
 7117TIP3    H242987   5.788   4.380   1.952
 7118TIP3   OH242988   7.112   5.353   1.919
 7118TIP3    H142989   7.143   5.277   1.967
 7118TIP3    H242990   7.187   5.375   1.859
 7119TIP3   OH242991   6.200   4.942   1.898
 7119TIP3    H142992   6.217   4.868   1.957
 7119TIP3    H242993   6.277   4.935   1.839
 7120TIP3   OH242994   6.743   5.058   1.875
 7120TIP3    H142995   6.716   5.066   1.968
 7120TIP3    H242996   6.724   4.962   1.861
 7121TIP3   OH242997   6.428   4.565   1.960
 7121TIP3    H142998   6.414   4.562   1.864
 7121TIP3    H242999   6.525   4.579   1.966
 7122TIP3   OH243000   5.773   5.097   2.012
 7122TIP3    H143001   5.866   5.108   2.035
 7122TIP3    H243002   5.775   5.031   1.940
 7123TIP3   OH243003   7.302   4.411   1.977
 7123TIP3    H143004   7.330   4.470   1.906
 7123TIP3    H243005   7.305   4.324   1.935
 7124TIP3   OH243006   5.980   5.531   1.946
 7124TIP3    H143007   5.952   5.559   2.034
 7124TIP3    H243008   6.055   5.473   1.965
 7125TIP3   OH243009   1.062   6.446   2.008
 7125TIP3    H143010   1.120   6.442   2.087
 7125TIP3    H243011   1.082   6.364   1.964
 7126TIP3   OH243012   1.275   6.526   2.178
 7126TIP3    H143013   1.331   6.537   2.256
 7126TIP3    H243014   1.316   6.575   2.107
 7127TIP3   OH243015   1.766   7.141   1.995
 7127TIP3    H143016   1.781   7.235   2.015
 7127TIP3    H243017   1.856   7.105   2.005
 7128TIP3   OH243018   0.663   6.053   1.917
 7128TIP3    H143019   0.624   6.022   1.999
 7128TIP3    H243020   0.593   6.102   1.873
 7129TIP3   OH243021   0.123   6.111   2.169
 7129TIP3    H143022   0.169   6.174   2.111
 7129TIP3    H243023   0.046   6.163   2.199
 7130TIP3   OH243024   0.531   6.335   2.061
 7130TIP3    H143025   0.476   6.303   1.987
 7130TIP3    H243026   0.613   6.362   2.017
 7131TIP3   OH243027   1.072   6.925   2.135
 7131TIP3    H143028   1.065   7.016   2.173
 7131TIP3    H243029   1.004   6.875   2.179
 7132TIP3   OH243030   1.388   6.956   2.034
 7132TIP3    H143031   1.418   6.929   2.122
 7132TIP3    H243032   1.291   6.956   2.044
 7133TIP3   OH243033   0.795   7.069   1.884
 7133TIP3    H143034   0.806   6.993   1.827
 7133TIP3    H243035   0.755   7.031   1.963
 7134TIP3   OH243036   0.677   7.020   2.131
 7134TIP3    H143037   0.699   6.974   2.212
 7134TIP3    H243038   0.677   7.115   2.153
 7135TIP3   OH243039   1.032   7.195   2.119
 7135TIP3    H143040   0.948   7.220   2.160
 7135TIP3    H243041   1.047   7.286   2.090
 7136TIP3   OH243042   0.591  -0.009   2.206
 7136TIP3    H143043   0.660   0.027   2.145
 7136TIP3    H243044   0.643   0.003   2.288
 7137TIP3   OH243045   0.384   7.016   2.068
 7137TIP3    H143046   0.445   7.087   2.097
 7137TIP3    H243047   0.440   6.973   2.001
 7138TIP3   OH243048   0.230   6.281   1.968
 7138TIP3    H143049   0.231   6.370   2.005
 7138TIP3    H243050   0.135   6.262   1.958
 7139TIP3   OH243051   1.004   7.214   1.840
 7139TIP3    H143052   0.945   7.193   1.914
 7139TIP3    H243053   1.089   7.193   1.878
 7140TIP3   OH243054   1.464   7.234   1.922
 7140TIP3    H143055   1.493   7.155   1.970
 7140TIP3    H243056   1.540   7.255   1.865
 7141TIP3   OH243057   1.098   6.937   1.873
 7141TIP3    H143058   1.064   6.955   1.963
 7141TIP3    H243059   1.067   6.846   1.864
 7142TIP3   OH243060   0.771   6.453   1.962
 7142TIP3    H143061   0.752   6.448   1.867
 7142TIP3    H243062   0.868   6.461   1.968
 7143TIP3   OH243063   0.119   6.984   2.022
 7143TIP3    H143064   0.215   6.997   2.039
 7143TIP3    H243065   0.122   6.923   1.947
 7144TIP3   OH243066   0.337   5.924   1.997
 7144TIP3    H143067   0.389   5.858   1.949
 7144TIP3    H243068   0.397   5.952   2.067
 7145TIP3   OH243069   2.938   6.441   2.017
 7145TIP3    H143070   3.009   6.444   2.085
 7145TIP3    H243071   2.967   6.371   1.960
 7146TIP3   OH243072   3.163   6.517   2.177
 7146TIP3    H143073   3.218   6.541   2.253
 7146TIP3    H243074   3.201   6.575   2.107
 7147TIP3   OH243075   3.533   5.698   2.166
 7147TIP3    H143076   3.442   5.714   2.191
 7147TIP3    H243077   3.561   5.778   2.122
 7148TIP3   OH243078   3.649   7.138   2.006
 7148TIP3    H143079   3.658   7.232   2.014
 7148TIP3    H243080   3.741   7.108   1.997
 7149TIP3   OH243081   3.309   6.627   1.953
 7149TIP3    H143082   3.309   6.609   1.857
 7149TIP3    H243083   3.395   6.671   1.962
 7150TIP3   OH243084   2.868   6.020   2.003
 7150TIP3    H143085   2.844   6.019   2.096
 7150TIP3    H243086   2.837   5.932   1.979
 7151TIP3   OH243087   2.418   6.336   2.062
 7151TIP3    H143088   2.363   6.304   1.991
 7151TIP3    H243089   2.498   6.362   2.016
 7152TIP3   OH243090   2.275   7.014   2.064
 7152TIP3    H143091   2.327   7.090   2.098
 7152TIP3    H243092   2.324   6.978   1.990
 7153TIP3   OH243093   2.110   6.284   1.971
 7153TIP3    H143094   2.114   6.374   2.007
 7153TIP3    H243095   2.019   6.260   1.958
 7154TIP3   OH243096   2.882   7.257   1.897
 7154TIP3    H143097   2.824   7.192   1.934
 7154TIP3    H243098   2.963   7.210   1.877
 7155TIP3   OH243099   2.556   6.634   2.144
 7155TIP3    H143100   2.498   6.576   2.196
 7155TIP3    H243101   2.580   6.568   2.074
 7156TIP3   OH243102   2.656   6.447   1.959
 7156TIP3    H143103   2.639   6.448   1.863
 7156TIP3    H243104   2.752   6.464   1.966
 7157TIP3   OH243105   3.593   6.683   1.904
 7157TIP3    H143106   3.572   6.647   1.816
 7157TIP3    H243107   3.605   6.779   1.888
 7158TIP3   OH243108   1.998   6.983   2.009
 7158TIP3    H143109   2.092   6.990   2.037
 7158TIP3    H243110   2.004   6.914   1.941
 7159TIP3   OH243111   5.538   7.135   1.993
 7159TIP3    H143112   5.541   7.230   2.016
 7159TIP3    H243113   5.630   7.106   2.004
 7160TIP3   OH243114   5.189   6.641   1.947
 7160TIP3    H143115   5.194   6.608   1.856
 7160TIP3    H243116   5.281   6.668   1.964
 7161TIP3   OH243117   4.753   6.018   2.008
 7161TIP3    H143118   4.725   6.018   2.100
 7161TIP3    H243119   4.722   5.931   1.977
 7162TIP3   OH243120   4.438   6.059   1.918
 7162TIP3    H143121   4.396   6.021   1.996
 7162TIP3    H243122   4.364   6.102   1.873
 7163TIP3   OH243123   4.302   6.337   2.062
 7163TIP3    H143124   4.249   6.300   1.989
 7163TIP3    H243125   4.383   6.358   2.015
 7164TIP3   OH243126   5.020   6.076   2.080
 7164TIP3    H143127   4.927   6.092   2.056
 7164TIP3    H243128   5.057   6.163   2.103
 7165TIP3   OH243129   4.848   6.941   2.155
 7165TIP3    H143130   4.816   7.026   2.193
 7165TIP3    H243131   4.776   6.881   2.178
 7166TIP3   OH243132   5.161   6.964   2.036
 7166TIP3    H143133   5.188   6.922   2.117
 7166TIP3    H243134   5.065   6.957   2.044
 7167TIP3   OH243135   4.571   7.075   1.884
 7167TIP3    H143136   4.580   6.997   1.826
 7167TIP3    H243137   4.528   7.029   1.957
 7168TIP3   OH243138   4.724   7.182   2.157
 7168TIP3    H143139   4.664   7.230   2.220
 7168TIP3    H243140   4.790   7.252   2.140
 7169TIP3   OH243141   4.382  -0.094   2.196
 7169TIP3    H143142   4.421  -0.014   2.161
 7169TIP3    H243143   4.427  -0.075   2.282
 7170TIP3   OH243144   3.995   6.285   1.973
 7170TIP3    H143145   3.990   6.376   2.003
 7170TIP3    H243146   3.903   6.260   1.957
 7171TIP3   OH243147   4.773   7.259   1.903
 7171TIP3    H143148   4.708   7.187   1.918
 7171TIP3    H243149   4.847   7.206   1.871
 7172TIP3   OH243150   5.233   7.234   1.921
 7172TIP3    H143151   5.263   7.156   1.969
 7172TIP3    H243152   5.310   7.253   1.864
 7173TIP3   OH243153   4.859   6.940   1.879
 7173TIP3    H143154   4.832   6.950   1.972
 7173TIP3    H243155   4.841   6.844   1.864
 7174TIP3   OH243156   5.485   6.691   1.900
 7174TIP3    H143157   5.454   6.649   1.818
 7174TIP3    H243158   5.481   6.787   1.880
 7175TIP3   OH243159   5.565   5.920   2.049
 7175TIP3    H143160   5.607   5.847   2.002
 7175TIP3    H243161   5.631   5.990   2.056
 7176TIP3   OH243162   4.108   5.925   2.000
 7176TIP3    H143163   4.155   5.858   1.949
 7176TIP3    H243164   4.169   5.950   2.069
 7177TIP3   OH243165   6.713   6.431   2.015
 7177TIP3    H143166   6.780   6.436   2.084
 7177TIP3    H243167   6.751   6.369   1.952
 7178TIP3   OH243168   5.781   6.106   2.173
 7178TIP3    H143169   5.825   6.166   2.111
 7178TIP3    H243170   5.701   6.153   2.200
 7179TIP3   OH243171   6.737   6.943   2.158
 7179TIP3    H143172   6.700   7.027   2.191
 7179TIP3    H243173   6.664   6.882   2.177
 7180TIP3   OH243174   7.049   6.958   2.037
 7180TIP3    H143175   7.070   6.927   2.124
 7180TIP3    H243176   6.951   6.953   2.042
 7181TIP3   OH243177   6.437   7.070   1.885
 7181TIP3    H143178   6.466   6.997   1.828
 7181TIP3    H243179   6.421   7.023   1.967
 7182TIP3   OH243180   6.595   7.168   2.207
 7182TIP3    H143181   6.529   7.236   2.212
 7182TIP3    H243182   6.659   7.216   2.147
 7183TIP3   OH243183   5.878   6.277   1.979
 7183TIP3    H143184   5.884   6.372   1.999
 7183TIP3    H243185   5.788   6.262   1.950
 7184TIP3   OH243186   6.641   7.218   1.821
 7184TIP3    H143187   6.587   7.206   1.902
 7184TIP3    H243188   6.727   7.217   1.866
 7185TIP3   OH243189   7.121   7.234   1.925
 7185TIP3    H143190   7.146   7.151   1.967
 7185TIP3    H243191   7.194   7.253   1.863
 7186TIP3   OH243192   6.749   6.937   1.876
 7186TIP3    H143193   6.718   6.950   1.967
 7186TIP3    H243194   6.726   6.843   1.865
 7187TIP3   OH243195   5.769   6.994   1.999
 7187TIP3    H143196   5.857   6.991   2.037
 7187TIP3    H243197   5.771   6.917   1.938
 7188TIP3   OH243198   7.313   6.298   1.976
 7188TIP3    H143199   7.318   6.355   1.900
 7188TIP3    H243200   7.289   6.211   1.938
 7189TIP3   OH243201   7.249   6.032   1.882
 7189TIP3    H143202   7.297   5.999   1.958
 7189TIP3    H243203   7.160   6.002   1.908
 7190TIP3   OH243204   5.993   5.921   1.998
 7190TIP3    H143205   6.042   5.857   1.946
 7190TIP3    H243206   6.052   5.946   2.069
   7.34166   7.34166   8.50000   0.00000   0.00000   0.00000   0.00000   0.00000   0.00000
